  ==> Input File <==

--------------------------------------------------------------------------
set {
	reference rhf
	basis cc-pvtz
}

set_num_threads( 4 )
memory 2 gb

molecule MOL {
0 1

H	 -2.266619	 1.169943	 0.000098
O	 -1.438073	 1.611259	 0.000041
C	 -0.408657	 0.734701	 0.000005
C	 0.866504	 1.268905	 -0.000079
C	 -0.607242	 -0.641045	 0.000087
H	 0.977953	 2.335446	 -0.000126
C	 1.963238	 0.433356	 -0.000102
C	 0.512776	 -1.456574	 0.000063
C	 -1.999429	 -1.222438	 0.000194
H	 2.950154	 0.855229	 -0.000173
C	 1.792045	 -0.937455	 -0.000039
H	 0.376124	 -2.522076	 0.000116
H	 -2.563112	 -0.918851	 -0.877540
H	 -1.962052	 -2.302273	 0.000254
H	 -2.563016	 -0.918749	 0.877957
H	 2.640511	 -1.593561	 -0.000061

	symmetry c1
}
set optking {
	frozen_dihedral = ("
		4 3 2 1
	")
}

ee = optimize('scf')
oeprop('DIPOLE', 'QUADRUPOLE', 'MULLIKEN_CHARGES')
f=open( 'psi4out.xyz', 'w' )
f.write( "16  " )
f.write( str(ee) + "\n" )
f.write( MOL.save_string_xyz() )
f.close()
--------------------------------------------------------------------------

    Molecular point group: c1
  Charge       = 0
  Multiplicity = 1
  Basis Set: CC-PVTZ
  Basis Set:

    Orbital Energies (a.u.)
    -----------------------

    Doubly Occupied:

       1A    -20.581877     2A    -11.291292     3A    -11.233554
       4A    -11.232651     5A    -11.228589     6A    -11.227313
       7A    -11.217427     8A    -11.216522     9A     -1.412512
      10A     -1.153399    11A     -1.052071    12A     -1.007897
      13A     -0.944263    14A     -0.828953    15A     -0.824000
      16A     -0.734762    17A     -0.680796    18A     -0.647384
      19A     -0.609173    20A     -0.606617    21A     -0.577593
      22A     -0.566486    23A     -0.566362    24A     -0.554717
      25A     -0.505514    26A     -0.485485    27A     -0.478879
      28A     -0.333865    29A     -0.308862

  @DF-RHF Final Energy:  -344.71931903329937

   => Energetics <=

    Nuclear Repulsion Energy =            351.0585665070854020
    One-Electron Energy =               -1163.3381443881794439
    Two-Electron Energy =                 467.5602588477946711
    DFT Exchange-Correlation Energy =       0.0000000000000000
    Empirical Dispersion Energy =           0.0000000000000000
    PCM Polarization Energy =               0.0000000000000000
    EFP Energy =                            0.0000000000000000
    Total Energy =                       -344.7193190332993709
    Molecular point group: c1
  Basis Set: CC-PVTZ
  Basis Set:

  -Total Gradient:
     Atom            X                  Y                   Z
    ------   -----------------  -----------------  -----------------
       1        0.000054965909     0.000013750441     0.000000065374
       2       -0.000034419655     0.000012102865     0.000001404350
       3       -0.000040118562    -0.000133731186    -0.000004177315
       4        0.000084328890     0.000013703525     0.000000893011
       5       -0.000082122458     0.000121270593     0.000001279713
       6       -0.000008991858    -0.000000515005     0.000000028738
       7       -0.000030956167     0.000120603005     0.000000936047
       8        0.000128239944    -0.000026480829     0.000001587636
       9        0.000001487694    -0.000022292245    -0.000001443237
      10       -0.000001001616    -0.000006139897    -0.000000066929
      11       -0.000079234918    -0.000108108960    -0.000001167939
      12       -0.000005170692    -0.000002461642    -0.000000315292
      13        0.000004644704     0.000001882162     0.000008159987
      14        0.000001966370     0.000008181120    -0.000000067998
      15        0.000004197697     0.000002572888    -0.000007013395
      16        0.000002184713     0.000005663168    -0.000000102751

  **** Optimization is complete! (in 1 steps) ****
    Final optimized geometry and variables:
    Molecular point group: c1

    Geometry (in Angstrom), charge = 0, multiplicity = 1:

    H           -2.266619456932     1.169943180643     0.000072708842
    O           -1.438073456932     1.611259180643     0.000015708842
    C           -0.408657456932     0.734701180643    -0.000020291158
    C            0.866503543068     1.268905180643    -0.000104291158
    C           -0.607242456932    -0.641044819357     0.000061708842
    H            0.977952543068     2.335446180643    -0.000151291158
    C            1.963237543068     0.433356180643    -0.000127291158
    C            0.512775543068    -1.456573819357     0.000037708842
    C           -1.999429456932    -1.222437819357     0.000168708842
    H            2.950153543068     0.855229180643    -0.000198291158
    C            1.792044543068    -0.937454819357    -0.000064291158
    H            0.376123543068    -2.522075819357     0.000090708842
    H           -2.563112456932    -0.918850819357    -0.877565291158
    H           -1.962052456932    -2.302272819357     0.000228708842
    H           -2.563016456932    -0.918748819357     0.877931708842
    H            2.640510543068    -1.593560819357    -0.000086291158

  Mulliken Charges: (a.u.)
   Center  Symbol    Alpha    Beta     Spin     Total
       1     H     0.38738  0.38738  0.00000  0.22524
       2     O     4.17112  4.17112  0.00000 -0.34225
       3     C     2.87278  2.87278  0.00000  0.25443
       4     C     3.11185  3.11185  0.00000 -0.22371
       5     C     3.01236  3.01236  0.00000 -0.02472
       6     H     0.42024  0.42024  0.00000  0.15953
       7     C     3.06506  3.06506  0.00000 -0.13013
       8     C     3.08287  3.08287  0.00000 -0.16574
       9     C     3.16586  3.16586  0.00000 -0.33172
      10     H     0.42250  0.42250  0.00000  0.15500
      11     C     3.09266  3.09266  0.00000 -0.18532
      12     H     0.42570  0.42570  0.00000  0.14861
      13     H     0.44973  0.44973  0.00000  0.10054
      14     H     0.44504  0.44504  0.00000  0.10991
      15     H     0.44973  0.44973  0.00000  0.10054
      16     H     0.42511  0.42511  0.00000  0.14978

   Total alpha = 29.00000, Total beta = 29.00000, Total charge =  0.00000
