  ==> Input File <==

--------------------------------------------------------------------------
set {
	reference rhf
	basis cc-pvtz
}

set_num_threads( 4 )
memory 2 gb

molecule MOL {
0 1

H	 -0.888005	 -1.969804	 4.261306
C	 -0.329999	 -1.678413	 3.393069
C	 -0.589291	 -2.261103	 2.160562
C	 0.654029	 -0.721540	 3.482277
H	 -1.353616	 -3.009718	 2.071587
C	 0.123238	 -1.890742	 1.045592
H	 0.868990	 -0.259473	 4.427250
C	 1.383217	 -0.335720	 2.366106
H	 -0.069235	 -2.334736	 0.088778
C	 1.117052	 -0.922463	 1.142600
H	 2.142356	 0.411704	 2.468705
O	 1.760432	 -0.625184	 0.000000
C	 2.773565	 0.334879	 0.000000
H	 2.728295	 0.960928	 -0.884150
H	 3.706387	 -0.206610	 0.000000
H	 2.728295	 0.960928	 0.884150

	symmetry c1
}
set optking {
	frozen_dihedral = ("
		10 12 13 14
	")
}

ee = optimize('scf')
oeprop('DIPOLE', 'QUADRUPOLE', 'MULLIKEN_CHARGES')
f=open( 'psi4out.xyz', 'w' )
f.write( "16  " )
f.write( str(ee) + "\n" )
f.write( MOL.save_string_xyz() )
f.close()
--------------------------------------------------------------------------

    Molecular point group: c1
  Charge       = 0
  Multiplicity = 1
  Basis Set: CC-PVTZ
  Basis Set:
  @DF-RHF Final Energy:  -344.69655802642279
    Total Energy =                       -344.6965580264228493
    Molecular point group: c1
  Basis Set: CC-PVTZ
  Basis Set:
  Basis Set: CC-PVTZ
  Basis Set:
  @DF-RHF Final Energy:  -344.69687315048498
    Total Energy =                       -344.6968731504846915
  Basis Set: CC-PVTZ
  Basis Set:
  Basis Set: CC-PVTZ
  Basis Set:
  @DF-RHF Final Energy:  -344.69986140704839
    Total Energy =                       -344.6998614070485019
  Basis Set: CC-PVTZ
  Basis Set:
  Basis Set: CC-PVTZ
  Basis Set:
  @DF-RHF Final Energy:  -344.70045983717137
    Total Energy =                       -344.7004598371711381
  Basis Set: CC-PVTZ
  Basis Set:
  Basis Set: CC-PVTZ
  Basis Set:
  @DF-RHF Final Energy:  -344.70080218371368
    Total Energy =                       -344.7008021837135061
  Basis Set: CC-PVTZ
  Basis Set:
  Basis Set: CC-PVTZ
  Basis Set:
  @DF-RHF Final Energy:  -344.70082549558498
    Total Energy =                       -344.7008254955850362
  Basis Set: CC-PVTZ
  Basis Set:
  Basis Set: CC-PVTZ
  Basis Set:
  @DF-RHF Final Energy:  -344.70082961588957
    Total Energy =                       -344.7008296158892335
  Basis Set: CC-PVTZ
  Basis Set:
  Charge       = 0
  Multiplicity = 1
  Basis Set: CC-PVTZ
  Basis Set:

    Orbital Energies (a.u.)
    -----------------------

    Doubly Occupied:

       1A    -20.575668     2A    -11.292544     3A    -11.277520
       4A    -11.231417     5A    -11.230043     6A    -11.222318
       7A    -11.218313     8A    -11.217905     9A     -1.414528
      10A     -1.151101    11A     -1.024534    12A     -1.016973
      13A     -0.942565    14A     -0.835411    15A     -0.808614
      16A     -0.723935    17A     -0.667151    18A     -0.666996
      19A     -0.655905    20A     -0.617862    21A     -0.591911
      22A     -0.582701    23A     -0.527853    24A     -0.520142
      25A     -0.511425    26A     -0.482770    27A     -0.459539
      28A     -0.339546    29A     -0.311872

  @DF-RHF Final Energy:  -344.70083026442478

   => Energetics <=

    Nuclear Repulsion Energy =            348.5311480778017312
    One-Electron Energy =               -1158.2258322641794166
    Two-Electron Energy =                 464.9938539219527911
    DFT Exchange-Correlation Energy =       0.0000000000000000
    Empirical Dispersion Energy =           0.0000000000000000
    PCM Polarization Energy =               0.0000000000000000
    EFP Energy =                            0.0000000000000000
    Total Energy =                       -344.7008302644248943
    Molecular point group: c1
  Basis Set: CC-PVTZ
  Basis Set:

  -Total Gradient:
     Atom            X                  Y                   Z
    ------   -----------------  -----------------  -----------------
       1       -0.000009261920    -0.000007928382    -0.000003055728
       2        0.000060918955     0.000086094015     0.000045541982
       3        0.000035891058    -0.000051925288    -0.000083143305
       4       -0.000072254277    -0.000052997122     0.000058812208
       5       -0.000002485103     0.000012884389     0.000011464527
       6       -0.000024651658    -0.000028460797     0.000009236400
       7        0.000003422203     0.000000857973    -0.000004219783
       8        0.000019562501    -0.000044092978    -0.000103021053
       9        0.000004363504     0.000002118297    -0.000007129891
      10       -0.002231848546     0.001228120466    -0.001110137107
      11        0.000006624362     0.000001982763    -0.000002505994
      12        0.002659916811    -0.001376553983     0.001994166035
      13        0.002034770306    -0.001291029877    -0.001444403312
      14       -0.002503036384     0.001594764321     0.000633567293
      15        0.000005515727    -0.000023254880    -0.000001053480
      16        0.000012552466    -0.000050578918     0.000005881209

  **** Optimization is complete! (in 8 steps) ****
    Final optimized geometry and variables:
    Molecular point group: c1

    Geometry (in Angstrom), charge = 0, multiplicity = 1:

    H           -1.983668936945    -0.845108856971     2.555668181353
    C           -1.355431386192    -0.615151808362     1.717372835589
    C           -1.619633454245    -1.159653618352     0.470946581406
    C           -0.271101884369     0.222038119600     1.864630924624
    H           -2.459337480682    -1.815473314281     0.339432830848
    C           -0.818654136223    -0.863805712150    -0.609035820968
    H           -0.046173000569     0.644966155026     2.825445959045
    C            0.547885685108     0.523229654788     0.788512502319
    H           -1.015661867971    -1.277811214096    -1.578268684104
    C            0.268738006261    -0.015160128517    -0.455148936935
    H            1.398171738928     1.159519797483     0.930947281512
    O            1.025768673029     0.197915985510    -1.548699413977
    C            1.741407046289     1.393139706027    -1.697414467898
    H            1.663086273142     1.688477850335    -2.733712283468
    H            2.782659360232     1.254770056949    -1.432931218195
    H            1.322322552188     2.185937532591    -1.092178290299

  Mulliken Charges: (a.u.)
   Center  Symbol    Alpha    Beta     Spin     Total
       1     H     0.42430  0.42430  0.00000  0.15139
       2     C     3.09861  3.09861  0.00000 -0.19722
       3     C     3.05949  3.05949  0.00000 -0.11897
       4     C     3.06391  3.06391  0.00000 -0.12781
       5     H     0.42286  0.42286  0.00000  0.15428
       6     C     3.11020  3.11020  0.00000 -0.22041
       7     H     0.42298  0.42298  0.00000  0.15403
       8     C     3.13324  3.13324  0.00000 -0.26649
       9     H     0.41971  0.41971  0.00000  0.16059
      10     C     2.85593  2.85593  0.00000  0.28814
      11     H     0.42333  0.42333  0.00000  0.15334
      12     O     4.15973  4.15973  0.00000 -0.31946
      13     C     3.04046  3.04046  0.00000 -0.08092
      14     H     0.44454  0.44454  0.00000  0.11091
      15     H     0.45615  0.45615  0.00000  0.08770
      16     H     0.46455  0.46455  0.00000  0.07089

   Total alpha = 29.00000, Total beta = 29.00000, Total charge =  0.00000
