  ==> Input File <==

--------------------------------------------------------------------------
set {
	reference rhf
	basis 6-31G*
}

set_num_threads( 1 )
memory 2 gb

molecule MOL {
0 1

H	 -3.161837	 0.500524	 -0.000234
C	 -2.367097	 -0.232926	 -0.000000
O	 -1.158440	 0.455814	 -0.000122
H	 -2.468853	 -0.861886	 -0.882833
H	 -2.468942	 -0.861421	 0.883154
C	 -0.029776	 -0.365156	 0.000148
C	 -0.373208	 -1.670422	 0.696565
H	 0.795525	 0.131458	 0.512156
H	 0.295631	 -0.556284	 -1.023321
C	 0.809928	 -2.636230	 0.744344
H	 -0.713746	 -1.444679	 1.702416
H	 -1.210098	 -2.127684	 0.177696
H	 1.650986	 -2.206562	 1.281401
H	 0.536813	 -3.558594	 1.245840
H	 1.151641	 -2.893928	 -0.254269

	symmetry c1
}
set optking {
	frozen_dihedral = ("
		6 3 2 4,
		11 7 6 8
	")
}

ee = energy('scf')
oeprop('DIPOLE', 'QUADRUPOLE', 'MULLIKEN_CHARGES')
f=open( 'psi4out.xyz', 'w' )
f.write( "15  " )
f.write( str(ee) + "\n" )
f.write( MOL.save_string_xyz() )
f.close()
--------------------------------------------------------------------------

    Molecular point group: c1

    Geometry (in Angstrom), charge = 0, multiplicity = 1:

       Center              X                  Y                   Z               Mass
    ------------   -----------------  -----------------  -----------------  -----------------
           H         -2.518046102234     1.385510649332    -0.283214178464     1.007825032070
           C         -1.723306102234     0.652060649332    -0.282980178464    12.000000000000
           O         -0.514649102234     1.340800649332    -0.283102178464    15.994914619560
           H         -1.825062102234     0.023100649332    -1.165813178464     1.007825032070
           H         -1.825151102234     0.023565649332     0.600173821536     1.007825032070
           C          0.614014897766     0.519830649332    -0.282832178464    12.000000000000
           C          0.270582897766    -0.785435350668     0.413584821536    12.000000000000
           H          1.439315897766     1.016444649332     0.229175821536     1.007825032070
           H          0.939421897766     0.328702649332    -1.306301178464     1.007825032070
           C          1.453718897766    -1.751243350668     0.461363821536    12.000000000000
           H         -0.069955102234    -0.559692350668     1.419435821536     1.007825032070
           H         -0.566307102234    -1.242697350668    -0.105284178464     1.007825032070
           H          2.294776897766    -1.321575350668     0.998420821536     1.007825032070
           H          1.180603897766    -2.673607350668     0.962859821536     1.007825032070
           H          1.795431897766    -2.008941350668    -0.537249178464     1.007825032070

  Charge       = 0
  Multiplicity = 1
  Basis Set: 6-31G*
  Basis Set:

    Orbital Energies (a.u.)
    -----------------------

    Doubly Occupied:

       1A    -20.550474     2A    -11.266841     3A    -11.261231
       4A    -11.218171     5A    -11.215576     6A     -1.378999
       7A     -1.057123     8A     -0.961851     9A     -0.896411
      10A     -0.795233    11A     -0.678033    12A     -0.665981
      13A     -0.627820    14A     -0.602394    15A     -0.563461
      16A     -0.541237    17A     -0.525269    18A     -0.500759
      19A     -0.491258    20A     -0.441997    21A     -0.404821

  @DF-RHF Final Energy:  -232.11887258614186

   => Energetics <=

    Nuclear Repulsion Energy =            195.8393308129646755
    One-Electron Energy =                -702.6265337678914875
    Two-Electron Energy =                 274.6683303687847229
    DFT Exchange-Correlation Energy =       0.0000000000000000
    Empirical Dispersion Energy =           0.0000000000000000
    PCM Polarization Energy =               0.0000000000000000
    EFP Energy =                            0.0000000000000000
    Total Energy =                       -232.1188725861420608

  Mulliken Charges: (a.u.)
   Center  Symbol    Alpha    Beta     Spin     Total
       1     H     0.41079  0.41079  0.00000  0.17843
       2     C     3.09011  3.09011  0.00000 -0.18023
       3     O     4.30775  4.30775  0.00000 -0.61551
       4     H     0.42939  0.42939  0.00000  0.14122
       5     H     0.42345  0.42345  0.00000  0.15311
       6     C     2.97354  2.97354  0.00000  0.05291
       7     C     3.19001  3.19001  0.00000 -0.38002
       8     H     0.41890  0.41890  0.00000  0.16221
       9     H     0.43071  0.43071  0.00000  0.13858
      10     C     3.24248  3.24248  0.00000 -0.48495
      11     H     0.41290  0.41290  0.00000  0.17419
      12     H     0.41309  0.41309  0.00000  0.17381
      13     H     0.42001  0.42001  0.00000  0.15999
      14     H     0.41674  0.41674  0.00000  0.16651
      15     H     0.42013  0.42013  0.00000  0.15974

   Total alpha = 21.00000, Total beta = 21.00000, Total charge =  0.00000
