  ==> Input File <==

--------------------------------------------------------------------------
set {
	reference rhf
	basis cc-pvtz
}

set_num_threads( 4 )
memory 2 gb

molecule MOL {
0 1

H	 -2.362939	 -1.309000	 -0.383250
C	 -1.359344	 -1.272457	 0.020748
C	 -0.684082	 0.000127	 -0.464918
H	 -0.825835	 -2.151141	 -0.318537
H	 -1.416276	 -1.292399	 1.099455
C	 -1.359089	 1.272668	 0.021259
N	 0.742439	 -0.000109	 0.007333
H	 -0.596914	 0.000345	 -1.538146
H	 -2.362696	 1.309620	 -0.382686
H	 -0.825392	 2.151374	 -0.317674
H	 -1.415983	 1.292181	 1.099973
O	 1.201620	 -1.036566	 0.351648
O	 1.319017	 1.036156	 0.005731

	symmetry c1
}
set optking {
	frozen_dihedral = ("
		12 7 3 8
	")
}

ee = optimize('scf')
oeprop('DIPOLE', 'QUADRUPOLE', 'MULLIKEN_CHARGES')
f=open( 'psi4out.xyz', 'w' )
f.write( "13  " )
f.write( str(ee) + "\n" )
f.write( MOL.save_string_xyz() )
f.close()
--------------------------------------------------------------------------

    Molecular point group: c1
  Charge       = 0
  Multiplicity = 1
  Basis Set: CC-PVTZ
  Basis Set:
  @DF-RHF Final Energy:  -321.86123350773875
    Total Energy =                       -321.8612335077390298
    Molecular point group: c1
  Basis Set: CC-PVTZ
  Basis Set:
  Basis Set: CC-PVTZ
  Basis Set:
  @DF-RHF Final Energy:  -321.85810043676014
    Total Energy =                       -321.8581004367600258
  Basis Set: CC-PVTZ
  Basis Set:
  Basis Set: CC-PVTZ
  Basis Set:
  @DF-RHF Final Energy:  -321.85963646331226
    Total Energy =                       -321.8596364633118583
  Basis Set: CC-PVTZ
  Basis Set:
  Basis Set: CC-PVTZ
  Basis Set:
  @DF-RHF Final Energy:  -321.86197163278104
    Total Energy =                       -321.8619716327810920
  Basis Set: CC-PVTZ
  Basis Set:
  Basis Set: CC-PVTZ
  Basis Set:
  @DF-RHF Final Energy:  -321.86222257030113
    Total Energy =                       -321.8622225703014124
  Basis Set: CC-PVTZ
  Basis Set:
  Basis Set: CC-PVTZ
  Basis Set:
  @DF-RHF Final Energy:  -321.86225102329865
    Total Energy =                       -321.8622510232986542
  Basis Set: CC-PVTZ
  Basis Set:
  Basis Set: CC-PVTZ
  Basis Set:
  @DF-RHF Final Energy:  -321.86225604482865
    Total Energy =                       -321.8622560448286549
  Basis Set: CC-PVTZ
  Basis Set:
  Charge       = 0
  Multiplicity = 1
  Basis Set: CC-PVTZ
  Basis Set:

    Orbital Energies (a.u.)
    -----------------------

    Doubly Occupied:

       1A    -20.590043     2A    -20.586849     3A    -15.833953
       4A    -11.306988     5A    -11.239485     6A    -11.237551
       7A     -1.634514     8A     -1.418127     9A     -1.139747
      10A     -0.967719    11A     -0.958340    12A     -0.815045
      13A     -0.764942    14A     -0.730069    15A     -0.722887
      16A     -0.639984    17A     -0.595907    18A     -0.586447
      19A     -0.570347    20A     -0.522332    21A     -0.521387
      22A     -0.483353    23A     -0.472421    24A     -0.452163

  @DF-RHF Final Energy:  -321.86225653796333

   => Energetics <=

    Nuclear Repulsion Energy =            257.2165760156860301
    One-Electron Energy =                -948.5764634460419984
    Two-Electron Energy =                 369.4976308923925785
    DFT Exchange-Correlation Energy =       0.0000000000000000
    Empirical Dispersion Energy =           0.0000000000000000
    PCM Polarization Energy =               0.0000000000000000
    EFP Energy =                            0.0000000000000000
    Total Energy =                       -321.8622565379633329
    Molecular point group: c1
  Basis Set: CC-PVTZ
  Basis Set:

  -Total Gradient:
     Atom            X                  Y                   Z
    ------   -----------------  -----------------  -----------------
       1        0.000007811581     0.000002419043     0.000000805635
       2       -0.000019260571    -0.000007008119     0.000001781545
       3        0.000080745363     0.000838099018    -0.000270870930
       4        0.000002102685    -0.000012917913    -0.000002489745
       5       -0.000003058446    -0.000001644683     0.000005312035
       6        0.000008346159     0.000006291080    -0.000004006074
       7       -0.000370912076     0.000092697722     0.000980287313
       8        0.000012657892    -0.000778066836     0.000010613539
       9        0.000008805202    -0.000003730408     0.000000602023
      10        0.000000873978     0.000013924556     0.000001537811
      11        0.000001389038    -0.000004251902    -0.000002432651
      12        0.000264571569    -0.000109393109    -0.000738751715
      13        0.000005927632    -0.000036418450     0.000017611214

  **** Optimization is complete! (in 8 steps) ****
    Final optimized geometry and variables:
    Molecular point group: c1

    Geometry (in Angstrom), charge = 0, multiplicity = 1:

    H           -2.399387491917    -1.257401449853    -0.383602977582
    C           -1.390158179030    -1.274930713794     0.008154420984
    C           -0.685972372481    -0.007812773459    -0.440529882386
    H           -0.892926294227    -2.159817155441    -0.355353934169
    H           -1.443503163253    -1.330215883913     1.087548261859
    C           -1.381180004706     1.265149946212     0.014315596696
    N            0.753220190665     0.001820370816     0.024744504376
    H           -0.579043050209    -0.007003834496    -1.517755879985
    H           -2.394119191882     1.257876666412    -0.366758568471
    H           -0.877663437281     2.145286482855    -0.350361121319
    H           -1.426521803935     1.312950703521     1.095536736845
    O            1.236306226189    -1.022782726382     0.369065352367
    O            1.328999519061     1.036803186741    -0.027259566731

  Mulliken Charges: (a.u.)
   Center  Symbol    Alpha    Beta     Spin     Total
       1     H     0.45058  0.45058  0.00000  0.09884
       2     C     3.14262  3.14262  0.00000 -0.28523
       3     C     3.00660  3.00660  0.00000 -0.01320
       4     H     0.43349  0.43349  0.00000  0.13301
       5     H     0.44500  0.44500  0.00000  0.11001
       6     C     3.14394  3.14394  0.00000 -0.28789
       7     N     3.27540  3.27540  0.00000  0.44921
       8     H     0.43042  0.43042  0.00000  0.13917
       9     H     0.45048  0.45048  0.00000  0.09905
      10     H     0.43066  0.43066  0.00000  0.13867
      11     H     0.44663  0.44663  0.00000  0.10674
      12     O     4.17034  4.17034  0.00000 -0.34068
      13     O     4.17385  4.17385  0.00000 -0.34770

   Total alpha = 24.00000, Total beta = 24.00000, Total charge = -0.00000
