                              Psi4 1.0.54 Driver

  ==> Input File <==

--------------------------------------------------------------------------
set {
	reference rhf
	basis cc-pvtz
}

set_num_threads( 4 )
memory 2 gb

molecule MOL {
0 1

H	 0.606407	 4.718653	 0.638184
N	 -0.194677	 4.130092	 0.551712
C	 0.193232	 2.750140	 0.305296
H	 -0.741945	 4.486707	 -0.203715
C	 -1.027528	 1.843432	 0.256800
H	 0.839087	 2.437211	 1.118839
H	 0.767213	 2.628561	 -0.614334
C	 -0.678115	 0.376691	 0.025731
H	 -1.576836	 1.954090	 1.186005
H	 -1.691302	 2.184412	 -0.535425
C	 -1.900706	 -0.535531	 -0.022488
H	 -0.011447	 0.037256	 0.815220
H	 -0.122560	 0.277356	 -0.903980
C	 -3.220513	 0.226854	 0.028039
H	 -1.865036	 -1.134397	 -0.928236
H	 -1.857948	 -1.236381	 0.806820
H	 -3.309098	 0.911849	 -0.808725
H	 -4.066838	 -0.449485	 -0.008086
H	 -3.301685	 0.809374	 0.939860

	symmetry c1
}
set optking {
	frozen_dihedral = ("
		12 8 11 15
	")
}

ee,wfn = optimize('scf', return_wfn=True)
oeprop( wfn, 'DIPOLE', 'QUADRUPOLE', 'MULLIKEN_CHARGES')
f=open( 'psi4out.xyz', 'w' )
f.write( "19  " )
f.write( str(ee) + "\n" )
f.write( MOL.save_string_xyz() )
f.close()
--------------------------------------------------------------------------

    Molecular point group: c1
  Charge       = 0
  Multiplicity = 1
  Basis Set: CC-PVTZ
  Basis Set:
  @DF-RHF Final Energy:  -251.43392168324985
    Total Energy =                       -251.4339216832499346
    Molecular point group: c1
  Basis Set: CC-PVTZ
  Basis Set:
  Basis Set: CC-PVTZ
  Basis Set:
  @DF-RHF Final Energy:  -250.82203871111994
    Total Energy =                       -250.8220387111197169
  Basis Set: CC-PVTZ
  Basis Set:
  Basis Set: CC-PVTZ
  Basis Set:
  @DF-RHF Final Energy:  -251.01966317311712
    Total Energy =                       -251.0196631731171237
  Basis Set: CC-PVTZ
  Basis Set:
  Basis Set: CC-PVTZ
  Basis Set:
  @DF-RHF Final Energy:  -251.30100028494101
    Total Energy =                       -251.3010002849411535
  Basis Set: CC-PVTZ
  Basis Set:
  @DF-RHF Final Energy:  -251.42317639969602
    Total Energy =                       -251.4231763996960467
  @DF-RHF Final Energy:  -251.43703809400671
    Total Energy =                       -251.4370380940066525
  Basis Set: CC-PVTZ
  Basis Set:
  @DF-RHF Final Energy:  -251.43804355716765
    Total Energy =                       -251.4380435571677026
  Basis Set: CC-PVTZ
  Basis Set:
  Basis Set: CC-PVTZ
  Basis Set:
  @DF-RHF Final Energy:  -251.43812032762676
    Total Energy =                       -251.4381203276267343
  Basis Set: CC-PVTZ
  Basis Set:
  Basis Set: CC-PVTZ
  Basis Set:
  @DF-RHF Final Energy:  -251.43812289639789
    Total Energy =                       -251.4381228963977719
  Basis Set: CC-PVTZ
  Basis Set:
  Charge       = 0
  Multiplicity = 1
  Basis Set: CC-PVTZ
  Basis Set:

    Orbital Energies (a.u.)
    -----------------------

    Doubly Occupied:

       1A    -15.526158     2A    -11.237484     3A    -11.212564
       4A    -11.210917     5A    -11.206981     6A    -11.204112
       7A     -1.177906     8A     -1.069013     9A     -0.995459
      10A     -0.904798    11A     -0.827052    12A     -0.770096
      13A     -0.665602    14A     -0.639704    15A     -0.613475
      16A     -0.599313    17A     -0.572871    18A     -0.538285
      19A     -0.526058    20A     -0.506132    21A     -0.490174
      22A     -0.457632    23A     -0.452222    24A     -0.445164
      25A     -0.383631

  @DF-RHF Final Energy:  -251.43812385392340

   => Energetics <=

    Nuclear Repulsion Energy =            249.6648631074411355
    One-Electron Energy =                -833.7403672381935849
    Two-Electron Energy =                 332.6373802768291625
    DFT Exchange-Correlation Energy =       0.0000000000000000
    Empirical Dispersion Energy =           0.0000000000000000
    PCM Polarization Energy =               0.0000000000000000
    EFP Energy =                            0.0000000000000000
    Total Energy =                       -251.4381238539233436
    Molecular point group: c1
  Basis Set: CC-PVTZ
  Basis Set:

  -Total Gradient:
     Atom            X                  Y                   Z
    ------   -----------------  -----------------  -----------------
       1        0.000003057362     0.000013473589     0.000014567039
       2        0.000053001814    -0.000046934891     0.000009721334
       3        0.000027654951     0.000025993580     0.000020472318
       4        0.000003284255    -0.000016175848    -0.000010058608
       5       -0.000090478968    -0.000022606716    -0.000044545759
       6       -0.000018107042     0.000049336503     0.000019700093
       7       -0.000032061509     0.000020454184     0.000013151271
       8        0.001691833087    -0.000506002792    -0.001569045767
       9        0.000084399961    -0.000002234642    -0.000002666687
      10       -0.000023228954    -0.000009800899    -0.000038267080
      11        0.000404312892    -0.002064657795     0.001115200698
      12       -0.001490590266     0.000723140431     0.001157252160
      13       -0.000020918337     0.000005939833    -0.000003271582
      14       -0.000009023903     0.000030438357     0.000014011217
      15       -0.000617621980     0.001808453901    -0.000700320841
      16        0.000011732349    -0.000005441639     0.000030739402
      17       -0.000000709583     0.000010514531     0.000015069055
      18        0.000009647841     0.000023268925     0.000003832743
      19        0.000013816032    -0.000037158611    -0.000045541007

  **** Optimization is complete! (in 10 steps) ****
    Final optimized geometry and variables:
    Molecular point group: c1

    Geometry (in Angstrom), charge = 0, multiplicity = 1:

    H            1.476103191815     2.553382144195     2.293111689950
    N            0.759611551439     2.181055182312     1.706833129809
    C            1.185866323252     0.937778071376     1.083777179603
    H            0.554744284436     2.873431828479     1.016916551053
    C            0.060114039545     0.331356780853     0.257873160918
    H            1.461523720967     0.248737874235     1.875048200200
    H            2.068089552042     1.060001921496     0.454006812457
    C            0.467259654308    -0.995938008273    -0.382860453838
    H           -0.799670565606     0.199289672953     0.903993107385
    H           -0.233214170527     1.044525781913    -0.507335571380
    C           -0.600739410567    -1.720504479689    -1.245559071175
    H            0.770869783874    -1.661602746995     0.418909990946
    H            1.353477120444    -0.826834042986    -0.985691873845
    C           -1.906948256784    -0.971666343916    -1.512607336107
    H           -0.162565592847    -1.958611568693    -2.208601474967
    H           -0.844464832102    -2.670048314513    -0.782656108468
    H           -1.739375148833    -0.040836869357    -2.041610919842
    H           -2.559379301254    -1.581297072483    -2.127569959333
    H           -2.441094936338    -0.742174499855    -0.598989831085

  Mulliken Charges: (a.u.)
   Center  Symbol    Alpha    Beta     Spin     Total
       1     H     0.43031  0.43031  0.00000  0.13939
       2     N     3.68855  3.68855  0.00000 -0.37710
       3     C     3.02905  3.02905  0.00000 -0.05809
       4     H     0.43118  0.43118  0.00000  0.13764
       5     C     3.08174  3.08174  0.00000 -0.16349
       6     H     0.45706  0.45706  0.00000  0.08589
       7     H     0.46851  0.46851  0.00000  0.06298
       8     C     3.10520  3.10520  0.00000 -0.21040
       9     H     0.44694  0.44694  0.00000  0.10612
      10     H     0.45872  0.45872  0.00000  0.08256
      11     C     3.08576  3.08576  0.00000 -0.17153
      12     H     0.45183  0.45183  0.00000  0.09634
      13     H     0.45332  0.45332  0.00000  0.09335
      14     C     3.15738  3.15738  0.00000 -0.31477
      15     H     0.45215  0.45215  0.00000  0.09571
      16     H     0.45155  0.45155  0.00000  0.09690
      17     H     0.45401  0.45401  0.00000  0.09198
      18     H     0.44523  0.44523  0.00000  0.10954
      19     H     0.45151  0.45151  0.00000  0.09697

   Total alpha = 25.00000, Total beta = 25.00000, Total charge = -0.00000

*** Psi4 exiting successfully. Buy a developer a beer!
