  ==> Input File <==

--------------------------------------------------------------------------
set {
	reference rhf
	basis 6-31G*
}

set_num_threads( 1 )
memory 2 gb

molecule MOL {
0 1

O	 -0.817692	 -1.118731	 0.900000
C	 0.368548	 -1.144114	 0.827552
C	 1.245376	 -0.013843	 0.345420
O	 1.094188	 -2.200923	 1.171399
C	 0.455112	 1.231400	 -0.050772
H	 1.961117	 0.192479	 1.134303
H	 1.827051	 -0.390849	 -0.491968
C	 -0.998893	 1.219485	 0.433193
H	 0.482531	 1.345121	 -1.130325
H	 0.957290	 2.103070	 0.354729
C	 -1.883438	 0.145884	 -0.207175
H	 -1.431207	 2.195402	 0.224832
H	 -1.019646	 1.105716	 1.516076
C	 -3.347647	 0.245583	 0.225435
H	 -1.822183	 0.231698	 -1.291012
H	 -1.510341	 -0.844814	 0.042401
C	 -4.239992	 -0.825570	 -0.404234
H	 -3.732888	 1.230466	 -0.033079
H	 -3.408585	 0.170602	 1.310038
C	 -5.701275	 -0.716658	 0.029921
H	 -4.179496	 -0.752714	 -1.488058
H	 -3.859041	 -1.810759	 -0.143352
H	 -6.308102	 -1.488908	 -0.432678
H	 -6.122175	 0.245478	 -0.248167
H	 -5.799072	 -0.820114	 1.106957
C	 0.392016	 -3.336989	 1.641711
H	 -0.171069	 -3.094358	 2.531413
H	 1.144355	 -4.077163	 1.865624
H	 -0.283459	 -3.707037	 0.883863

	symmetry c1
}
set optking {
	frozen_dihedral = ("
		21 17 14 11,
		17 14 11 15,
		15 11 8 5,
		11 8 5 9,
		2 4 26 27,
		1 2 4 26,
		6 3 2 1
	")
}

ee = energy('scf')
oeprop('DIPOLE', 'QUADRUPOLE', 'MULLIKEN_CHARGES')
f=open( 'psi4out.xyz', 'w' )
f.write( "29  " )
f.write( str(ee) + "\n" )
f.write( MOL.save_string_xyz() )
f.close()
--------------------------------------------------------------------------

    Molecular point group: c1

    Geometry (in Angstrom), charge = 0, multiplicity = 1:

       Center              X                  Y                   Z               Mass
    ------------   -----------------  -----------------  -----------------  -----------------
           O          0.406833712710    -0.488454604702     0.438478221541    15.994914619560
           C          1.593073712710    -0.513837604702     0.366030221541    12.000000000000
           C          2.469901712710     0.616433395298    -0.116101778459    12.000000000000
           O          2.318713712710    -1.570646604702     0.709877221541    15.994914619560
           C          1.679637712710     1.861676395298    -0.512293778459    12.000000000000
           H          3.185642712710     0.822755395298     0.672781221541     1.007825032070
           H          3.051576712710     0.239427395298    -0.953489778459     1.007825032070
           C          0.225632712710     1.849761395298    -0.028328778459    12.000000000000
           H          1.707056712710     1.975397395298    -1.591846778459     1.007825032070
           H          2.181815712710     2.733346395298    -0.106792778459     1.007825032070
           C         -0.658912287290     0.776160395298    -0.668696778459    12.000000000000
           H         -0.206681287290     2.825678395298    -0.236689778459     1.007825032070
           H          0.204879712710     1.735992395298     1.054554221541     1.007825032070
           C         -2.123121287290     0.875859395298    -0.236086778459    12.000000000000
           H         -0.597657287290     0.861974395298    -1.752533778459     1.007825032070
           H         -0.285815287290    -0.214537604702    -0.419120778459     1.007825032070
           C         -3.015466287290    -0.195293604702    -0.865755778459    12.000000000000
           H         -2.508362287290     1.860742395298    -0.494600778459     1.007825032070
           H         -2.184059287290     0.800878395298     0.848516221541     1.007825032070
           C         -4.476749287290    -0.086381604702    -0.431600778459    12.000000000000
           H         -2.954970287290    -0.122437604702    -1.949579778459     1.007825032070
           H         -2.634515287290    -1.180482604702    -0.604873778459     1.007825032070
           H         -5.083576287290    -0.858631604702    -0.894199778459     1.007825032070
           H         -4.897649287290     0.875754395298    -0.709688778459     1.007825032070
           H         -4.574546287290    -0.189837604702     0.645435221541     1.007825032070
           C          1.616541712710    -2.706712604702     1.180189221541    12.000000000000
           H          1.053456712710    -2.464081604702     2.069891221541     1.007825032070
           H          2.368880712710    -3.446886604702     1.404102221541     1.007825032070
           H          0.941066712710    -3.076760604702     0.422341221541     1.007825032070

  Charge       = 0
  Multiplicity = 1
  Basis Set: 6-31G*
  Basis Set:

    Orbital Energies (a.u.)
    -----------------------

    Doubly Occupied:

       1A    -20.618078     2A    -20.559371     3A    -11.391580
       4A    -11.291770     5A    -11.244787     6A    -11.219724
       7A    -11.194413     8A    -11.193209     9A    -11.191993
      10A    -11.182191    11A    -11.133254    12A     -1.500382
      13A     -1.407267    14A     -1.088529    15A     -1.055839
      16A     -1.017307    17A     -0.972369    18A     -0.918240
      19A     -0.870238    20A     -0.840305    21A     -0.779921
      22A     -0.758280    23A     -0.725370    24A     -0.702317
      25A     -0.692943    26A     -0.640704    27A     -0.629580
      28A     -0.605508    29A     -0.591203    30A     -0.570427
      31A     -0.559539    32A     -0.541759    33A     -0.537523
      34A     -0.534406    35A     -0.513678    36A     -0.497111
      37A     -0.491420    38A     -0.488250    39A     -0.458875
      40A     -0.456408    41A     -0.447265    42A     -0.427685
      43A     -0.408077    44A     -0.304607

  @DF-RHF Final Energy:  -500.85835247943783

   => Energetics <=

    Nuclear Repulsion Energy =            669.8430149063628960
    One-Electron Energy =               -2010.8954021192021173
    Two-Electron Energy =                 840.1940347334023045
    DFT Exchange-Correlation Energy =       0.0000000000000000
    Empirical Dispersion Energy =           0.0000000000000000
    PCM Polarization Energy =               0.0000000000000000
    EFP Energy =                            0.0000000000000000
    Total Energy =                       -500.8583524794369168

  Mulliken Charges: (a.u.)
   Center  Symbol    Alpha    Beta     Spin     Total
       1     O     4.28421  4.28421  0.00000 -0.56843
       2     C     2.60685  2.60685  0.00000  0.78630
       3     C     3.20995  3.20995  0.00000 -0.41989
       4     O     4.30325  4.30325  0.00000 -0.60651
       5     C     3.15923  3.15923  0.00000 -0.31846
       6     H     0.39349  0.39349  0.00000  0.21303
       7     H     0.39323  0.39323  0.00000  0.21355
       8     C     3.16054  3.16054  0.00000 -0.32109
       9     H     0.41423  0.41423  0.00000  0.17154
      10     H     0.41585  0.41585  0.00000  0.16830
      11     C     3.18290  3.18290  0.00000 -0.36580
      12     H     0.42261  0.42261  0.00000  0.15477
      13     H     0.42615  0.42615  0.00000  0.14770
      14     C     3.13981  3.13981  0.00000 -0.27963
      15     H     0.45336  0.45336  0.00000  0.09327
      16     H     0.33833  0.33833  0.00000  0.32333
      17     C     3.14782  3.14782  0.00000 -0.29563
      18     H     0.43315  0.43315  0.00000  0.13370
      19     H     0.43370  0.43370  0.00000  0.13260
      20     C     3.23764  3.23764  0.00000 -0.47528
      21     H     0.42612  0.42612  0.00000  0.14776
      22     H     0.42801  0.42801  0.00000  0.14399
      23     H     0.42451  0.42451  0.00000  0.15098
      24     H     0.42370  0.42370  0.00000  0.15261
      25     H     0.42477  0.42477  0.00000  0.15047
      26     C     3.09565  3.09565  0.00000 -0.19129
      27     H     0.40771  0.40771  0.00000  0.18457
      28     H     0.40470  0.40470  0.00000  0.19061
      29     H     0.40854  0.40854  0.00000  0.18291

   Total alpha = 44.00000, Total beta = 44.00000, Total charge = -0.00000
