  ==> Input File <==

--------------------------------------------------------------------------
set {
	reference rhf
	basis 6-31G*
}

set_num_threads( 4 )
memory 2 gb

molecule MOL {
0 1

H	 -5.079213	 -1.222041	 3.688881
O	 -4.741771	 -1.348332	 4.563670
C	 -3.837093	 -2.423296	 4.571659
C	 -2.506566	 -2.094188	 3.903741
H	 -3.673262	 -2.662330	 5.614585
H	 -4.283740	 -3.300710	 4.105365
C	 -2.620097	 -1.785948	 2.408760
H	 -2.062750	 -1.246050	 4.418575
H	 -1.836110	 -2.939659	 4.048775
C	 -1.261854	 -1.513000	 1.756462
H	 -3.268770	 -0.925548	 2.269827
H	 -3.097904	 -2.624227	 1.901484
C	 -1.309753	 -1.282496	 0.241564
H	 -0.800467	 -0.652164	 2.237014
H	 -0.606272	 -2.358165	 1.955482
C	 -2.037799	 -0.007733	 -0.193645
H	 -0.288077	 -1.242345	 -0.130435
H	 -1.771951	 -2.143703	 -0.238574
C	 -3.489788	 0.042957	 0.286558
H	 -2.017067	 0.064384	 -1.280144
H	 -1.513726	 0.868678	 0.179924
C	 -4.216917	 1.317354	 -0.141063
H	 -4.025645	 -0.823308	 -0.095450
H	 -3.513059	 -0.038752	 1.371301
H	 -4.239342	 1.411634	 -1.223113
H	 -5.243387	 1.322503	 0.212445
H	 -3.726170	 2.201406	 0.256408

	symmetry c1
}
set optking {
	frozen_dihedral = ("
		10 13 16 20
	")
}

ee = optimize('scf')
oeprop('DIPOLE', 'QUADRUPOLE', 'MULLIKEN_CHARGES')
f=open( 'psi4out.xyz', 'w' )
f.write( "27  " )
f.write( str(ee) + "\n" )
f.write( MOL.save_string_xyz() )
f.close()
--------------------------------------------------------------------------

    Molecular point group: c1
  Charge       = 0
  Multiplicity = 1
  Basis Set: 6-31G*
  Basis Set:
  @DF-RHF Final Energy:  -388.25258800766335
    Total Energy =                       -388.2525880076635758
    Molecular point group: c1
  Basis Set: 6-31G*
  Basis Set:
  Basis Set: 6-31G*
  Basis Set:
  @DF-RHF Final Energy:  -388.27042887924040
    Total Energy =                       -388.2704288792399439
  Basis Set: 6-31G*
  Basis Set:
  Basis Set: 6-31G*
  Basis Set:
  @DF-RHF Final Energy:  -388.27476970941365
    Total Energy =                       -388.2747697094142723
  Basis Set: 6-31G*
  Basis Set:
  Basis Set: 6-31G*
  Basis Set:
  @DF-RHF Final Energy:  -388.27617338137185
    Total Energy =                       -388.2761733813721321
  Basis Set: 6-31G*
  Basis Set:
  @DF-RHF Final Energy:  -388.27704535114935
    Total Energy =                       -388.2770453511495816
  @DF-RHF Final Energy:  -388.27714804089686
    Total Energy =                       -388.2771480408971456
  Basis Set: 6-31G*
  Basis Set:
  @DF-RHF Final Energy:  -388.27717923727636
    Total Energy =                       -388.2771792372772097
  Basis Set: 6-31G*
  Basis Set:
  Basis Set: 6-31G*
  Basis Set:
  @DF-RHF Final Energy:  -388.27719101093220
    Total Energy =                       -388.2771910109321425
  Basis Set: 6-31G*
  Basis Set:
  Basis Set: 6-31G*
  Basis Set:
  @DF-RHF Final Energy:  -388.27719227900502
    Total Energy =                       -388.2771922790047938
  Basis Set: 6-31G*
  Basis Set:
  Charge       = 0
  Multiplicity = 1
  Basis Set: 6-31G*
  Basis Set:

    Orbital Energies (a.u.)
    -----------------------

    Doubly Occupied:

       1A    -20.552189     2A    -11.266964     3A    -11.219293
       4A    -11.217191     5A    -11.216070     6A    -11.215918
       7A    -11.214947     8A    -11.214753     9A    -11.209148
      10A     -1.358944    11A     -1.094146    12A     -1.060131
      13A     -1.009872    14A     -0.950781    15A     -0.885412
      16A     -0.830933    17A     -0.794668    18A     -0.775246
      19A     -0.693889    20A     -0.652966    21A     -0.628576
      22A     -0.619069    23A     -0.600813    24A     -0.587676
      25A     -0.575428    26A     -0.562043    27A     -0.539951
      28A     -0.517208    29A     -0.504077    30A     -0.500542
      31A     -0.489170    32A     -0.478163    33A     -0.469257
      34A     -0.458289    35A     -0.444301    36A     -0.442623
      37A     -0.422355

  @DF-RHF Final Energy:  -388.27719271176682

   => Energetics <=

    Nuclear Repulsion Energy =            469.7409302697905105
    One-Electron Energy =               -1457.4902411489988481
    Two-Electron Energy =                 599.4721181674408399
    DFT Exchange-Correlation Energy =       0.0000000000000000
    Empirical Dispersion Energy =           0.0000000000000000
    PCM Polarization Energy =               0.0000000000000000
    EFP Energy =                            0.0000000000000000
    Total Energy =                       -388.2771927117674977
    Molecular point group: c1
  Basis Set: 6-31G*
  Basis Set:

  -Total Gradient:
     Atom            X                  Y                   Z
    ------   -----------------  -----------------  -----------------
       1        0.000004692312    -0.000001460742    -0.000003092709
       2        0.000016660670     0.000003007045     0.000004817669
       3       -0.000005403699    -0.000011316655     0.000000947924
       4       -0.000011583617     0.000000419493    -0.000027011423
       5        0.000000982002    -0.000003361221     0.000004296588
       6        0.000001834503     0.000005262435    -0.000006508635
       7       -0.000024913693     0.000050167850     0.000026156802
       8       -0.000005430195    -0.000000822171    -0.000010443351
       9        0.000002583630     0.000000461403     0.000009810840
      10       -0.001077627015    -0.000375519299     0.000081515556
      11        0.000019321324    -0.000009208580    -0.000036114304
      12       -0.000011845987     0.000006704597    -0.000003024068
      13        0.001231833380     0.000387888097    -0.000095186895
      14        0.000001201609     0.000018622256    -0.000011645861
      15       -0.000002115845     0.000002421864    -0.000014671616
      16        0.001276745210     0.000459408377    -0.000083777171
      17        0.000004895753     0.000006739581     0.000001551835
      18        0.000004927352    -0.000009046096     0.000015687133
      19       -0.000002763167     0.000022598856    -0.000015592416
      20       -0.001447203024    -0.000508198760     0.000106036941
      21       -0.000018567717    -0.000002833794     0.000012521134
      22       -0.000004118583    -0.000009133334    -0.000014022736
      23        0.000026644805     0.000014792987    -0.000000292794
      24        0.000014486577    -0.000033881049     0.000059510919
      25        0.000000333658     0.000006331986    -0.000012344241
      26        0.000006210323    -0.000008042443     0.000005538004
      27       -0.000001780562    -0.000012002680     0.000005336868

  **** Optimization is complete! (in 10 steps) ****
    Final optimized geometry and variables:
    Molecular point group: c1

    Geometry (in Angstrom), charge = 0, multiplicity = 1:

    H           -2.233634430772    -1.118367842181     1.793783395787
    O           -1.901130224735    -0.985255830613     2.669507236288
    C           -0.676661636436    -1.658040678995     2.817977763943
    C            0.471093604876    -0.987186663419     2.071458860593
    H           -0.469918056551    -1.661399848336     3.880462896054
    H           -0.771952041954    -2.696803992092     2.503909949877
    C            0.297021588322    -0.969260740709     0.551201749942
    H            0.573638987824     0.030433119384     2.439412500966
    H            1.392176732034    -1.509973979521     2.324307673844
    C            1.501965853313    -0.363797512659    -0.176604747173
    H           -0.602206854752    -0.417156703469     0.296865576430
    H            0.147601571261    -1.987443249197     0.192569848957
    C            1.365110651720    -0.295021247554    -1.710369098304
    H            1.703126918035     0.630283284808     0.218320487344
    H            2.374573494346    -0.962722452305     0.072527527163
    C            0.857962622206     1.036547902565    -2.281667452741
    H            2.335802321464    -0.488924124417    -2.158561173650
    H            0.716704580027    -1.101260532009    -2.049412384538
    C           -0.514625978708     1.502358888185    -1.788910079421
    H            0.811855565758     0.940385719248    -3.364825843116
    H            1.590559556120     1.814251925682    -2.072590296642
    C           -0.980845315617     2.779959921870    -2.487296420315
    H           -1.246471281229     0.714437746124    -1.955942320131
    H           -0.487375386075     1.676785859066    -0.717087170806
    H           -1.063823305514     2.633077267349    -3.560476924265
    H           -1.952112089479     3.096996942151    -2.120331103617
    H           -0.282234055851     3.594823631956    -2.319342757935

  Mulliken Charges: (a.u.)
   Center  Symbol    Alpha    Beta     Spin     Total
       1     H     0.27974  0.27974  0.00000  0.44051
       2     O     4.37106  4.37106  0.00000 -0.74212
       3     C     2.99737  2.99737  0.00000  0.00526
       4     C     3.16174  3.16174  0.00000 -0.32347
       5     H     0.41448  0.41448  0.00000  0.17104
       6     H     0.43198  0.43198  0.00000  0.13604
       7     C     3.16400  3.16400  0.00000 -0.32800
       8     H     0.41532  0.41532  0.00000  0.16936
       9     H     0.42432  0.42432  0.00000  0.15135
      10     C     3.15572  3.15572  0.00000 -0.31144
      11     H     0.42130  0.42130  0.00000  0.15741
      12     H     0.42501  0.42501  0.00000  0.14998
      13     C     3.15599  3.15599  0.00000 -0.31198
      14     H     0.42038  0.42038  0.00000  0.15923
      15     H     0.42063  0.42063  0.00000  0.15873
      16     C     3.15058  3.15058  0.00000 -0.30117
      17     H     0.41910  0.41910  0.00000  0.16180
      18     H     0.42357  0.42357  0.00000  0.15286
      19     C     3.15478  3.15478  0.00000 -0.30957
      20     H     0.42302  0.42302  0.00000  0.15396
      21     H     0.42375  0.42375  0.00000  0.15250
      22     C     3.23888  3.23888  0.00000 -0.47777
      23     H     0.42532  0.42532  0.00000  0.14936
      24     H     0.41979  0.41979  0.00000  0.16043
      25     H     0.42189  0.42189  0.00000  0.15622
      26     H     0.41885  0.41885  0.00000  0.16230
      27     H     0.42141  0.42141  0.00000  0.15717

   Total alpha = 37.00000, Total beta = 37.00000, Total charge =  0.00000
