                              Psi4 1.0.54 Driver

  ==> Input File <==

--------------------------------------------------------------------------
set {
	reference rhf
	basis cc-pvtz
}

set_num_threads( 4 )
memory 2 gb

molecule MOL {
0 1

H	 -2.784828	 0.005692	 -1.538721
O	 -3.458596	 0.315260	 -0.960865
C	 -3.176635	 -0.080824	 0.355601
C	 -1.763371	 0.265266	 0.799691
H	 -3.321825	 -1.153438	 0.379502
H	 -3.895468	 0.357385	 1.043382
C	 -0.673390	 -0.426948	 -0.013392
H	 -1.631049	 1.344913	 0.747560
H	 -1.664587	 -0.001624	 1.849167
C	 0.737842	 -0.043159	 0.423759
H	 -0.806103	 -0.190518	 -1.063345
H	 -0.797221	 -1.503753	 0.074146
C	 1.824000	 -0.743224	 -0.390623
H	 0.850588	 1.033777	 0.343840
H	 0.868587	 -0.286314	 1.476203
C	 3.255957	 -0.453067	 0.062319
H	 1.718250	 -0.470599	 -1.438164
H	 1.658105	 -1.815850	 -0.339904
C	 3.707029	 0.992337	 -0.133857
H	 3.928201	 -1.104096	 -0.488158
H	 3.362667	 -0.724561	 1.109374
H	 3.605811	 1.294044	 -1.171549
H	 4.748333	 1.111029	 0.143343
H	 3.129882	 1.683078	 0.468956

	symmetry c1
}
set optking {
	frozen_dihedral = ("
		1 2 3 5
	")
}

ee,wfn = optimize('scf', return_wfn=True)
oeprop( wfn, 'DIPOLE', 'QUADRUPOLE', 'MULLIKEN_CHARGES')
f=open( 'psi4out.xyz', 'w' )
f.write( "24  " )
f.write( str(ee) + "\n" )
f.write( MOL.save_string_xyz() )
f.close()
--------------------------------------------------------------------------

    Molecular point group: c1
  Charge       = 0
  Multiplicity = 1
  Basis Set: CC-PVTZ
  Basis Set:
  @DF-RHF Final Energy:  -349.37776795147698
    Total Energy =                       -349.3777679514770398
    Molecular point group: c1
  Basis Set: CC-PVTZ
  Basis Set:
  Basis Set: CC-PVTZ
  Basis Set:
  @DF-RHF Final Energy:  -348.39640764420579
    Total Energy =                       -348.3964076442056239
  Basis Set: CC-PVTZ
  Basis Set:
  Basis Set: CC-PVTZ
  Basis Set:
  @DF-RHF Final Energy:  -348.62717333983534
    Total Energy =                       -348.6271733398351671
  Basis Set: CC-PVTZ
  Basis Set:
  Basis Set: CC-PVTZ
  Basis Set:
  @DF-RHF Final Energy:  -349.01378071396249
    Total Energy =                       -349.0137807139628876
  Basis Set: CC-PVTZ
  Basis Set:
  @DF-RHF Final Energy:  -349.27939657741132
    Total Energy =                       -349.2793965774111484
  @DF-RHF Final Energy:  -349.35985851747301
    Total Energy =                       -349.3598585174734126
  @DF-RHF Final Energy:  -349.37656519639859
    Total Energy =                       -349.3765651963980758
  @DF-RHF Final Energy:  -349.37936307402134
    Total Energy =                       -349.3793630740211711
  Basis Set: CC-PVTZ
  Basis Set:
  @DF-RHF Final Energy:  -349.37972407659385
    Total Energy =                       -349.3797240765942433
  Basis Set: CC-PVTZ
  Basis Set:
  Basis Set: CC-PVTZ
  Basis Set:
  @DF-RHF Final Energy:  -349.37974692314083
    Total Energy =                       -349.3797469231415107
  Basis Set: CC-PVTZ
  Basis Set:
  Basis Set: CC-PVTZ
  Basis Set:
  @DF-RHF Final Energy:  -349.37974832355650
    Total Energy =                       -349.3797483235563277
  Basis Set: CC-PVTZ
  Basis Set:
  Charge       = 0
  Multiplicity = 1
  Basis Set: CC-PVTZ
  Basis Set:

    Orbital Energies (a.u.)
    -----------------------

    Doubly Occupied:

       1A    -20.544344     2A    -11.264465     3A    -11.220432
       4A    -11.215991     5A    -11.215944     6A    -11.215755
       7A    -11.214620     8A    -11.208011     9A     -1.362635
      10A     -1.095349    11A     -1.052725    12A     -0.989759
      13A     -0.921150    14A     -0.855635    15A     -0.800334
      16A     -0.781846    17A     -0.689893    18A     -0.655617
      19A     -0.629514    20A     -0.613472    21A     -0.606538
      22A     -0.590597    23A     -0.562501    24A     -0.538144
      25A     -0.528813    26A     -0.513057    27A     -0.493926
      28A     -0.486021    29A     -0.477965    30A     -0.463951
      31A     -0.458648    32A     -0.443037    33A     -0.428718

  @DF-RHF Final Energy:  -349.37974912336506

   => Energetics <=

    Nuclear Repulsion Energy =            384.8462302963788488
    One-Electron Energy =               -1236.1731429352255418
    Two-Electron Energy =                 501.9471635154815203
    DFT Exchange-Correlation Energy =       0.0000000000000000
    Empirical Dispersion Energy =           0.0000000000000000
    PCM Polarization Energy =               0.0000000000000000
    EFP Energy =                            0.0000000000000000
    Total Energy =                       -349.3797491233651726
    Molecular point group: c1
  Basis Set: CC-PVTZ
  Basis Set:

  -Total Gradient:
     Atom            X                  Y                   Z
    ------   -----------------  -----------------  -----------------
       1        0.001089989779     0.000429472573     0.000704201589
       2       -0.001618265073    -0.000426020028    -0.000697368979
       3        0.001497390009    -0.000285968146    -0.000649748500
       4        0.000020687914     0.000042218932     0.000000663263
       5       -0.000995509917     0.000250974744     0.000606534167
       6        0.000002675846     0.000007423628     0.000011836203
       7       -0.000017285720    -0.000009979705    -0.000003073778
       8        0.000030061923     0.000004066054    -0.000001515975
       9       -0.000017614710    -0.000022039975     0.000021932427
      10        0.000007404799     0.000002745169     0.000006838558
      11        0.000013217664     0.000028571910    -0.000008249014
      12       -0.000018552535    -0.000020397571    -0.000004633856
      13       -0.000030938518    -0.000026684156     0.000012940620
      14        0.000044211958     0.000010574577     0.000015997144
      15       -0.000014302726    -0.000024230137     0.000016004765
      16        0.000011576736     0.000046099678    -0.000048310859
      17        0.000023304716     0.000007437098    -0.000027873390
      18       -0.000017602147    -0.000009358632     0.000011339183
      19        0.000013718510     0.000013304140     0.000019221415
      20        0.000007361886    -0.000012473507    -0.000024447552
      21       -0.000015215534    -0.000012464996    -0.000001302559
      22       -0.000009745364     0.000000378040    -0.000007188033
      23        0.000012299786    -0.000010780476     0.000016431762
      24       -0.000018869290     0.000017130784     0.000029771402

  **** Optimization is complete! (in 12 steps) ****
    Final optimized geometry and variables:
    Molecular point group: c1

    Geometry (in Angstrom), charge = 0, multiplicity = 1:

    H           -2.581045471256     1.973437264812    -0.626909822518
    O           -3.092399343400     1.976213945289     0.160749195335
    C           -3.010571934847     0.729660170112     0.798239602828
    C           -1.587291234277     0.272656836118     1.080044717706
    H           -3.542229119443    -0.025181994392     0.221440959082
    H           -3.542904916895     0.845431545303     1.732811879535
    C           -0.759446006342    -0.024895601910    -0.168584651469
    H           -1.090707044741     1.031080458033     1.677951594917
    H           -1.642206124367    -0.624441522396     1.691527846465
    C            0.643205232446    -0.536915828430     0.150656992474
    H           -0.667560131693     0.872062697708    -0.777123406458
    H           -1.280486313371    -0.759068832399    -0.778971428914
    C            1.473487942567    -0.824112041879    -1.098748547547
    H            1.149112110995     0.192977755697     0.774406311981
    H            0.564381140339    -1.444763673752     0.744335136810
    C            2.856631317355    -1.418731143137    -0.827903054409
    H            1.585877425787     0.092243432371    -1.674083802024
    H            0.921035288110    -1.512970137985    -1.732093404638
    C            3.822095631541    -0.484295292251    -0.102690345872
    H            3.297923310817    -1.705807582869    -1.777387943518
    H            2.745932337880    -2.336646329054    -0.256541593954
    H            3.947212336928     0.445719417111    -0.648085499775
    H            4.799545965346    -0.942660554393    -0.005065037091
    H            3.477742825587    -0.238815139477     0.894660681213

  Mulliken Charges: (a.u.)
   Center  Symbol    Alpha    Beta     Spin     Total
       1     H     0.39192  0.39192  0.00000  0.21617
       2     O     4.20600  4.20600  0.00000 -0.41200
       3     C     2.97239  2.97239  0.00000  0.05523
       4     C     3.09621  3.09621  0.00000 -0.19241
       5     H     0.47233  0.47233  0.00000  0.05534
       6     H     0.45095  0.45095  0.00000  0.09810
       7     C     3.09761  3.09761  0.00000 -0.19521
       8     H     0.44941  0.44941  0.00000  0.10118
       9     H     0.45545  0.45545  0.00000  0.08909
      10     C     3.09228  3.09228  0.00000 -0.18456
      11     H     0.46116  0.46116  0.00000  0.07767
      12     H     0.45120  0.45120  0.00000  0.09759
      13     C     3.09490  3.09490  0.00000 -0.18981
      14     H     0.45055  0.45055  0.00000  0.09890
      15     H     0.45350  0.45350  0.00000  0.09301
      16     C     3.09057  3.09057  0.00000 -0.18114
      17     H     0.45422  0.45422  0.00000  0.09156
      18     H     0.44965  0.44965  0.00000  0.10070
      19     C     3.15249  3.15249  0.00000 -0.30499
      20     H     0.44822  0.44822  0.00000  0.10355
      21     H     0.45456  0.45456  0.00000  0.09088
      22     H     0.45474  0.45474  0.00000  0.09052
      23     H     0.44611  0.44611  0.00000  0.10778
      24     H     0.45358  0.45358  0.00000  0.09283

   Total alpha = 33.00000, Total beta = 33.00000, Total charge = -0.00000

*** Psi4 exiting successfully. Buy a developer a beer!
