                              Psi4 1.0.54 Driver

  ==> Input File <==

--------------------------------------------------------------------------
set {
	reference rhf
	basis cc-pvtz
}

set_num_threads( 4 )
memory 2 gb

molecule MOL {
0 1

H	 0.043634	 3.792205	 -1.514664
O	 -0.325299	 3.096910	 -1.002309
C	 0.652546	 2.126889	 -0.728637
C	 0.027642	 1.012027	 0.090274
H	 1.472160	 2.564770	 -0.164491
H	 1.067816	 1.735714	 -1.653297
C	 -1.138737	 0.285728	 -0.581921
H	 -0.315318	 1.437149	 1.027907
H	 0.810808	 0.298997	 0.336147
C	 -1.933983	 -0.631436	 0.343653
H	 -0.763151	 -0.285569	 -1.422081
H	 -1.808359	 1.035291	 -0.992333
H	 -2.789188	 -1.049673	 -0.174718
H	 -1.335629	 -1.461368	 0.700418
H	 -2.305435	 -0.092167	 1.209725

	symmetry c1
}
set optking {
	frozen_dihedral = ("
		8 4 7 11
	")
}

ee,wfn = optimize('scf', return_wfn=True)
oeprop( wfn, 'DIPOLE', 'QUADRUPOLE', 'MULLIKEN_CHARGES')
f=open( 'psi4out.xyz', 'w' )
f.write( "15  " )
f.write( str(ee) + "\n" )
f.write( MOL.save_string_xyz() )
f.close()
--------------------------------------------------------------------------

    Molecular point group: c1
  Charge       = 0
  Multiplicity = 1
  Basis Set: CC-PVTZ
  Basis Set:
  @DF-RHF Final Energy:  -232.23815032294883
    Total Energy =                       -232.2381503229489113
    Molecular point group: c1
  Basis Set: CC-PVTZ
  Basis Set:
  Basis Set: CC-PVTZ
  Basis Set:
  @DF-RHF Final Energy:  -232.23870385019171
    Total Energy =                       -232.2387038501915981
  Basis Set: CC-PVTZ
  Basis Set:
  Basis Set: CC-PVTZ
  Basis Set:
  @DF-RHF Final Energy:  -232.23882671251570
    Total Energy =                       -232.2388267125157881
  Basis Set: CC-PVTZ
  Basis Set:
  Basis Set: CC-PVTZ
  Basis Set:
  @DF-RHF Final Energy:  -232.23883176736956
    Total Energy =                       -232.2388317673695042
  Basis Set: CC-PVTZ
  Basis Set:
  Charge       = 0
  Multiplicity = 1
  Basis Set: CC-PVTZ
  Basis Set:

    Orbital Energies (a.u.)
    -----------------------

    Doubly Occupied:

       1A    -20.546462     2A    -11.266212     3A    -11.210599
       4A    -11.207385     5A    -11.202839     6A     -1.364341
       7A     -1.066259     8A     -0.975048     9A     -0.857026
      10A     -0.787507    11A     -0.708717    12A     -0.637721
      13A     -0.613669    14A     -0.594469    15A     -0.547772
      16A     -0.526525    17A     -0.516591    18A     -0.476634
      19A     -0.465577    20A     -0.458817    21A     -0.432861

  @DF-RHF Final Energy:  -232.23883265810591

   => Energetics <=

    Nuclear Repulsion Energy =            188.8865515987238552
    One-Electron Energy =                -689.3247059382472344
    Two-Electron Energy =                 268.1993216814173593
    DFT Exchange-Correlation Energy =       0.0000000000000000
    Empirical Dispersion Energy =           0.0000000000000000
    PCM Polarization Energy =               0.0000000000000000
    EFP Energy =                            0.0000000000000000
    Total Energy =                       -232.2388326581060483
    Molecular point group: c1
  Basis Set: CC-PVTZ
  Basis Set:

  -Total Gradient:
     Atom            X                  Y                   Z
    ------   -----------------  -----------------  -----------------
       1       -0.000004953857     0.000008124169     0.000009707904
       2       -0.000037445709     0.000017817327     0.000001957260
       3        0.000058557064     0.000008324640    -0.000012287243
       4       -0.000409790594     0.001460983463    -0.000803966339
       5       -0.000031409825    -0.000010691295    -0.000015331077
       6        0.000015513325    -0.000024984011     0.000018127879
       7       -0.000171097513     0.001321207890    -0.001003496491
       8        0.000392834474    -0.001425202351     0.000808529119
       9       -0.000001291287    -0.000008454978     0.000011174997
      10       -0.000010211417    -0.000057872665    -0.000038116903
      11        0.000198499254    -0.001316082564     0.001030892495
      12       -0.000005023344     0.000012435349    -0.000020304249
      13        0.000004034633    -0.000001580686     0.000019722179
      14       -0.000004384103     0.000006665069     0.000005104654
      15        0.000006168898     0.000009310641    -0.000011714185

  **** Optimization is complete! (in 5 steps) ****
    Final optimized geometry and variables:
    Molecular point group: c1

    Geometry (in Angstrom), charge = 0, multiplicity = 1:

    H            0.624147546347     2.565815812109    -1.108878169871
    O            0.248525623340     1.898107794162    -0.565759953101
    C            1.179899107699     0.869687932505    -0.349617814163
    C            0.533284996003    -0.215774185422     0.487970380557
    H            2.054322937141     1.256042746079     0.167610097716
    H            1.514943421483     0.454760955868    -1.298365867643
    C           -0.620179445325    -0.934015057884    -0.208716956069
    H            0.187942862728     0.220128607769     1.420572562413
    H            1.300964526069    -0.938331250288     0.753944528127
    C           -1.377053477041    -1.872446539934     0.726092373358
    H           -0.227143157291    -1.511202810206    -1.041785368810
    H           -1.302901181292    -0.202425597990    -0.622509304932
    H           -2.172131903104    -2.390379349174     0.202073757410
    H           -0.717336322325    -2.623127652861     1.149763727382
    H           -1.824970101117    -1.325611085385     1.548954290984

  Mulliken Charges: (a.u.)
   Center  Symbol    Alpha    Beta     Spin     Total
       1     H     0.39545  0.39545  0.00000  0.20910
       2     O     4.19893  4.19893  0.00000 -0.39786
       3     C     2.97264  2.97264  0.00000  0.05473
       4     C     3.08789  3.08789  0.00000 -0.17579
       5     H     0.46513  0.46513  0.00000  0.06974
       6     H     0.47384  0.47384  0.00000  0.05232
       7     C     3.08428  3.08428  0.00000 -0.16856
       8     H     0.45329  0.45329  0.00000  0.09343
       9     H     0.45457  0.45457  0.00000  0.09085
      10     C     3.14957  3.14957  0.00000 -0.29914
      11     H     0.45869  0.45869  0.00000  0.08263
      12     H     0.44507  0.44507  0.00000  0.10986
      13     H     0.44919  0.44919  0.00000  0.10163
      14     H     0.45736  0.45736  0.00000  0.08528
      15     H     0.45411  0.45411  0.00000  0.09177

   Total alpha = 21.00000, Total beta = 21.00000, Total charge = -0.00000

*** Psi4 exiting successfully. Buy a developer a beer!
