                              Psi4 1.0.54 Driver

  ==> Input File <==

--------------------------------------------------------------------------
set {
	reference rhf
	basis cc-pvtz
}

set_num_threads( 4 )
memory 2 gb

molecule MOL {
0 1

O	 -1.500379	 -2.659204	 -0.176522
C	 -1.010528	 -1.935849	 -0.981652
C	 -0.881910	 -0.448129	 -0.720509
C	 -0.474882	 -2.458213	 -2.293516
C	 0.376695	 -0.140025	 0.100361
H	 -1.760129	 -0.134897	 -0.170302
H	 -0.853701	 0.097385	 -1.657783
C	 1.630207	 -0.772146	 -0.501001
H	 0.486632	 0.935267	 0.162725
H	 0.248225	 -0.501310	 1.117842
C	 2.907848	 -0.545876	 0.309149
H	 1.772784	 -0.391628	 -1.509394
H	 1.468529	 -1.842059	 -0.599744
C	 3.373802	 0.906639	 0.372125
H	 3.699140	 -1.146831	 -0.127906
H	 2.764321	 -0.923458	 1.318191
H	 3.519798	 1.311927	 -0.623875
H	 4.316899	 0.983758	 0.900700
H	 2.661122	 1.540651	 0.885346
H	 -1.093069	 -2.086647	 -3.104554
H	 -0.486659	 -3.537295	 -2.296932
H	 0.532377	 -2.096441	 -2.467123

	symmetry c1
}
set optking {
	frozen_dihedral = ("
		6 3 5 8
	")
}

ee,wfn = optimize('scf', return_wfn=True)
oeprop( wfn, 'DIPOLE', 'QUADRUPOLE', 'MULLIKEN_CHARGES')
f=open( 'psi4out.xyz', 'w' )
f.write( "22  " )
f.write( str(ee) + "\n" )
f.write( MOL.save_string_xyz() )
f.close()
--------------------------------------------------------------------------

    Molecular point group: c1
  Charge       = 0
  Multiplicity = 1
  Basis Set: CC-PVTZ
  Basis Set:
  @DF-RHF Final Energy:  -348.21749495094082
    Total Energy =                       -348.2174949509405906
    Molecular point group: c1
  Basis Set: CC-PVTZ
  Basis Set:
  Basis Set: CC-PVTZ
  Basis Set:
  @DF-RHF Final Energy:  -348.22032343283905
    Total Energy =                       -348.2203234328389954
  Basis Set: CC-PVTZ
  Basis Set:
  Basis Set: CC-PVTZ
  Basis Set:
  @DF-RHF Final Energy:  -348.21986706810975
    Total Energy =                       -348.2198670681099202
  Basis Set: CC-PVTZ
  Basis Set:
  Basis Set: CC-PVTZ
  Basis Set:
  @DF-RHF Final Energy:  -348.22086913942474
    Total Energy =                       -348.2208691394250764
  Basis Set: CC-PVTZ
  Basis Set:
  @DF-RHF Final Energy:  -348.22129955342797
    Total Energy =                       -348.2212995534280253
  @DF-RHF Final Energy:  -348.22146866384151
    Total Energy =                       -348.2214686638413923
  @DF-RHF Final Energy:  -348.22166503909796
    Total Energy =                       -348.2216650390978430
  @DF-RHF Final Energy:  -348.22184113438664
    Total Energy =                       -348.2218411343867501
  @DF-RHF Final Energy:  -348.22162740502142
    Total Energy =                       -348.2216274050210814
  @DF-RHF Final Energy:  -348.22217392203794
    Total Energy =                       -348.2221739220379959
  @DF-RHF Final Energy:  -348.22096870176864
    Total Energy =                       -348.2209687017686974
  @DF-RHF Final Energy:  -348.22218637935993
    Total Energy =                       -348.2221863793600960
  @DF-RHF Final Energy:  -348.22233742853547
    Total Energy =                       -348.2223374285352975
  Basis Set: CC-PVTZ
  Basis Set:
  @DF-RHF Final Energy:  -348.22238449012895
    Total Energy =                       -348.2223844901288885
  Basis Set: CC-PVTZ
  Basis Set:
  Basis Set: CC-PVTZ
  Basis Set:
  @DF-RHF Final Energy:  -348.22239936790965
    Total Energy =                       -348.2223993679092473
  Basis Set: CC-PVTZ
  Basis Set:
  Basis Set: CC-PVTZ
  Basis Set:
  @DF-RHF Final Energy:  -348.22240397325487
    Total Energy =                       -348.2224039732546430
  Basis Set: CC-PVTZ
  Basis Set:
  Charge       = 0
  Multiplicity = 1
  Basis Set: CC-PVTZ
  Basis Set:

    Orbital Energies (a.u.)
    -----------------------

    Doubly Occupied:

       1A    -20.537611     2A    -11.321365     3A    -11.231134
       4A    -11.227283     5A    -11.218110     6A    -11.211514
       7A    -11.208824     8A    -11.205538     9A     -1.398822
      10A     -1.089236    11A     -1.042965    12A     -1.001225
      13A     -0.935011    14A     -0.855911    15A     -0.783495
      16A     -0.726444    17A     -0.666119    18A     -0.634386
      19A     -0.630101    20A     -0.613642    21A     -0.603767
      22A     -0.583011    23A     -0.560697    24A     -0.549337
      25A     -0.525600    26A     -0.520467    27A     -0.498272
      28A     -0.486243    29A     -0.462486    30A     -0.459556
      31A     -0.450907    32A     -0.399638

  @DF-RHF Final Energy:  -348.22240438871808

   => Energetics <=

    Nuclear Repulsion Energy =            380.0185706074252607
    One-Electron Energy =               -1225.2045159346221226
    Two-Electron Energy =                 496.9635409384787863
    DFT Exchange-Correlation Energy =       0.0000000000000000
    Empirical Dispersion Energy =           0.0000000000000000
    PCM Polarization Energy =               0.0000000000000000
    EFP Energy =                            0.0000000000000000
    Total Energy =                       -348.2224043887180187
    Molecular point group: c1
  Basis Set: CC-PVTZ
  Basis Set:

  -Total Gradient:
     Atom            X                  Y                   Z
    ------   -----------------  -----------------  -----------------
       1        0.000025301421     0.000072707458    -0.000020525212
       2       -0.000009445600    -0.000031338373    -0.000004519982
       3        0.000762438504     0.004420822979    -0.002150592445
       4       -0.000015513371    -0.000028261322    -0.000015164784
       5        0.001465433388     0.003246434101    -0.002585208539
       6       -0.001015459019    -0.004625898324     0.002521397453
       7       -0.000000654238    -0.000010420147     0.000004513646
       8       -0.001213934397    -0.003006882090     0.002251340199
       9        0.000012969574     0.000003435539     0.000007774572
      10        0.000000683226    -0.000003024695     0.000008260531
      11        0.000004176301    -0.000013505205     0.000004349631
      12       -0.000004123200    -0.000011405721    -0.000012367239
      13       -0.000008549308    -0.000017269784     0.000000651047
      14       -0.000007299041    -0.000006408003    -0.000009630235
      15        0.000002445348     0.000003676979     0.000002204417
      16        0.000000544444    -0.000000341609    -0.000001994843
      17       -0.000001581989    -0.000000206475     0.000000859746
      18       -0.000002485987    -0.000003529069    -0.000000296377
      19       -0.000002612585     0.000001386342     0.000000597989
      20        0.000008778764    -0.000000231412    -0.000002473851
      21        0.000001824948     0.000007210884    -0.000004424028
      22       -0.000002937184     0.000003047944     0.000005248305

  **** Optimization is complete! (in 17 steps) ****
    Final optimized geometry and variables:
    Molecular point group: c1

    Geometry (in Angstrom), charge = 0, multiplicity = 1:

    O           -1.373967556612    -1.721810574119     0.145424240677
    C           -1.537293275294    -0.922574140294    -0.717920460075
    C           -1.221074922056     0.550207475798    -0.524282484537
    C           -2.128518092829    -1.312079001653    -2.052029886072
    C           -0.120047748364     0.860638471518     0.490707844330
    H           -2.165590407319     0.954301301494    -0.162943243238
    H           -1.019765498708     1.011967655943    -1.484313815150
    C            1.206985658872     0.147130874380     0.229502355780
    H            0.022397857785     1.934908414320     0.500701690194
    H           -0.470894391734     0.582977594453     1.478429301289
    C            2.305760002759     0.484038116283     1.239700661282
    H            1.560754183117     0.391369107349    -0.771638724789
    H            1.039151699178    -0.920660966528     0.249754987260
    C            2.812266414196     1.923368754181     1.184696389761
    H            3.143155720290    -0.184557270184     1.066464340070
    H            1.947438228041     0.264410347794     2.241718795018
    H            3.173384937586     2.171422559532     0.191517024018
    H            3.632665480201     2.068357646454     1.878277494921
    H            2.040274937382     2.638029793112     1.443742261075
    H           -2.944625572809    -0.648855653314    -2.316559579337
    H           -2.476220811042    -2.333170261579    -2.019494102647
    H           -1.370393556523    -1.211629129455    -2.822078517827

  Mulliken Charges: (a.u.)
   Center  Symbol    Alpha    Beta     Spin     Total
       1     O     4.17675  4.17675  0.00000 -0.35349
       2     C     2.85531  2.85531  0.00000  0.28938
       3     C     3.12188  3.12188  0.00000 -0.24375
       4     C     3.15227  3.15227  0.00000 -0.30453
       5     C     3.08903  3.08903  0.00000 -0.17807
       6     H     0.43695  0.43695  0.00000  0.12610
       7     H     0.44180  0.44180  0.00000  0.11640
       8     C     3.10340  3.10340  0.00000 -0.20679
       9     H     0.44483  0.44483  0.00000  0.11033
      10     H     0.44777  0.44777  0.00000  0.10447
      11     C     3.09241  3.09241  0.00000 -0.18482
      12     H     0.45858  0.45858  0.00000  0.08284
      13     H     0.43347  0.43347  0.00000  0.13306
      14     C     3.15199  3.15199  0.00000 -0.30397
      15     H     0.44787  0.44787  0.00000  0.10426
      16     H     0.45227  0.45227  0.00000  0.09546
      17     H     0.45588  0.45588  0.00000  0.08823
      18     H     0.44628  0.44628  0.00000  0.10744
      19     H     0.45507  0.45507  0.00000  0.08986
      20     H     0.45024  0.45024  0.00000  0.09952
      21     H     0.43630  0.43630  0.00000  0.12741
      22     H     0.44966  0.44966  0.00000  0.10068

   Total alpha = 32.00000, Total beta = 32.00000, Total charge = -0.00000

*** Psi4 exiting successfully. Buy a developer a beer!
