  ==> Input File <==

--------------------------------------------------------------------------
set {
	reference rhf
	basis 6-31G*
}

set_num_threads( 1 )
memory 2 gb

molecule MOL {
0 1

H	 -2.698709	 -0.000305	 0.034435
C	 -1.693833	 0.000034	 0.434417
O	 -0.828952	 -0.000968	 -0.659236
H	 -1.574200	 0.882896	 1.055746
H	 -1.574147	 -0.881698	 1.057355
C	 -0.895867	 -1.072984	 -1.570722
C	 -0.515052	 -2.407758	 -0.933325
C	 -2.236654	 -1.139142	 -2.299333
H	 -0.133989	 -0.824197	 -2.299885
H	 0.414910	 -2.310368	 -0.383566
H	 -0.378401	 -3.160900	 -1.702960
H	 -1.279039	 -2.771354	 -0.253408
H	 -2.498649	 -0.163574	 -2.694405
H	 -2.174251	 -1.836788	 -3.128707
H	 -3.040388	 -1.474043	 -1.651495

	symmetry c1
}
set optking {
	frozen_dihedral = ("
		9 6 3 2
	")
}

ee = energy('scf')
oeprop('DIPOLE', 'QUADRUPOLE', 'MULLIKEN_CHARGES')
f=open( 'psi4out.xyz', 'w' )
f.write( "15  " )
f.write( str(ee) + "\n" )
f.write( MOL.save_string_xyz() )
f.close()
--------------------------------------------------------------------------

    Molecular point group: c1

    Geometry (in Angstrom), charge = 0, multiplicity = 1:

       Center              X                  Y                   Z               Mass
    ------------   -----------------  -----------------  -----------------  -----------------
           H         -1.451163644401     0.918950206990     1.020174718654     1.007825032070
           C         -0.446287644401     0.919289206990     1.420156718654    12.000000000000
           O          0.418593355599     0.918287206990     0.326503718654    15.994914619560
           H         -0.326654644401     1.802151206990     2.041485718654     1.007825032070
           H         -0.326601644401     0.037557206990     2.043094718654     1.007825032070
           C          0.351678355599    -0.153728793010    -0.584982281346    12.000000000000
           C          0.732493355599    -1.488502793010     0.052414718654    12.000000000000
           C         -0.989108644401    -0.219886793010    -1.313593281346    12.000000000000
           H          1.113556355599     0.095058206990    -1.314145281346     1.007825032070
           H          1.662455355599    -1.391112793010     0.602173718654     1.007825032070
           H          0.869144355599    -2.241644793010    -0.717220281346     1.007825032070
           H         -0.031493644401    -1.852098793010     0.732331718654     1.007825032070
           H         -1.251103644401     0.755681206990    -1.708665281346     1.007825032070
           H         -0.926705644401    -0.917532793010    -2.142967281346     1.007825032070
           H         -1.792842644401    -0.554787793010    -0.665755281346     1.007825032070

  Charge       = 0
  Multiplicity = 1
  Basis Set: 6-31G*
  Basis Set:

    Orbital Energies (a.u.)
    -----------------------

    Doubly Occupied:

       1A    -20.546436     2A    -11.275233     3A    -11.261247
       4A    -11.210744     5A    -11.210672     6A     -1.369777
       7A     -1.050293     8A     -0.939904     9A     -0.931305
      10A     -0.781319    11A     -0.673370    12A     -0.641664
      13A     -0.633113    14A     -0.576464    15A     -0.565876
      16A     -0.550517    17A     -0.533542    18A     -0.500148
      19A     -0.496357    20A     -0.440780    21A     -0.404789

  @DF-RHF Final Energy:  -232.13524740995820

   => Energetics <=

    Nuclear Repulsion Energy =            198.9131886528013524
    One-Electron Energy =                -708.9097029477878777
    Two-Electron Energy =                 277.8612668850292948
    DFT Exchange-Correlation Energy =       0.0000000000000000
    Empirical Dispersion Energy =           0.0000000000000000
    PCM Polarization Energy =               0.0000000000000000
    EFP Energy =                            0.0000000000000000
    Total Energy =                       -232.1352474099572305

  Mulliken Charges: (a.u.)
   Center  Symbol    Alpha    Beta     Spin     Total
       1     H     0.42953  0.42953  0.00000  0.14094
       2     C     3.08144  3.08144  0.00000 -0.16289
       3     O     4.31322  4.31322  0.00000 -0.62644
       4     H     0.41214  0.41214  0.00000  0.17571
       5     H     0.42967  0.42967  0.00000  0.14065
       6     C     2.90844  2.90844  0.00000  0.18311
       7     C     3.25345  3.25345  0.00000 -0.50690
       8     C     3.25465  3.25465  0.00000 -0.50929
       9     H     0.41454  0.41454  0.00000  0.17092
      10     H     0.41121  0.41121  0.00000  0.17758
      11     H     0.41929  0.41929  0.00000  0.16141
      12     H     0.42131  0.42131  0.00000  0.15737
      13     H     0.41121  0.41121  0.00000  0.17758
      14     H     0.41890  0.41890  0.00000  0.16220
      15     H     0.42098  0.42098  0.00000  0.15804

   Total alpha = 21.00000, Total beta = 21.00000, Total charge = -0.00000
