                              Psi4 1.0.54 Driver

  ==> Input File <==

--------------------------------------------------------------------------
set {
	reference rhf
	basis cc-pvtz
}

set_num_threads( 4 )
memory 2 gb

molecule MOL {
0 1

H	 -0.878393	 2.439589	 0.003535
C	 -0.768028	 1.375751	 0.001866
C	 -1.900629	 0.500329	 -0.000403
C	 0.444899	 0.817323	 0.001900
H	 -2.889966	 0.917904	 -0.000441
C	 -1.734577	 -0.825944	 -0.002454
H	 1.340431	 1.406526	 0.003571
N	 0.640204	 -0.530428	 -0.000115
H	 -2.557755	 -1.510295	 -0.004190
C	 -0.410645	 -1.431283	 -0.002557
C	 2.006991	 -1.033007	 -0.000020
O	 -0.220829	 -2.617120	 -0.004437
H	 2.182444	 -1.636914	 -0.880881
H	 2.678769	 -0.195442	 -0.002236
H	 2.183828	 -1.633244	 0.883082

	symmetry c1
}
set optking {
	frozen_dihedral = ("
		10 8 11 13
	")
}

ee,wfn = optimize('scf', return_wfn=True)
oeprop( wfn, 'DIPOLE', 'QUADRUPOLE', 'MULLIKEN_CHARGES')
f=open( 'psi4out.xyz', 'w' )
f.write( "15  " )
f.write( str(ee) + "\n" )
f.write( MOL.save_string_xyz() )
f.close()
--------------------------------------------------------------------------

    Molecular point group: c1
  Charge       = 0
  Multiplicity = 1
  Basis Set: CC-PVTZ
  Basis Set:
  @DF-RHF Final Energy:  -360.72294110810935
    Total Energy =                       -360.7229411081094668
    Molecular point group: c1
  Basis Set: CC-PVTZ
  Basis Set:
  Basis Set: CC-PVTZ
  Basis Set:
  @DF-RHF Final Energy:  -360.72359465550841
    Total Energy =                       -360.7235946555085775
  Basis Set: CC-PVTZ
  Basis Set:
  Basis Set: CC-PVTZ
  Basis Set:
  @DF-RHF Final Energy:  -360.72365710396690
    Total Energy =                       -360.7236571039669570
  Basis Set: CC-PVTZ
  Basis Set:
  Basis Set: CC-PVTZ
  Basis Set:
  @DF-RHF Final Energy:  -360.72366004270975
    Total Energy =                       -360.7236600427096391
  Basis Set: CC-PVTZ
  Basis Set:
  Basis Set: CC-PVTZ
  Basis Set:
  @DF-RHF Final Energy:  -360.72365731348265
    Total Energy =                       -360.7236573134827040
  Basis Set: CC-PVTZ
  Basis Set:
  Charge       = 0
  Multiplicity = 1
  Basis Set: CC-PVTZ
  Basis Set:

    Orbital Energies (a.u.)
    -----------------------

    Doubly Occupied:

       1A    -20.502043     2A    -15.617955     3A    -11.337454
       4A    -11.294806     5A    -11.266199     6A    -11.258194
       7A    -11.229344     8A    -11.227685     9A     -1.391467
      10A     -1.285977    11A     -1.118838    12A     -1.029404
      13A     -0.972646    14A     -0.876692    15A     -0.839065
      16A     -0.719756    17A     -0.701937    18A     -0.664076
      19A     -0.653480    20A     -0.626399    21A     -0.611967
      22A     -0.575225    23A     -0.551575    24A     -0.551347
      25A     -0.531619    26A     -0.485088    27A     -0.420422
      28A     -0.410807    29A     -0.309908

  @DF-RHF Final Energy:  -360.72366105433701

   => Energetics <=

    Nuclear Repulsion Energy =            358.9353319070881412
    One-Electron Energy =               -1201.1952325253846539
    Two-Electron Energy =                 481.5362395639592137
    DFT Exchange-Correlation Energy =       0.0000000000000000
    Empirical Dispersion Energy =           0.0000000000000000
    PCM Polarization Energy =               0.0000000000000000
    EFP Energy =                            0.0000000000000000
    Total Energy =                       -360.7236610543373558
    Molecular point group: c1
  Basis Set: CC-PVTZ
  Basis Set:

  -Total Gradient:
     Atom            X                  Y                   Z
    ------   -----------------  -----------------  -----------------
       1       -0.000008256740     0.000003687154    -0.000001000501
       2        0.000009089819     0.000003621999    -0.000005553197
       3        0.000005283917    -0.000003620967     0.000004402855
       4       -0.000014924549     0.000005665249     0.000006577292
       5        0.000007535331     0.000018684521    -0.000001099875
       6       -0.000012593881    -0.000021332839     0.000002724390
       7        0.000005717489     0.000000387113    -0.000001327749
       8        0.000009891167    -0.000020767626    -0.000027588939
       9        0.000012370872    -0.000000977305    -0.000001490331
      10        0.000004702148     0.000055312204     0.000014626741
      11       -0.000031133835     0.000007992453     0.000022848369
      12        0.000005088704    -0.000051069666     0.000000614088
      13        0.000009703247     0.000013260378    -0.000023704526
      14       -0.000004017676    -0.000007338584     0.000000219187
      15        0.000001543987    -0.000003504086     0.000009752196

  **** Optimization is complete! (in 6 steps) ****
    Final optimized geometry and variables:
    Molecular point group: c1

    Geometry (in Angstrom), charge = 0, multiplicity = 1:

    H           -0.718263274448     2.956968013981     0.001272374045
    C           -0.596224166637     1.894440352318     0.000816572887
    C           -1.718483356415     1.008009146856     0.000157292940
    C            0.625659032825     1.351173570133     0.001015096581
    H           -2.711580106146     1.416684398969     0.000110083009
    C           -1.541389375281    -0.318190412142    -0.000422472227
    H            1.511864455855     1.952666169172     0.001590337827
    N            0.830166287223     0.007309385726     0.000501883057
    H           -2.358160752742    -1.010301679400    -0.001000598220
    C           -0.211084031214    -0.902578796794    -0.000614981713
    C            2.177328178499    -0.541089416674     0.000454420528
    O            0.015542240398    -2.082206778124    -0.001705070196
    H            2.332534733011    -1.150247636602    -0.877291937431
    H            2.887431523920     0.271357452629     0.007681688423
    H            2.327423636963    -1.161565646454     0.870985259033

  Mulliken Charges: (a.u.)
   Center  Symbol    Alpha    Beta     Spin     Total
       1     H     0.41403  0.41403  0.00000  0.17194
       2     C     3.10738  3.10738  0.00000 -0.21475
       3     C     3.05894  3.05894  0.00000 -0.11788
       4     C     3.03969  3.03969  0.00000 -0.07939
       5     H     0.41845  0.41845  0.00000  0.16310
       6     C     3.11847  3.11847  0.00000 -0.23695
       7     H     0.41841  0.41841  0.00000  0.16317
       8     N     3.50819  3.50819  0.00000 -0.01637
       9     H     0.40942  0.40942  0.00000  0.18115
      10     C     2.84573  2.84573  0.00000  0.30853
      11     C     3.09124  3.09124  0.00000 -0.18248
      12     O     4.23543  4.23543  0.00000 -0.47085
      13     H     0.43972  0.43972  0.00000  0.12056
      14     H     0.45544  0.45544  0.00000  0.08912
      15     H     0.43945  0.43945  0.00000  0.12109

   Total alpha = 29.00000, Total beta = 29.00000, Total charge =  0.00000

*** Psi4 exiting successfully. Buy a developer a beer!
