  ==> Input File <==

--------------------------------------------------------------------------
set {
	reference rhf
	basis 6-31G*
}

set_num_threads( 4 )
memory 2 gb

molecule MOL {
0 1

H	 -0.944757	 -0.000069	 1.678017
O	 -0.042387	 -0.000390	 1.388199
C	 -0.001487	 0.000018	 -0.026623
C	 -1.341092	 -0.492296	 -0.577737
C	 0.308732	 1.411217	 -0.529541
C	 1.121365	 -0.963911	 -0.393317
H	 -1.328557	 -0.543737	 -1.661755
H	 -2.147551	 0.177574	 -0.288249
H	 -1.567540	 -1.478547	 -0.187804
H	 0.386395	 1.437807	 -1.611831
H	 -0.475177	 2.106311	 -0.237542
H	 1.243673	 1.762874	 -0.107524
H	 1.235562	 -1.036340	 -1.470098
H	 0.909931	 -1.952070	 -0.000476
H	 2.059360	 -0.625507	 0.032172

	symmetry c1
}
set optking {
	frozen_dihedral = ("
		4 3 2 1
	")
}

ee = optimize('scf')
oeprop('DIPOLE', 'QUADRUPOLE', 'MULLIKEN_CHARGES')
f=open( 'psi4out.xyz', 'w' )
f.write( "15  " )
f.write( str(ee) + "\n" )
f.write( MOL.save_string_xyz() )
f.close()
--------------------------------------------------------------------------

    Molecular point group: c1
  Charge       = 0
  Multiplicity = 1
  Basis Set: 6-31G*
  Basis Set:
  @DF-RHF Final Energy:  -232.15119139462686
    Total Energy =                       -232.1511913946266645
    Molecular point group: c1
  Basis Set: 6-31G*
  Basis Set:
  Basis Set: 6-31G*
  Basis Set:
  @DF-RHF Final Energy:  -232.15138195863119
    Total Energy =                       -232.1513819586311342
  Basis Set: 6-31G*
  Basis Set:
  Basis Set: 6-31G*
  Basis Set:
  @DF-RHF Final Energy:  -232.15147252896003
    Total Energy =                       -232.1514725289599710
  Basis Set: 6-31G*
  Basis Set:
  Basis Set: 6-31G*
  Basis Set:
  @DF-RHF Final Energy:  -232.15146649393387
    Total Energy =                       -232.1514664939339809
  Basis Set: 6-31G*
  Basis Set:
  Basis Set: 6-31G*
  Basis Set:
  @DF-RHF Final Energy:  -232.15147679087602
    Total Energy =                       -232.1514767908760746
  Basis Set: 6-31G*
  Basis Set:
  Charge       = 0
  Multiplicity = 1
  Basis Set: 6-31G*
  Basis Set:

    Orbital Energies (a.u.)
    -----------------------

    Doubly Occupied:

       1A    -20.547194     2A    -11.282000     3A    -11.217836
       4A    -11.205143     5A    -11.204653     6A     -1.358579
       7A     -1.063702     8A     -0.945220     9A     -0.935777
      10A     -0.775635    11A     -0.669385    12A     -0.622706
      13A     -0.620943    14A     -0.575250    15A     -0.556321
      16A     -0.532971    17A     -0.516783    18A     -0.508796
      19A     -0.501723    20A     -0.457144    21A     -0.422881

  @DF-RHF Final Energy:  -232.15147617816049

   => Energetics <=

    Nuclear Repulsion Energy =            200.2705765769426023
    One-Electron Energy =                -711.8028168109295848
    Two-Electron Energy =                 279.3807640558264893
    DFT Exchange-Correlation Energy =       0.0000000000000000
    Empirical Dispersion Energy =           0.0000000000000000
    PCM Polarization Energy =               0.0000000000000000
    EFP Energy =                            0.0000000000000000
    Total Energy =                       -232.1514761781604648
    Molecular point group: c1
  Basis Set: 6-31G*
  Basis Set:

  -Total Gradient:
     Atom            X                  Y                   Z
    ------   -----------------  -----------------  -----------------
       1       -0.000086327661    -0.001907083134     0.000058799654
       2       -0.000136848482     0.002761625380    -0.000074535333
       3        0.000603386482    -0.002013326029     0.000083781112
       4       -0.000402748118     0.001186052157     0.000008295876
       5       -0.000007646129    -0.000020921153    -0.000070263131
       6        0.000023913629     0.000019107512     0.000009822420
       7        0.000003452372     0.000018200675    -0.000038943754
       8       -0.000013623268    -0.000049227405     0.000020224371
       9        0.000048484438     0.000021097511    -0.000010283905
      10       -0.000048435077     0.000018688496     0.000020427379
      11       -0.000009983038     0.000038646058     0.000008687163
      12        0.000022745117    -0.000064603642    -0.000008462469
      13        0.000004253847    -0.000024115867    -0.000010165127
      14       -0.000006204390     0.000024229579     0.000001107572
      15        0.000005580278    -0.000008370137     0.000001508172

  **** Optimization is complete! (in 6 steps) ****
    Final optimized geometry and variables:
    Molecular point group: c1

    Geometry (in Angstrom), charge = 0, multiplicity = 1:

    H           -0.934114007372     0.050020438622     1.693795107038
    O           -0.037702261544     0.032398233820     1.391908343444
    C            0.002965617411    -0.000234844747    -0.026063365107
    C           -1.337276761423    -0.488128543073    -0.577076455634
    C            0.305793769637     1.412139471213    -0.528856582187
    C            1.128100000372    -0.960661370479    -0.399454322729
    H           -1.320512049575    -0.539234497527    -1.660318817593
    H           -2.140994999433     0.186820631273    -0.291657040853
    H           -1.570316185074    -1.477779382010    -0.195510802730
    H            0.382313307373     1.441450885617    -1.611725064504
    H           -0.477413929820     2.099930141532    -0.224503115823
    H            1.240904144366     1.763845575996    -0.107571862692
    H            1.263168004535    -1.008368634159    -1.475614077398
    H            0.910121247008    -1.957574765920    -0.032363737159
    H            2.059493450932    -0.634107080685     0.049595346167

  Mulliken Charges: (a.u.)
   Center  Symbol    Alpha    Beta     Spin     Total
       1     H     0.28044  0.28044  0.00000  0.43912
       2     O     4.38206  4.38206  0.00000 -0.76412
       3     C     2.84626  2.84626  0.00000  0.30749
       4     C     3.25792  3.25792  0.00000 -0.51583
       5     C     3.23227  3.23227  0.00000 -0.46454
       6     C     3.23221  3.23221  0.00000 -0.46443
       7     H     0.41502  0.41502  0.00000  0.16995
       8     H     0.42211  0.42211  0.00000  0.15578
       9     H     0.41458  0.41458  0.00000  0.17083
      10     H     0.42559  0.42559  0.00000  0.14882
      11     H     0.42304  0.42304  0.00000  0.15392
      12     H     0.41325  0.41325  0.00000  0.17350
      13     H     0.42524  0.42524  0.00000  0.14952
      14     H     0.41723  0.41723  0.00000  0.16554
      15     H     0.41278  0.41278  0.00000  0.17444

   Total alpha = 21.00000, Total beta = 21.00000, Total charge =  0.00000
