  ==> Input File <==

--------------------------------------------------------------------------
set {
	reference rhf
	basis cc-pvtz
}

set_num_threads( 4 )
memory 2 gb

molecule MOL {
0 1

H	 -0.366580	 2.045936	 -0.305741
C	 0.351829	 1.335402	 0.083179
N	 -0.000018	 0.000080	 -0.334836
H	 1.327156	 1.599860	 -0.305475
H	 0.380566	 1.445403	 1.171445
C	 0.612494	 -0.350444	 -1.593543
C	 0.276053	 -0.977068	 0.690448
H	 0.272546	 -1.328242	 -1.910464
H	 0.328381	 0.364916	 -2.354941
H	 1.705146	 -0.372857	 -1.541779
H	 -0.254085	 -0.719984	 1.598768
H	 -0.063311	 -1.954265	 0.371006
H	 1.341000	 -1.050809	 0.930366

	symmetry c1
}
set optking {
	frozen_dihedral = ("
		6 3 2 1
	")
}

ee = optimize('scf')
oeprop('DIPOLE', 'QUADRUPOLE', 'MULLIKEN_CHARGES')
f=open( 'psi4out.xyz', 'w' )
f.write( "13  " )
f.write( str(ee) + "\n" )
f.write( MOL.save_string_xyz() )
f.close()
--------------------------------------------------------------------------

    Molecular point group: c1
  Charge       = 0
  Multiplicity = 1
  Basis Set: CC-PVTZ
  Basis Set:
  @DF-RHF Final Energy:  -173.32931030003078
    Total Energy =                       -173.3293103000307553
    Molecular point group: c1
  Basis Set: CC-PVTZ
  Basis Set:
  Basis Set: CC-PVTZ
  Basis Set:
  @DF-RHF Final Energy:  -173.33026931611587
    Total Energy =                       -173.3302693161157322
  Basis Set: CC-PVTZ
  Basis Set:
  Basis Set: CC-PVTZ
  Basis Set:
  @DF-RHF Final Energy:  -173.33038155223647
    Total Energy =                       -173.3303815522367302
  Basis Set: CC-PVTZ
  Basis Set:
  Basis Set: CC-PVTZ
  Basis Set:
  @DF-RHF Final Energy:  -173.33038670237104
    Total Energy =                       -173.3303867023711007
  Basis Set: CC-PVTZ
  Basis Set:
  Charge       = 0
  Multiplicity = 1
  Basis Set: CC-PVTZ
  Basis Set:

    Orbital Energies (a.u.)
    -----------------------

    Doubly Occupied:

       1A    -15.538904     2A    -11.234018     3A    -11.233929
       4A    -11.233784     5A     -1.224428     6A     -0.952011
       7A     -0.950782     8A     -0.807798     9A     -0.642108
      10A     -0.630522    11A     -0.627445    12A     -0.551323
      13A     -0.544213    14A     -0.514117    15A     -0.501427
      16A     -0.497960    17A     -0.349162

  @DF-RHF Final Energy:  -173.33038712757104

   => Energetics <=

    Nuclear Repulsion Energy =            139.2791443250002317
    One-Electron Energy =                -509.1512042938570062
    Two-Electron Energy =                 196.5416728412858163
    DFT Exchange-Correlation Energy =       0.0000000000000000
    Empirical Dispersion Energy =           0.0000000000000000
    PCM Polarization Energy =               0.0000000000000000
    EFP Energy =                            0.0000000000000000
    Total Energy =                       -173.3303871275709582
    Molecular point group: c1
  Basis Set: CC-PVTZ
  Basis Set:

  -Total Gradient:
     Atom            X                  Y                   Z
    ------   -----------------  -----------------  -----------------
       1       -0.002927913343    -0.000520630290     0.004417301175
       2        0.004875285419     0.000081916484    -0.004902884995
       3       -0.005086548234     0.001833666228    -0.001508314115
       4       -0.000003294011     0.000000773056     0.000005005132
       5       -0.000005525450     0.000008726710     0.000023991970
       6        0.003146673400    -0.001411816119     0.001987417211
       7       -0.000044166324     0.000043477942    -0.000034557273
       8        0.000001379956    -0.000004613267    -0.000005356942
       9        0.000009903575    -0.000002357901    -0.000018712664
      10        0.000012879504    -0.000001792286     0.000004351340
      11        0.000004842368    -0.000013336266     0.000018246987
      12        0.000004013818    -0.000011605880     0.000009819604
      13        0.000012469323    -0.000002408409     0.000003692570

  **** Optimization is complete! (in 5 steps) ****
    Final optimized geometry and variables:
    Molecular point group: c1

    Geometry (in Angstrom), charge = 0, multiplicity = 1:

    H           -0.684438706669     2.066274880601    -0.033394174897
    C            0.026660764237     1.346186304793     0.355408213914
    N           -0.338517099054    -0.000328253836    -0.043520406886
    H            1.032381437519     1.625219847882     0.042300295459
    H           -0.014090772869     1.434053879936     1.433801725977
    C            0.266833908562    -0.365246729739    -1.302856700419
    C           -0.040185121491    -0.980051804865     0.976761654897
    H           -0.099379685359    -1.331276799370    -1.626998914340
    H            0.006310888071     0.360337397867    -2.063984149293
    H            1.357997064734    -0.415683943169    -1.245833446166
    H           -0.571312574831    -0.741474529374     1.888995556136
    H           -0.366856365219    -1.959276093682     0.649581604693
    H            1.026750429337    -1.044184294470     1.211192405304

  Mulliken Charges: (a.u.)
   Center  Symbol    Alpha    Beta     Spin     Total
       1     H     0.45027  0.45027  0.00000  0.09946
       2     C     3.08795  3.08795  0.00000 -0.17590
       3     N     3.59864  3.59864  0.00000 -0.19727
       4     H     0.46874  0.46874  0.00000  0.06252
       5     H     0.45707  0.45707  0.00000  0.08587
       6     C     3.09094  3.09094  0.00000 -0.18188
       7     C     3.08905  3.08905  0.00000 -0.17809
       8     H     0.45304  0.45304  0.00000  0.09392
       9     H     0.45204  0.45204  0.00000  0.09591
      10     H     0.47314  0.47314  0.00000  0.05372
      11     H     0.45218  0.45218  0.00000  0.09564
      12     H     0.45306  0.45306  0.00000  0.09389
      13     H     0.47390  0.47390  0.00000  0.05220

   Total alpha = 17.00000, Total beta = 17.00000, Total charge =  0.00000
