  ==> Input File <==

--------------------------------------------------------------------------
set {
	reference rhf
	basis cc-pvtz
}

set_num_threads( 4 )
memory 2 gb

molecule MOL {
0 1

H	 -4.010597	 -0.575330	 0.460806
C	 -2.948177	 -0.423352	 0.479330
C	 -2.423090	 0.706202	 1.081021
C	 -2.108702	 -1.357023	 -0.098185
H	 -3.075292	 1.430479	 1.529080
C	 -1.057777	 0.900798	 1.104428
H	 -2.516903	 -2.232664	 -0.564550
C	 -0.741380	 -1.163591	 -0.075559
H	 -0.634378	 1.769570	 1.565976
C	 -0.211931	 -0.033151	 0.526356
H	 -0.088478	 -1.884723	 -0.521896
C	 1.255894	 0.223245	 0.578034
O	 1.968286	 -0.725612	 -0.000027
O	 1.740928	 1.178959	 1.084522
C	 3.373556	 -0.568203	 0.000011
H	 3.695416	 -0.031588	 -0.879663
H	 3.782700	 -1.565294	 -0.000152
H	 3.695405	 -0.031851	 0.879862

	symmetry c1
}
set optking {
	frozen_dihedral = ("
		12 13 15 16
	")
}

ee = optimize('scf')
oeprop('DIPOLE', 'QUADRUPOLE', 'MULLIKEN_CHARGES')
f=open( 'psi4out.xyz', 'w' )
f.write( "18  " )
f.write( str(ee) + "\n" )
f.write( MOL.save_string_xyz() )
f.close()
--------------------------------------------------------------------------

    Molecular point group: c1
  Charge       = 0
  Multiplicity = 1
  Basis Set: CC-PVTZ
  Basis Set:
  @DF-RHF Final Energy:  -457.50889936658109
    Total Energy =                       -457.5088993665821135
    Molecular point group: c1
  Basis Set: CC-PVTZ
  Basis Set:
  Basis Set: CC-PVTZ
  Basis Set:
  @DF-RHF Final Energy:  -457.50900278641166
    Total Energy =                       -457.5090027864112017
  Basis Set: CC-PVTZ
  Basis Set:
  Basis Set: CC-PVTZ
  Basis Set:
  @DF-RHF Final Energy:  -457.50883537731784
    Total Energy =                       -457.5088353773179506
  Basis Set: CC-PVTZ
  Basis Set:
  Basis Set: CC-PVTZ
  Basis Set:
  @DF-RHF Final Energy:  -457.50913605313764
    Total Energy =                       -457.5091360531378086
  Basis Set: CC-PVTZ
  Basis Set:
  Basis Set: CC-PVTZ
  Basis Set:
  @DF-RHF Final Energy:  -457.50914817717711
    Total Energy =                       -457.5091481771770532
  Basis Set: CC-PVTZ
  Basis Set:
  Charge       = 0
  Multiplicity = 1
  Basis Set: CC-PVTZ
  Basis Set:

    Orbital Energies (a.u.)
    -----------------------

    Doubly Occupied:

       1A    -20.600545     2A    -20.534046     3A    -11.372451
       4A    -11.280689     5A    -11.244756     6A    -11.243339
       7A    -11.242472     8A    -11.239832     9A    -11.235880
      10A    -11.235115    11A     -1.475745    12A     -1.368828
      13A     -1.170568    14A     -1.051714    15A     -1.028862
      16A     -0.981201    17A     -0.863020    18A     -0.838258
      19A     -0.780820    20A     -0.745039    21A     -0.688145
      22A     -0.680534    23A     -0.676256    24A     -0.634177
      25A     -0.629907    26A     -0.601117    27A     -0.587678
      28A     -0.568075    29A     -0.529170    30A     -0.520191
      31A     -0.509785    32A     -0.501897    33A     -0.462584
      34A     -0.449339    35A     -0.350100    36A     -0.346060

  @DF-RHF Final Energy:  -457.50914871531211

   => Energetics <=

    Nuclear Repulsion Energy =            493.8064617455615917
    One-Electron Energy =               -1602.0948273273288578
    Two-Electron Energy =                 650.7792168664551582
    DFT Exchange-Correlation Energy =       0.0000000000000000
    Empirical Dispersion Energy =           0.0000000000000000
    PCM Polarization Energy =               0.0000000000000000
    EFP Energy =                            0.0000000000000000
    Total Energy =                       -457.5091487153121079
    Molecular point group: c1
  Basis Set: CC-PVTZ
  Basis Set:

  -Total Gradient:
     Atom            X                  Y                   Z
    ------   -----------------  -----------------  -----------------
       1        0.000000698800     0.000000946060     0.000000848151
       2       -0.000002277790     0.000014650751     0.000008426108
       3       -0.000007118760    -0.000003227791    -0.000004882727
       4        0.000024863063    -0.000002356733    -0.000001108086
       5        0.000002731835     0.000000645697     0.000002127981
       6        0.000021788727    -0.000003938283     0.000002041107
       7        0.000004425573     0.000001315621    -0.000001391924
       8        0.000001236460    -0.000001216621    -0.000004057958
       9        0.000000368444     0.000007449063     0.000001642772
      10        0.000030268719    -0.000006378804    -0.000007147536
      11        0.000011916013    -0.000005485796    -0.000001092947
      12        0.000104565821    -0.000703299610     0.001256918326
      13       -0.000114969072     0.000557180706    -0.002023077703
      14       -0.000043713047     0.000017049345     0.000028164689
      15       -0.000159145209     0.001565460915     0.001561613779
      16        0.000182949939    -0.001434687578    -0.000835005140
      17       -0.000044555247    -0.000002775746     0.000010740378
      18       -0.000014034266    -0.000001331195     0.000005240729

  **** Optimization is complete! (in 6 steps) ****
    Final optimized geometry and variables:
    Molecular point group: c1

    Geometry (in Angstrom), charge = 0, multiplicity = 1:

    H           -4.020628438722    -0.476028415840     0.001294078956
    C           -2.959192879892    -0.316938020246     0.018675371466
    C           -2.441157807632     0.817452536113     0.617523735002
    C           -2.113787789841    -1.246005735920    -0.557535476829
    H           -3.097821599617     1.538423194264     1.064533753289
    C           -1.077178591304     1.021278931021     0.639323552003
    H           -2.516218384062    -2.125413734457    -1.021903107514
    C           -0.747652254806    -1.043364272765    -0.536358571258
    H           -0.659496703888     1.894101101396     1.098496804650
    C           -0.225314364990     0.091721193913     0.062801272816
    H           -0.090511046365    -1.761089663313    -0.981967957035
    C            1.241359479394     0.359114103423     0.113864712219
    O            1.955445512034    -0.585969885717    -0.468990283844
    O            1.715946988023     1.318870761652     0.622017643224
    C            3.365011824951    -0.467436302307    -0.458264672744
    H            3.692764194290     0.076790757268    -1.333007285795
    H            3.752632561659    -1.473227995868    -0.498908280282
    H            3.704629563407     0.031843947524     0.433133335352

  Mulliken Charges: (a.u.)
   Center  Symbol    Alpha    Beta     Spin     Total
       1     H     0.42032  0.42032  0.00000  0.15936
       2     C     3.06975  3.06975  0.00000 -0.13950
       3     C     3.07555  3.07555  0.00000 -0.15109
       4     C     3.07493  3.07493  0.00000 -0.14987
       5     H     0.42043  0.42043  0.00000  0.15914
       6     C     3.07587  3.07587  0.00000 -0.15174
       7     H     0.42193  0.42193  0.00000  0.15613
       8     C     3.08205  3.08205  0.00000 -0.16410
       9     H     0.40651  0.40651  0.00000  0.18699
      10     C     3.01611  3.01611  0.00000 -0.03221
      11     H     0.41113  0.41113  0.00000  0.17773
      12     C     2.77790  2.77790  0.00000  0.44421
      13     O     4.14927  4.14927  0.00000 -0.29854
      14     O     4.21150  4.21150  0.00000 -0.42299
      15     C     3.03856  3.03856  0.00000 -0.07711
      16     H     0.45542  0.45542  0.00000  0.08916
      17     H     0.44774  0.44774  0.00000  0.10452
      18     H     0.44504  0.44504  0.00000  0.10992

   Total alpha = 36.00000, Total beta = 36.00000, Total charge =  0.00000
