                              Psi4 1.0.54 Driver

  ==> Input File <==

--------------------------------------------------------------------------
set {
	reference rhf
	basis cc-pvtz
}

set_num_threads( 4 )
memory 2 gb

molecule MOL {
0 1

H	 -2.791862	 -0.462799	 -0.769324
O	 -2.313989	 -0.142475	 -0.025864
C	 -0.943808	 -0.065018	 -0.330000
H	 -0.812293	 -0.225641	 -1.398673
C	 -0.231030	 -1.182113	 0.407592
C	 -0.353797	 1.300461	 0.050970
H	 -0.312800	 -0.992012	 1.473041
H	 -0.738841	 -2.119564	 0.220514
C	 1.246176	 -1.268044	 -0.015480
H	 -0.539537	 2.008579	 -0.751815
H	 -0.889989	 1.662858	 0.920677
C	 1.153605	 1.231851	 0.356834
H	 1.823096	 -1.684665	 0.802361
H	 1.352335	 -1.958223	 -0.845114
C	 1.826409	 0.100723	 -0.416008
H	 1.622968	 2.181508	 0.128734
H	 1.301983	 1.066493	 1.419367
H	 2.897299	 0.112407	 -0.249665
H	 1.683458	 0.265621	 -1.480024

	symmetry c1
}
set optking {
	frozen_dihedral = ("
		1 2 3 4
	")
}

ee,wfn = optimize('scf', return_wfn=True)
oeprop( wfn, 'DIPOLE', 'QUADRUPOLE', 'MULLIKEN_CHARGES')
f=open( 'psi4out.xyz', 'w' )
f.write( "19  " )
f.write( str(ee) + "\n" )
f.write( MOL.save_string_xyz() )
f.close()
--------------------------------------------------------------------------

    Molecular point group: c1
  Charge       = 0
  Multiplicity = 1
  Basis Set: CC-PVTZ
  Basis Set:
  @DF-RHF Final Energy:  -309.16132825404173
    Total Energy =                       -309.1613282540419050
    Molecular point group: c1
  Basis Set: CC-PVTZ
  Basis Set:
  Basis Set: CC-PVTZ
  Basis Set:
  @DF-RHF Final Energy:  -309.16202371822021
    Total Energy =                       -309.1620237182199276
  Basis Set: CC-PVTZ
  Basis Set:
  Basis Set: CC-PVTZ
  Basis Set:
  @DF-RHF Final Energy:  -309.16219051148028
    Total Energy =                       -309.1621905114801621
  Basis Set: CC-PVTZ
  Basis Set:
  Charge       = 0
  Multiplicity = 1
  Basis Set: CC-PVTZ
  Basis Set:

    Orbital Energies (a.u.)
    -----------------------

    Doubly Occupied:

       1A    -20.542498     2A    -11.268448     3A    -11.213504
       4A    -11.212620     5A    -11.211530     6A    -11.206665
       7A    -11.206541     8A     -1.361821     9A     -1.108936
      10A     -1.000801    11A     -0.989480    12A     -0.843298
      13A     -0.832299    14A     -0.731337    15A     -0.715498
      16A     -0.654946    17A     -0.623980    18A     -0.597012
      19A     -0.562274    20A     -0.545462    21A     -0.540105
      22A     -0.517336    23A     -0.497821    24A     -0.487567
      25A     -0.464905    26A     -0.449847    27A     -0.430368
      28A     -0.407765

  @DF-RHF Final Energy:  -309.16219310016811

   => Energetics <=

    Nuclear Repulsion Energy =            331.6489953357705645
    One-Electron Energy =               -1077.1730483894034478
    Two-Electron Energy =                 436.3618599534648865
    DFT Exchange-Correlation Energy =       0.0000000000000000
    Empirical Dispersion Energy =           0.0000000000000000
    PCM Polarization Energy =               0.0000000000000000
    EFP Energy =                            0.0000000000000000
    Total Energy =                       -309.1621931001679968
    Molecular point group: c1
  Basis Set: CC-PVTZ
  Basis Set:

  -Total Gradient:
     Atom            X                  Y                   Z
    ------   -----------------  -----------------  -----------------
       1       -0.000070475529     0.001114259775    -0.000325489706
       2        0.000003530461    -0.001649585060     0.000394768362
       3       -0.000003541228     0.001602851315    -0.000164755151
       4       -0.000029951244    -0.000940812636     0.000192347978
       5        0.000072719666     0.000028460456     0.000006045692
       6       -0.000085889879     0.000000094489    -0.000078780593
       7       -0.000030328749     0.000006431252    -0.000000280871
       8       -0.000017908285     0.000014436403    -0.000007172291
       9        0.000013113697     0.000036609124    -0.000025034150
      10       -0.000042086842    -0.000012130100    -0.000003631497
      11       -0.000010652248    -0.000058169873    -0.000047301087
      12        0.000055187293    -0.000079825695     0.000050728491
      13        0.000029863046     0.000026023525    -0.000011061045
      14        0.000041321143     0.000037627670    -0.000000854684
      15        0.000033441510    -0.000025645785     0.000026936382
      16        0.000023829458    -0.000029172193    -0.000011677368
      17        0.000011734950    -0.000003214104     0.000015979635
      18        0.000007718242    -0.000025312583    -0.000004096952
      19       -0.000001625463    -0.000042925982    -0.000006671143

  **** Optimization is complete! (in 4 steps) ****
    Final optimized geometry and variables:
    Molecular point group: c1

    Geometry (in Angstrom), charge = 0, multiplicity = 1:

    H           -2.830388219590    -0.310975371149    -0.757734838865
    O           -2.321966378640    -0.034555918308    -0.020009481894
    C           -0.946140528952    -0.050581769927    -0.330375660036
    H           -0.827542322702    -0.208749071942    -1.399453159660
    C           -0.242021225260    -1.188436748977     0.392897602937
    C           -0.335617872596     1.299611558885     0.057505000742
    H           -0.325373295307    -1.012352188505     1.460617627940
    H           -0.757485931685    -2.120768847574     0.194686343274
    C            1.236029170028    -1.287480052933    -0.026230267963
    H           -0.508230102495     2.010319080494    -0.743698948969
    H           -0.880085897236     1.666171625849     0.919048639656
    C            1.166186519168     1.205889506870     0.379646386969
    H            1.805508609211    -1.721967750298     0.787576978231
    H            1.337522890949    -1.968000391083    -0.864777289994
    C            1.833065307862     0.079929264812    -0.405350690069
    H            1.649376745942     2.153386310905     0.172084575904
    H            1.302842297159     1.021322304099     1.440828998281
    H            2.903364391002     0.077165907627    -0.234595159941
    H            1.696399982073     0.261185536501    -1.467782982662

  Mulliken Charges: (a.u.)
   Center  Symbol    Alpha    Beta     Spin     Total
       1     H     0.39166  0.39166  0.00000  0.21667
       2     O     4.20710  4.20710  0.00000 -0.41420
       3     C     2.92659  2.92659  0.00000  0.14682
       4     H     0.46789  0.46789  0.00000  0.06421
       5     C     3.09447  3.09447  0.00000 -0.18893
       6     C     3.10868  3.10868  0.00000 -0.21737
       7     H     0.45325  0.45325  0.00000  0.09350
       8     H     0.44759  0.44759  0.00000  0.10482
       9     C     3.11470  3.11470  0.00000 -0.22941
      10     H     0.45099  0.45099  0.00000  0.09802
      11     H     0.44448  0.44448  0.00000  0.11104
      12     C     3.10088  3.10088  0.00000 -0.20176
      13     H     0.44730  0.44730  0.00000  0.10540
      14     H     0.44823  0.44823  0.00000  0.10354
      15     C     3.10235  3.10235  0.00000 -0.20470
      16     H     0.44240  0.44240  0.00000  0.11520
      17     H     0.45333  0.45333  0.00000  0.09334
      18     H     0.44313  0.44313  0.00000  0.11374
      19     H     0.45497  0.45497  0.00000  0.09006

   Total alpha = 28.00000, Total beta = 28.00000, Total charge = -0.00000

*** Psi4 exiting successfully. Buy a developer a beer!
