  ==> Input File <==

--------------------------------------------------------------------------
set {
	reference rhf
	basis 6-31G*
}

set_num_threads( 1 )
memory 2 gb

molecule MOL {
0 1

H	 -3.420663	 1.227371	 -1.044276
O	 -3.452007	 0.283848	 -0.965577
C	 -3.181085	 -0.079926	 0.364119
C	 -1.765924	 0.277073	 0.805136
H	 -3.327791	 -1.152017	 0.410903
H	 -3.905698	 0.375695	 1.036898
C	 -0.677594	 -0.417312	 -0.014550
H	 -1.637766	 1.358238	 0.744969
H	 -1.659588	 0.017670	 1.857098
C	 0.738335	 -0.034840	 0.421385
H	 -0.814977	 -0.178223	 -1.064632
H	 -0.802730	 -1.495410	 0.071702
C	 0.762924	 1.167589	 1.368827
H	 1.205499	 -0.893192	 0.898257
H	 1.339741	 0.190394	 -0.458493
C	 2.165277	 1.644651	 1.763761
H	 0.199282	 0.927641	 2.269064
H	 0.238142	 1.994555	 0.894962
C	 2.962891	 0.646725	 2.605403
H	 2.068541	 2.572258	 2.322757
H	 2.727927	 1.890118	 0.865221
H	 2.418649	 0.372943	 3.505394
H	 3.912887	 1.073699	 2.912056
H	 3.178358	 -0.265345	 2.058715

	symmetry c1
}
set optking {
	frozen_dihedral = ("
		20 16 13 17,
		17 13 10 7,
		11 7 4 3,
		1 2 3 5,
		7 4 3 2
	")
}

ee = energy('scf')
oeprop('DIPOLE', 'QUADRUPOLE', 'MULLIKEN_CHARGES')
f=open( 'psi4out.xyz', 'w' )
f.write( "24  " )
f.write( str(ee) + "\n" )
f.write( MOL.save_string_xyz() )
f.close()
--------------------------------------------------------------------------

    Molecular point group: c1

    Geometry (in Angstrom), charge = 0, multiplicity = 1:

       Center              X                  Y                   Z               Mass
    ------------   -----------------  -----------------  -----------------  -----------------
           H         -3.063934119806     0.787595617289    -1.817100470884     1.007825032070
           O         -3.095278119806    -0.155927382711    -1.738401470884    15.994914619560
           C         -2.824356119806    -0.519701382711    -0.408705470884    12.000000000000
           C         -1.409195119806    -0.162702382711     0.032311529116    12.000000000000
           H         -2.971062119806    -1.591792382711    -0.361921470884     1.007825032070
           H         -3.548969119806    -0.064080382711     0.264073529116     1.007825032070
           C         -0.320865119806    -0.857087382711    -0.787374470884    12.000000000000
           H         -1.281037119806     0.918462617289    -0.027855470884     1.007825032070
           H         -1.302859119806    -0.422105382711     1.084273529116     1.007825032070
           C          1.095063880194    -0.474615382711    -0.351439470884    12.000000000000
           H         -0.458248119806    -0.617998382711    -1.837456470884     1.007825032070
           H         -0.446001119806    -1.935185382711    -0.701122470884     1.007825032070
           C          1.119652880194     0.727813617289     0.596002529116    12.000000000000
           H          1.562227880194    -1.332967382711     0.125432529116     1.007825032070
           H          1.696469880194    -0.249381382711    -1.231317470884     1.007825032070
           C          2.522005880194     1.204875617289     0.990936529116    12.000000000000
           H          0.556010880194     0.487865617289     1.496239529116     1.007825032070
           H          0.594870880194     1.554779617289     0.122137529116     1.007825032070
           C          3.319619880194     0.206949617289     1.832578529116    12.000000000000
           H          2.425269880194     2.132482617289     1.549932529116     1.007825032070
           H          3.084655880194     1.450342617289     0.092396529116     1.007825032070
           H          2.775377880194    -0.066832382711     2.732569529116     1.007825032070
           H          4.269615880194     0.633923617289     2.139231529116     1.007825032070
           H          3.535086880194    -0.705120382711     1.285890529116     1.007825032070

  Charge       = 0
  Multiplicity = 1
  Basis Set: 6-31G*
  Basis Set:

    Orbital Energies (a.u.)
    -----------------------

    Doubly Occupied:

       1A    -20.552607     2A    -11.266052     3A    -11.215135
       4A    -11.214414     5A    -11.212557     6A    -11.211103
       7A    -11.209784     8A    -11.207795     9A     -1.359149
      10A     -1.093302    11A     -1.044921    12A     -0.982648
      13A     -0.916696    14A     -0.855691    15A     -0.814207
      16A     -0.757601    17A     -0.674845    18A     -0.657470
      19A     -0.629602    20A     -0.618848    21A     -0.599773
      22A     -0.577325    23A     -0.562053    24A     -0.542131
      25A     -0.524669    26A     -0.511014    27A     -0.496577
      28A     -0.484242    29A     -0.474972    30A     -0.451784
      31A     -0.440759    32A     -0.436174    33A     -0.424566

  @DF-RHF Final Energy:  -349.23319309009355

   => Energetics <=

    Nuclear Repulsion Energy =            393.1026206604702793
    One-Electron Energy =               -1252.6306508539867082
    Two-Electron Energy =                 510.2948371034225374
    DFT Exchange-Correlation Energy =       0.0000000000000000
    Empirical Dispersion Energy =           0.0000000000000000
    PCM Polarization Energy =               0.0000000000000000
    EFP Energy =                            0.0000000000000000
    Total Energy =                       -349.2331930900938914

  Mulliken Charges: (a.u.)
   Center  Symbol    Alpha    Beta     Spin     Total
       1     H     0.28362  0.28362  0.00000  0.43277
       2     O     4.36858  4.36858  0.00000 -0.73716
       3     C     2.99342  2.99342  0.00000  0.01316
       4     C     3.17596  3.17596  0.00000 -0.35191
       5     H     0.41718  0.41718  0.00000  0.16563
       6     H     0.42878  0.42878  0.00000  0.14245
       7     C     3.15534  3.15534  0.00000 -0.31067
       8     H     0.42545  0.42545  0.00000  0.14910
       9     H     0.42119  0.42119  0.00000  0.15762
      10     C     3.15613  3.15613  0.00000 -0.31226
      11     H     0.41001  0.41001  0.00000  0.17997
      12     H     0.42075  0.42075  0.00000  0.15850
      13     C     3.16014  3.16014  0.00000 -0.32028
      14     H     0.41951  0.41951  0.00000  0.16098
      15     H     0.42086  0.42086  0.00000  0.15829
      16     C     3.14905  3.14905  0.00000 -0.29810
      17     H     0.42231  0.42231  0.00000  0.15538
      18     H     0.42231  0.42231  0.00000  0.15538
      19     C     3.24112  3.24112  0.00000 -0.48225
      20     H     0.42229  0.42229  0.00000  0.15542
      21     H     0.42376  0.42376  0.00000  0.15249
      22     H     0.42309  0.42309  0.00000  0.15383
      23     H     0.41948  0.41948  0.00000  0.16105
      24     H     0.41969  0.41969  0.00000  0.16062

   Total alpha = 33.00000, Total beta = 33.00000, Total charge =  0.00000
