                              Psi4 1.0.54 Driver

  ==> Input File <==

--------------------------------------------------------------------------
set {
	reference rhf
	basis cc-pvtz
}

set_num_threads( 4 )
memory 2 gb

molecule MOL {
0 1

H	 -2.620255	 -1.243030	 -0.776286
O	 -2.658848	 -0.704215	 -0.000460
C	 -1.605397	 0.107680	 0.001145
C	 -0.310616	 -0.658853	 0.000791
O	 -1.718351	 1.284629	 -0.000627
C	 0.926581	 0.227233	 0.000178
H	 -0.327628	 -1.313681	 -0.864448
H	 -0.327041	 -1.313334	 0.866298
C	 2.220156	 -0.582071	 -0.000088
H	 0.899945	 0.878221	 -0.866390
H	 0.900542	 0.878581	 0.866486
C	 3.466689	 0.296012	 -0.000457
H	 2.239073	 -1.234095	 -0.869382
H	 2.239505	 -1.233985	 0.869270
H	 3.493549	 0.935857	 -0.875887
H	 4.368821	 -0.304526	 -0.001199
H	 3.494559	 0.935166	 0.875458

	symmetry c1
}
set optking {
	frozen_dihedral = ("
		1 2 3 5
	")
}

ee,wfn = optimize('scf', return_wfn=True)
oeprop( wfn, 'DIPOLE', 'QUADRUPOLE', 'MULLIKEN_CHARGES')
f=open( 'psi4out.xyz', 'w' )
f.write( "17  " )
f.write( str(ee) + "\n" )
f.write( MOL.save_string_xyz() )
f.close()
--------------------------------------------------------------------------

    Molecular point group: c1
  Charge       = 0
  Multiplicity = 1
  Basis Set: CC-PVTZ
  Basis Set:
  @DF-RHF Final Energy:  -345.02952770753353
    Total Energy =                       -345.0295277075334752
    Molecular point group: c1
  Basis Set: CC-PVTZ
  Basis Set:
  Basis Set: CC-PVTZ
  Basis Set:
  @DF-RHF Final Energy:  -345.03086253194027
    Total Energy =                       -345.0308625319403291
  Basis Set: CC-PVTZ
  Basis Set:
  Basis Set: CC-PVTZ
  Basis Set:
  @DF-RHF Final Energy:  -345.03081060721576
    Total Energy =                       -345.0308106072155852
  Basis Set: CC-PVTZ
  Basis Set:
  Basis Set: CC-PVTZ
  Basis Set:
  @DF-RHF Final Energy:  -345.03101988044511
    Total Energy =                       -345.0310198804448305
  Basis Set: CC-PVTZ
  Basis Set:
  Basis Set: CC-PVTZ
  Basis Set:
  @DF-RHF Final Energy:  -345.03104979968123
    Total Energy =                       -345.0310497996813979
  Basis Set: CC-PVTZ
  Basis Set:
  Charge       = 0
  Multiplicity = 1
  Basis Set: CC-PVTZ
  Basis Set:

    Orbital Energies (a.u.)
    -----------------------

    Doubly Occupied:

       1A    -20.590729     2A    -20.547178     3A    -11.373833
       4A    -11.245376     5A    -11.224701     6A    -11.224051
       7A    -11.213179     8A     -1.464872     9A     -1.372322
      10A     -1.095390    11A     -1.019543    12A     -0.909204
      13A     -0.828591    14A     -0.802011    15A     -0.714823
      16A     -0.676186    17A     -0.664050    18A     -0.641815
      19A     -0.599223    20A     -0.586533    21A     -0.544449
      22A     -0.542820    23A     -0.516093    24A     -0.498667
      25A     -0.483809    26A     -0.477319    27A     -0.475630
      28A     -0.444985

  @DF-RHF Final Energy:  -345.03105036104262

   => Energetics <=

    Nuclear Repulsion Energy =            304.2001856415445218
    One-Electron Energy =               -1072.9077011270987896
    Two-Electron Energy =                 423.6764651245116511
    DFT Exchange-Correlation Energy =       0.0000000000000000
    Empirical Dispersion Energy =           0.0000000000000000
    PCM Polarization Energy =               0.0000000000000000
    EFP Energy =                            0.0000000000000000
    Total Energy =                       -345.0310503610426167
    Molecular point group: c1
  Basis Set: CC-PVTZ
  Basis Set:

  -Total Gradient:
     Atom            X                  Y                   Z
    ------   -----------------  -----------------  -----------------
       1       -0.002862851113     0.004061627381    -0.002711865213
       2        0.003666391704    -0.004989151285     0.001245304083
       3       -0.000803596505     0.000740315062     0.006351615156
       4        0.000015080235     0.000002777745     0.000074812234
       5       -0.000012243818     0.000184079613    -0.004911381426
       6        0.000025278037     0.000011909733    -0.000011088153
       7       -0.000005572124     0.000002140574    -0.000030691721
       8        0.000012764780    -0.000000555728    -0.000024815248
       9        0.000003562988    -0.000017255880     0.000007250476
      10       -0.000003615753    -0.000007548913     0.000007226776
      11       -0.000001205863     0.000001344303     0.000009569259
      12       -0.000018941905     0.000012996551    -0.000007436308
      13       -0.000002990221    -0.000002994451    -0.000002918324
      14       -0.000002912560    -0.000000088802     0.000005364805
      15        0.000003756822     0.000005674696    -0.000003839727
      16       -0.000014814769    -0.000006513380    -0.000001606519
      17        0.000001910066     0.000001242780     0.000004499849

  **** Optimization is complete! (in 6 steps) ****
    Final optimized geometry and variables:
    Molecular point group: c1

    Geometry (in Angstrom), charge = 0, multiplicity = 1:

    H           -2.746948431837    -1.206496069966    -0.795475270317
    O           -2.713726899787    -0.672241552973    -0.020003196446
    C           -1.611907629533     0.113799209641     0.005309142552
    C           -0.310124310774    -0.649022912471     0.001390618574
    O           -1.709060147092     1.282794929284     0.044876817052
    C            0.928644058293     0.234763638099     0.004533180277
    H           -0.313478210384    -1.305762870700    -0.865843659925
    H           -0.327890531093    -1.306035928399     0.865292445607
    C            2.222505735838    -0.574099922686     0.006147478786
    H            0.904077529741     0.888248998567    -0.860400562024
    H            0.898405224253     0.883468807618     0.872255401201
    C            3.468423641145     0.304770115634     0.011309584152
    H            2.244961721310    -1.224398006003    -0.864612783416
    H            2.239575557849    -1.227583159691     0.874318090801
    H            3.497696690190     0.946331393720    -0.862770217834
    H            4.370745873064    -0.295375560597     0.012324627828
    H            3.492872733189     0.942067634747     0.888542552099

  Mulliken Charges: (a.u.)
   Center  Symbol    Alpha    Beta     Spin     Total
       1     H     0.38939  0.38939  0.00000  0.22122
       2     O     4.16460  4.16460  0.00000 -0.32920
       3     C     2.80142  2.80142  0.00000  0.39716
       4     C     3.12202  3.12202  0.00000 -0.24403
       5     O     4.16238  4.16238  0.00000 -0.32477
       6     C     3.08437  3.08437  0.00000 -0.16875
       7     H     0.45108  0.45108  0.00000  0.09784
       8     H     0.43541  0.43541  0.00000  0.12919
       9     C     3.08629  3.08629  0.00000 -0.17259
      10     H     0.44631  0.44631  0.00000  0.10739
      11     H     0.44325  0.44325  0.00000  0.11349
      12     C     3.14923  3.14923  0.00000 -0.29846
      13     H     0.45564  0.45564  0.00000  0.08872
      14     H     0.45431  0.45431  0.00000  0.09137
      15     H     0.45361  0.45361  0.00000  0.09278
      16     H     0.44778  0.44778  0.00000  0.10444
      17     H     0.45289  0.45289  0.00000  0.09421

   Total alpha = 28.00000, Total beta = 28.00000, Total charge = -0.00000

*** Psi4 exiting successfully. Buy a developer a beer!
