  ==> Input File <==

--------------------------------------------------------------------------
set {
	reference rhf
	basis 6-31G*
}

set_num_threads( 1 )
memory 2 gb

molecule MOL {
0 1

H	 -2.655730	 -1.448769	 -0.524072
N	 -1.741080	 -1.336640	 -0.131877
C	 -1.431924	 0.069367	 0.059627
H	 -1.088283	 -1.737456	 -0.777099
C	 -0.031964	 0.219645	 0.616999
H	 -1.504292	 0.662940	 -0.852752
H	 -2.134974	 0.484872	 0.775068
O	 0.874168	 -0.245412	 -0.342030
H	 0.171189	 1.265104	 0.848044
H	 0.060307	 -0.357483	 1.534411
C	 2.202317	 -0.244239	 0.074611
H	 2.711377	 -1.041390	 -0.449894
H	 2.692099	 0.699270	 -0.159667
H	 2.283185	 -0.418429	 1.145558

	symmetry c1
}
set optking {
	frozen_dihedral = ("
		8 5 3 6,
		6 3 2 4,
		11 8 5 3
	")
}

ee = energy('scf')
oeprop('DIPOLE', 'QUADRUPOLE', 'MULLIKEN_CHARGES')
f=open( 'psi4out.xyz', 'w' )
f.write( "14  " )
f.write( str(ee) + "\n" )
f.write( MOL.save_string_xyz() )
f.close()
--------------------------------------------------------------------------

    Molecular point group: c1

    Geometry (in Angstrom), charge = 0, multiplicity = 1:

       Center              X                  Y                   Z               Mass
    ------------   -----------------  -----------------  -----------------  -----------------
           H         -2.642435218939    -1.128910401999    -0.567353377462     1.007825032070
           N         -1.727785218939    -1.016781401999    -0.175158377462    14.003074004780
           C         -1.418629218939     0.389225598001     0.016345622538    12.000000000000
           H         -1.074988218939    -1.417597401999    -0.820380377462     1.007825032070
           C         -0.018669218939     0.539503598001     0.573717622538    12.000000000000
           H         -1.490997218939     0.982798598001    -0.896033377462     1.007825032070
           H         -2.121679218939     0.804730598001     0.731786622538     1.007825032070
           O          0.887462781061     0.074446598001    -0.385311377462    15.994914619560
           H          0.184483781061     1.584962598001     0.804762622538     1.007825032070
           H          0.073601781061    -0.037624401999     1.491129622538     1.007825032070
           C          2.215611781061     0.075619598001     0.031329622538    12.000000000000
           H          2.724671781061    -0.721531401999    -0.493175377462     1.007825032070
           H          2.705393781061     1.019128598001    -0.202948377462     1.007825032070
           H          2.296479781061    -0.098570401999     1.102276622538     1.007825032070

  Charge       = 0
  Multiplicity = 1
  Basis Set: 6-31G*
  Basis Set:

    Orbital Energies (a.u.)
    -----------------------

    Doubly Occupied:

       1A    -20.556295     2A    -15.528423     3A    -11.265904
       4A    -11.265680     5A    -11.240621     6A     -1.381025
       7A     -1.173579     8A     -0.998786     9A     -0.907118
      10A     -0.815831    11A     -0.682912    12A     -0.673592
      13A     -0.644852    14A     -0.610032    15A     -0.605773
      16A     -0.539866    17A     -0.531785    18A     -0.495998
      19A     -0.473980    20A     -0.415262    21A     -0.380069

  @DF-RHF Final Energy:  -248.12329757512038

   => Energetics <=

    Nuclear Repulsion Energy =            194.6919515604687945
    One-Electron Energy =                -723.2556789274165112
    Two-Electron Energy =                 280.4404297918278530
    DFT Exchange-Correlation Energy =       0.0000000000000000
    Empirical Dispersion Energy =           0.0000000000000000
    PCM Polarization Energy =               0.0000000000000000
    EFP Energy =                            0.0000000000000000
    Total Energy =                       -248.1232975751198069

  Mulliken Charges: (a.u.)
   Center  Symbol    Alpha    Beta     Spin     Total
       1     H     0.33281  0.33281  0.00000  0.33438
       2     N     3.92532  3.92532  0.00000 -0.85065
       3     C     3.06909  3.06909  0.00000 -0.13817
       4     H     0.32373  0.32373  0.00000  0.35255
       5     C     2.99106  2.99106  0.00000  0.01788
       6     H     0.42656  0.42656  0.00000  0.14689
       7     H     0.42050  0.42050  0.00000  0.15900
       8     O     4.31063  4.31063  0.00000 -0.62125
       9     H     0.43125  0.43125  0.00000  0.13750
      10     H     0.42161  0.42161  0.00000  0.15677
      11     C     3.07723  3.07723  0.00000 -0.15446
      12     H     0.41468  0.41468  0.00000  0.17064
      13     H     0.42658  0.42658  0.00000  0.14684
      14     H     0.42896  0.42896  0.00000  0.14208

   Total alpha = 21.00000, Total beta = 21.00000, Total charge =  0.00000
