  ==> Input File <==

--------------------------------------------------------------------------
set {
	reference rhf
	basis 6-31G*
}

set_num_threads( 4 )
memory 2 gb

molecule MOL {
0 1

H	 -3.161837	 0.500524	 -0.000234
C	 -2.367097	 -0.232926	 -0.000000
O	 -1.158440	 0.455814	 -0.000122
H	 -2.468853	 -0.861886	 -0.882833
H	 -2.468942	 -0.861421	 0.883154
C	 -0.029776	 -0.365156	 0.000148
C	 1.212217	 0.508981	 0.000007
H	 -0.036772	 -1.013236	 -0.877259
H	 -0.036869	 -1.012778	 0.877897
C	 0.965430	 1.875107	 0.638503
H	 2.002046	 -0.015075	 0.529342
H	 1.548485	 0.629245	 -1.025254
H	 0.651052	 1.777799	 1.673936
H	 1.867406	 2.477676	 0.624511
H	 0.193663	 2.426521	 0.108672

	symmetry c1
}
set optking {
	frozen_dihedral = ("
		11 7 6 8
	")
}

ee = optimize('scf')
oeprop('DIPOLE', 'QUADRUPOLE', 'MULLIKEN_CHARGES')
f=open( 'psi4out.xyz', 'w' )
f.write( "15  " )
f.write( str(ee) + "\n" )
f.write( MOL.save_string_xyz() )
f.close()
--------------------------------------------------------------------------

    Molecular point group: c1
  Charge       = 0
  Multiplicity = 1
  Basis Set: 6-31G*
  Basis Set:
  @DF-RHF Final Energy:  -232.13354750831522
    Total Energy =                       -232.1335475083150186
    Molecular point group: c1
  Basis Set: 6-31G*
  Basis Set:
  Basis Set: 6-31G*
  Basis Set:
  @DF-RHF Final Energy:  -232.13415170502793
    Total Energy =                       -232.1341517050279890
  Basis Set: 6-31G*
  Basis Set:
  Basis Set: 6-31G*
  Basis Set:
  @DF-RHF Final Energy:  -232.13488011816244
    Total Energy =                       -232.1348801181624140
  Basis Set: 6-31G*
  Basis Set:
  Basis Set: 6-31G*
  Basis Set:
  @DF-RHF Final Energy:  -232.13490144116727
    Total Energy =                       -232.1349014411673579
  Basis Set: 6-31G*
  Basis Set:
  Basis Set: 6-31G*
  Basis Set:
  @DF-RHF Final Energy:  -232.13490779994714
    Total Energy =                       -232.1349077999471433
  Basis Set: 6-31G*
  Basis Set:
  Charge       = 0
  Multiplicity = 1
  Basis Set: 6-31G*
  Basis Set:

    Orbital Energies (a.u.)
    -----------------------

    Doubly Occupied:

       1A    -20.553059     2A    -11.267406     3A    -11.264300
       4A    -11.215660     5A    -11.200308     6A     -1.377946
       7A     -1.050117     8A     -0.947904     9A     -0.888556
      10A     -0.793870    11A     -0.673638    12A     -0.656257
      13A     -0.633505    14A     -0.600847    15A     -0.552790
      16A     -0.543750    17A     -0.502184    18A     -0.482434
      19A     -0.473947    20A     -0.458447    21A     -0.411815

  @DF-RHF Final Energy:  -232.13490910418227

   => Energetics <=

    Nuclear Repulsion Energy =            193.5382494430798488
    One-Electron Energy =                -698.2488373700159627
    Two-Electron Energy =                 272.5756788227540142
    DFT Exchange-Correlation Energy =       0.0000000000000000
    Empirical Dispersion Energy =           0.0000000000000000
    PCM Polarization Energy =               0.0000000000000000
    EFP Energy =                            0.0000000000000000
    Total Energy =                       -232.1349091041820998
    Molecular point group: c1
  Basis Set: 6-31G*
  Basis Set:

  -Total Gradient:
     Atom            X                  Y                   Z
    ------   -----------------  -----------------  -----------------
       1        0.000023337762     0.000012574752    -0.000000730357
       2        0.000003876042    -0.000022810617     0.000004484678
       3        0.000012952817     0.000032642905    -0.000008026234
       4        0.000006817473     0.000004407916    -0.000003716584
       5        0.000002663370     0.000002115800     0.000003500000
       6        0.003534754490    -0.004826961564     0.005280524602
       7        0.001361799423    -0.002313323276    -0.007359576670
       8       -0.003186938966     0.004365832148    -0.003290607910
       9        0.000024858622    -0.000021388219    -0.000001387795
      10       -0.000002579411    -0.000013062743     0.000017718035
      11       -0.001776548444     0.002770946917     0.005357083537
      12        0.000007227017    -0.000008958811    -0.000011915258
      13       -0.000001975946     0.000013959521     0.000011705708
      14       -0.000009736651     0.000007615278     0.000003157742
      15       -0.000000507598    -0.000003590006    -0.000002213493

  **** Optimization is complete! (in 6 steps) ****
    Final optimized geometry and variables:
    Molecular point group: c1

    Geometry (in Angstrom), charge = 0, multiplicity = 1:

    H           -2.883661905697    -0.005019809757    -0.174888698014
    C           -2.069507220347    -0.716224907431    -0.141792037811
    O           -0.880135825214     0.003750158879    -0.149298384184
    H           -2.143383730750    -1.375767700338    -1.005046742942
    H           -2.165830101949    -1.319332356243     0.759676857843
    C            0.269234673227    -0.794015437781    -0.102119003213
    C            1.520306144578     0.088888253489    -0.149605298682
    H            0.251266218870    -1.458648478217    -0.964798142015
    H            0.257797005677    -1.399153725664     0.803157155156
    C            1.338580108118     1.448438469277     0.530693899118
    H            2.315307338908    -0.431649997735     0.378019879476
    H            1.837807996219     0.234550879249    -1.176677698047
    H            1.021517506222     1.331087704250     1.562396121778
    H            2.277918376591     1.993293835225     0.530170314435
    H            0.594923506382     2.048609049193     0.024114953326

  Mulliken Charges: (a.u.)
   Center  Symbol    Alpha    Beta     Spin     Total
       1     H     0.41229  0.41229  0.00000  0.17542
       2     C     3.07874  3.07874  0.00000 -0.15747
       3     O     4.30513  4.30513  0.00000 -0.61025
       4     H     0.43079  0.43079  0.00000  0.13842
       5     H     0.43056  0.43056  0.00000  0.13888
       6     C     2.98635  2.98635  0.00000  0.02731
       7     C     3.16790  3.16790  0.00000 -0.33580
       8     H     0.42968  0.42968  0.00000  0.14063
       9     H     0.43102  0.43102  0.00000  0.13795
      10     C     3.23376  3.23376  0.00000 -0.46751
      11     H     0.42162  0.42162  0.00000  0.15676
      12     H     0.41738  0.41738  0.00000  0.16523
      13     H     0.42213  0.42213  0.00000  0.15573
      14     H     0.42453  0.42453  0.00000  0.15095
      15     H     0.40812  0.40812  0.00000  0.18376

   Total alpha = 21.00000, Total beta = 21.00000, Total charge =  0.00000
