  ==> Input File <==

--------------------------------------------------------------------------
set {
	reference rhf
	basis 6-31G*
}

set_num_threads( 4 )
memory 2 gb

molecule MOL {
0 1

H	 -3.135461	 -1.215070	 0.001379
O	 -2.310168	 -0.871793	 -0.309793
C	 -2.026376	 0.340750	 0.341611
C	 -0.673256	 0.843270	 -0.132153
H	 -2.792215	 1.080697	 0.115987
H	 -2.013526	 0.200402	 1.421792
C	 0.486613	 -0.083066	 0.235839
H	 -0.715586	 0.970948	 -1.210718
H	 -0.508072	 1.829858	 0.297090
C	 1.265848	 -0.576057	 -0.984640
H	 0.101145	 -0.932629	 0.790067
H	 1.165785	 0.442081	 0.906501
C	 2.428536	 -1.497090	 -0.616497
H	 0.588846	 -1.101472	 -1.654956
H	 1.645363	 0.277784	 -1.542643
H	 2.076937	 -2.378176	 -0.087389
H	 2.961141	 -1.832693	 -1.501170
H	 3.142303	 -0.989652	 0.026585

	symmetry c1
}
set optking {
	frozen_dihedral = ("
		10 7 4 8
	")
}

ee = optimize('scf')
oeprop('DIPOLE', 'QUADRUPOLE', 'MULLIKEN_CHARGES')
f=open( 'psi4out.xyz', 'w' )
f.write( "18  " )
f.write( str(ee) + "\n" )
f.write( MOL.save_string_xyz() )
f.close()
--------------------------------------------------------------------------

    Molecular point group: c1
  Charge       = 0
  Multiplicity = 1
  Basis Set: 6-31G*
  Basis Set:
  @DF-RHF Final Energy:  -271.17492676859536
    Total Energy =                       -271.1749267685952418
    Molecular point group: c1
  Basis Set: 6-31G*
  Basis Set:
  Basis Set: 6-31G*
  Basis Set:
  @DF-RHF Final Energy:  -271.17515833504558
    Total Energy =                       -271.1751583350455235
  Basis Set: 6-31G*
  Basis Set:
  Basis Set: 6-31G*
  Basis Set:
  @DF-RHF Final Energy:  -271.17524672026195
    Total Energy =                       -271.1752467202619528
  Basis Set: 6-31G*
  Basis Set:
  Charge       = 0
  Multiplicity = 1
  Basis Set: 6-31G*
  Basis Set:

    Orbital Energies (a.u.)
    -----------------------

    Doubly Occupied:

       1A    -20.553807     2A    -11.268198     3A    -11.211568
       4A    -11.206798     5A    -11.206191     6A    -11.201700
       7A     -1.360410     8A     -1.071021     9A     -1.006655
      10A     -0.911512    11A     -0.817947    12A     -0.782087
      13A     -0.705391    14A     -0.640975    15A     -0.620347
      16A     -0.579277    17A     -0.568454    18A     -0.557697
      19A     -0.520665    20A     -0.500038    21A     -0.487233
      22A     -0.465315    23A     -0.451879    24A     -0.446318
      25A     -0.429548

  @DF-RHF Final Energy:  -271.17524745473645

   => Energetics <=

    Nuclear Repulsion Energy =            251.8333269830451400
    One-Electron Energy =                -866.8750902936435523
    Two-Electron Energy =                 343.8665158558618486
    DFT Exchange-Correlation Energy =       0.0000000000000000
    Empirical Dispersion Energy =           0.0000000000000000
    PCM Polarization Energy =               0.0000000000000000
    EFP Energy =                            0.0000000000000000
    Total Energy =                       -271.1752474547365637
    Molecular point group: c1
  Basis Set: 6-31G*
  Basis Set:

  -Total Gradient:
     Atom            X                  Y                   Z
    ------   -----------------  -----------------  -----------------
       1        0.000005801477     0.000010642548     0.000021899886
       2        0.000183152069    -0.000049791786     0.000104378707
       3       -0.000156580605     0.000077703000    -0.000180809682
       4       -0.000166681201    -0.000166096954     0.000125270277
       5       -0.000003284027     0.000059754775     0.000023278644
       6        0.000014567337    -0.000033799284    -0.000032349265
       7        0.000202223036     0.000191479392    -0.000077684918
       8        0.000055016713     0.000056081333     0.000038606365
       9        0.000039451899    -0.000031342533     0.000007967720
      10       -0.000025352841    -0.000085372652    -0.000089290986
      11       -0.000076729743    -0.000053065442     0.000042466212
      12       -0.000059528555     0.000015297257     0.000014758218
      13       -0.000029209900    -0.000005496619     0.000009198244
      14        0.000002679625     0.000036805687    -0.000015822238
      15        0.000027471260    -0.000006966270     0.000001717828
      16        0.000008642214    -0.000014782985     0.000013045812
      17       -0.000018479703     0.000000033238    -0.000000131121
      18       -0.000003159050    -0.000001082704    -0.000006499703

  **** Optimization is complete! (in 4 steps) ****
    Final optimized geometry and variables:
    Molecular point group: c1

    Geometry (in Angstrom), charge = 0, multiplicity = 1:

    H           -2.913905731965    -0.911822220653     0.259595479164
    O           -2.104125838209    -0.543808444757    -0.063945649896
    C           -1.846084679688     0.678062441458     0.580870203721
    C           -0.495082285834     1.188810728038     0.111404865163
    H           -2.620418854037     1.405497067827     0.343581220220
    H           -1.839256052901     0.544862215813     1.661897262738
    C            0.678180190575     0.252815537852     0.474143773541
    H           -0.548049028037     1.322593420948    -0.965118827959
    H           -0.341511662858     2.176857552976     0.537233563020
    C            1.458627554584    -0.243768520835    -0.744670859338
    H            0.299094093999    -0.609117133637     1.015079711776
    H            1.360855328934     0.762297719387     1.150053056368
    C            2.611038330762    -1.175881756390    -0.374782013805
    H            0.772964302506    -0.757742287441    -1.412957190767
    H            1.847537855484     0.609649265421    -1.297106674716
    H            2.249323380107    -2.055712507817     0.150047222830
    H            3.143157432874    -1.514254138673    -1.258717498150
    H            3.328297050607    -0.677711963271     0.272060793337

  Mulliken Charges: (a.u.)
   Center  Symbol    Alpha    Beta     Spin     Total
       1     H     0.28054  0.28054  0.00000  0.43891
       2     O     4.36942  4.36942  0.00000 -0.73884
       3     C     3.00027  3.00027  0.00000 -0.00055
       4     C     3.16302  3.16302  0.00000 -0.32604
       5     H     0.42960  0.42960  0.00000  0.14080
       6     H     0.43239  0.43239  0.00000  0.13521
       7     C     3.15242  3.15242  0.00000 -0.30484
       8     H     0.41244  0.41244  0.00000  0.17513
       9     H     0.42122  0.42122  0.00000  0.15756
      10     C     3.15398  3.15398  0.00000 -0.30796
      11     H     0.41401  0.41401  0.00000  0.17198
      12     H     0.42499  0.42499  0.00000  0.15003
      13     C     3.24030  3.24030  0.00000 -0.48059
      14     H     0.41395  0.41395  0.00000  0.17209
      15     H     0.42578  0.42578  0.00000  0.14844
      16     H     0.42140  0.42140  0.00000  0.15719
      17     H     0.42041  0.42041  0.00000  0.15918
      18     H     0.42385  0.42385  0.00000  0.15231

   Total alpha = 25.00000, Total beta = 25.00000, Total charge = -0.00000
