  ==> Input File <==

--------------------------------------------------------------------------
set {
	reference rhf
	basis 6-31G*
}

set_num_threads( 1 )
memory 2 gb

molecule MOL {
0 1

H	 3.276176	 0.174363	 -0.109463
N	 2.434251	 -0.367735	 -0.081097
C	 1.267428	 0.496480	 0.024474
H	 2.501951	 -0.965776	 0.720575
C	 -0.016086	 -0.325158	 -0.029487
H	 1.288818	 1.183521	 -0.816092
H	 1.267576	 1.109062	 0.929528
C	 -1.282277	 0.529072	 0.046735
H	 -0.012495	 -0.908639	 -0.945788
H	 -0.015903	 -1.041248	 0.791956
C	 -2.235436	 0.081575	 1.154406
H	 -1.800159	 0.491845	 -0.909508
H	 -1.009968	 1.570481	 0.205709
H	 -2.554322	 -0.945863	 1.004733
H	 -3.124738	 0.703516	 1.183621
H	 -1.758642	 0.139987	 2.128817

	symmetry c1
}
set optking {
	frozen_dihedral = ("
		6 3 5 9,
		1 2 3 6
	")
}

ee = energy('scf')
oeprop('DIPOLE', 'QUADRUPOLE', 'MULLIKEN_CHARGES')
f=open( 'psi4out.xyz', 'w' )
f.write( "16  " )
f.write( str(ee) + "\n" )
f.write( MOL.save_string_xyz() )
f.close()
--------------------------------------------------------------------------

    Molecular point group: c1

    Geometry (in Angstrom), charge = 0, multiplicity = 1:

       Center              X                  Y                   Z               Mass
    ------------   -----------------  -----------------  -----------------  -----------------
           H          3.208674256843     0.095592317849    -0.348003980207     1.007825032070
           N          2.366749256843    -0.446505682151    -0.319637980207    14.003074004780
           C          1.199926256843     0.417709317849    -0.214066980207    12.000000000000
           H          2.434449256843    -1.044546682151     0.482034019793     1.007825032070
           C         -0.083587743157    -0.403928682151    -0.268027980207    12.000000000000
           H          1.221316256843     1.104750317849    -1.054632980207     1.007825032070
           H          1.200074256843     1.030291317849     0.690987019793     1.007825032070
           C         -1.349778743157     0.450301317849    -0.191805980207    12.000000000000
           H         -0.079996743157    -0.987409682151    -1.184328980207     1.007825032070
           H         -0.083404743157    -1.120018682151     0.553415019793     1.007825032070
           C         -2.302937743157     0.002804317849     0.915865019793    12.000000000000
           H         -1.867660743157     0.413074317849    -1.148048980207     1.007825032070
           H         -1.077469743157     1.491710317849    -0.032831980207     1.007825032070
           H         -2.621823743157    -1.024633682151     0.766192019793     1.007825032070
           H         -3.192239743157     0.624745317849     0.945080019793     1.007825032070
           H         -1.826143743157     0.061216317849     1.890276019793     1.007825032070

  Charge       = 0
  Multiplicity = 1
  Basis Set: 6-31G*
  Basis Set:

    Orbital Energies (a.u.)
    -----------------------

    Doubly Occupied:

       1A    -15.532424     2A    -11.240479     3A    -11.213673
       4A    -11.208620     5A    -11.208039     6A     -1.176711
       7A     -1.059773     8A     -0.957800     9A     -0.846296
      10A     -0.791061    11A     -0.661410    12A     -0.637900
      13A     -0.600288    14A     -0.586832    15A     -0.562171
      16A     -0.519248    17A     -0.509859    18A     -0.470113
      19A     -0.459793    20A     -0.457941    21A     -0.381457

  @DF-RHF Final Energy:  -212.31170411134835

   => Energetics <=

    Nuclear Repulsion Energy =            187.0154225595178730
    One-Electron Energy =                -656.4905700765264100
    Two-Electron Energy =                 257.1634434056601890
    DFT Exchange-Correlation Energy =       0.0000000000000000
    Empirical Dispersion Energy =           0.0000000000000000
    PCM Polarization Energy =               0.0000000000000000
    EFP Energy =                            0.0000000000000000
    Total Energy =                       -212.3117041113483197

  Mulliken Charges: (a.u.)
   Center  Symbol    Alpha    Beta     Spin     Total
       1     H     0.33259  0.33259  0.00000  0.33483
       2     N     3.92190  3.92190  0.00000 -0.84381
       3     C     3.06356  3.06356  0.00000 -0.12712
       4     H     0.33524  0.33524  0.00000  0.32951
       5     C     3.15329  3.15329  0.00000 -0.30659
       6     H     0.42029  0.42029  0.00000  0.15942
       7     H     0.43453  0.43453  0.00000  0.13094
       8     C     3.15810  3.15810  0.00000 -0.31619
       9     H     0.41086  0.41086  0.00000  0.17829
      10     H     0.42513  0.42513  0.00000  0.14973
      11     C     3.24018  3.24018  0.00000 -0.48036
      12     H     0.41884  0.41884  0.00000  0.16233
      13     H     0.42146  0.42146  0.00000  0.15707
      14     H     0.42063  0.42063  0.00000  0.15873
      15     H     0.42064  0.42064  0.00000  0.15872
      16     H     0.42275  0.42275  0.00000  0.15450

   Total alpha = 21.00000, Total beta = 21.00000, Total charge = -0.00000
