  ==> Input File <==

--------------------------------------------------------------------------
set {
	reference rhf
	basis 6-31G*
}

set_num_threads( 1 )
memory 2 gb

molecule MOL {
0 1

H	 -2.586843	 0.503216	 -3.716446
C	 -1.812707	 0.467647	 -2.970636
C	 -1.642107	 1.533500	 -2.100003
C	 -0.988952	 -0.643519	 -2.883051
H	 -2.281651	 2.394655	 -2.169005
C	 -0.646506	 1.487034	 -1.141305
H	 -1.122691	 -1.468791	 -3.558806
C	 0.008320	 -0.692231	 -1.924172
H	 -0.499988	 2.302536	 -0.459278
C	 0.181868	 0.374379	 -1.050109
H	 0.648070	 -1.550106	 -1.852808
C	 1.239129	 0.373821	 0.000060
O	 1.970282	 -0.730723	 0.000018
O	 1.417193	 1.268790	 0.765687
C	 3.377318	 -0.566646	 -0.000065
H	 3.695437	 -0.028981	 -0.881264
H	 3.789299	 -1.563704	 0.000236
H	 3.695516	 -0.028316	 0.880770

	symmetry c1
}
set optking {
	frozen_dihedral = ("
		12 13 15 16,
		13 12 10 6
	")
}

ee = energy('scf')
oeprop('DIPOLE', 'QUADRUPOLE', 'MULLIKEN_CHARGES')
f=open( 'psi4out.xyz', 'w' )
f.write( "18  " )
f.write( str(ee) + "\n" )
f.write( MOL.save_string_xyz() )
f.close()
--------------------------------------------------------------------------

    Molecular point group: c1

    Geometry (in Angstrom), charge = 0, multiplicity = 1:

       Center              X                  Y                   Z               Mass
    ------------   -----------------  -----------------  -----------------  -----------------
           H         -2.999607711157     0.229945975618    -2.654850972139     1.007825032070
           C         -2.225471711157     0.194376975618    -1.909040972139    12.000000000000
           C         -2.054871711157     1.260229975618    -1.038407972139    12.000000000000
           C         -1.401716711157    -0.916789024382    -1.821455972139    12.000000000000
           H         -2.694415711157     2.121384975618    -1.107409972139     1.007825032070
           C         -1.059270711157     1.213763975618    -0.079709972139    12.000000000000
           H         -1.535455711157    -1.742061024382    -2.497210972139     1.007825032070
           C         -0.404444711157    -0.965501024382    -0.862576972139    12.000000000000
           H         -0.912752711157     2.029265975618     0.602317027861     1.007825032070
           C         -0.230896711157     0.101108975618     0.011486027861    12.000000000000
           H          0.235305288843    -1.823376024382    -0.791212972139     1.007825032070
           C          0.826364288843     0.100550975618     1.061655027861    12.000000000000
           O          1.557517288843    -1.003993024382     1.061613027861    15.994914619560
           O          1.004428288843     0.995519975618     1.827282027861    15.994914619560
           C          2.964553288843    -0.839916024382     1.061530027861    12.000000000000
           H          3.282672288843    -0.302251024382     0.180331027861     1.007825032070
           H          3.376534288843    -1.836974024382     1.061831027861     1.007825032070
           H          3.282751288843    -0.301586024382     1.942365027861     1.007825032070

  Charge       = 0
  Multiplicity = 1
  Basis Set: 6-31G*
  Basis Set:

    Orbital Energies (a.u.)
    -----------------------

    Doubly Occupied:

       1A    -20.596277     2A    -20.548287     3A    -11.377955
       4A    -11.288009     5A    -11.246845     6A    -11.246130
       7A    -11.244648     8A    -11.242567     9A    -11.238605
      10A    -11.237737    11A     -1.468725    12A     -1.364649
      13A     -1.166145    14A     -1.046791    15A     -1.025917
      16A     -0.979023    17A     -0.864290    18A     -0.835654
      19A     -0.778604    20A     -0.739373    21A     -0.682954
      22A     -0.675888    23A     -0.668755    24A     -0.633815
      25A     -0.624979    26A     -0.601329    27A     -0.594208
      28A     -0.560196    29A     -0.526677    30A     -0.517978
      31A     -0.501676    32A     -0.498059    33A     -0.458148
      34A     -0.442253    35A     -0.346157    36A     -0.342067

  @DF-RHF Final Energy:  -457.33934609628187

   => Energetics <=

    Nuclear Repulsion Energy =            494.1795305663109161
    One-Electron Energy =               -1602.6148118254882320
    Two-Electron Energy =                 651.0959351628955574
    DFT Exchange-Correlation Energy =       0.0000000000000000
    Empirical Dispersion Energy =           0.0000000000000000
    PCM Polarization Energy =               0.0000000000000000
    EFP Energy =                            0.0000000000000000
    Total Energy =                       -457.3393460962818153

  Mulliken Charges: (a.u.)
   Center  Symbol    Alpha    Beta     Spin     Total
       1     H     0.39502  0.39502  0.00000  0.20996
       2     C     3.08964  3.08964  0.00000 -0.17929
       3     C     3.10701  3.10701  0.00000 -0.21402
       4     C     3.10690  3.10690  0.00000 -0.21379
       5     H     0.39517  0.39517  0.00000  0.20966
       6     C     3.08617  3.08617  0.00000 -0.17234
       7     H     0.39616  0.39616  0.00000  0.20768
       8     C     3.08798  3.08798  0.00000 -0.17595
       9     H     0.37590  0.37590  0.00000  0.24820
      10     C     3.07959  3.07959  0.00000 -0.15919
      11     H     0.38205  0.38205  0.00000  0.23591
      12     C     2.58349  2.58349  0.00000  0.83302
      13     O     4.31705  4.31705  0.00000 -0.63410
      14     O     4.27932  4.27932  0.00000 -0.55864
      15     C     3.09590  3.09590  0.00000 -0.19179
      16     H     0.41543  0.41543  0.00000  0.16915
      17     H     0.40578  0.40578  0.00000  0.18843
      18     H     0.40145  0.40145  0.00000  0.19710

   Total alpha = 36.00000, Total beta = 36.00000, Total charge =  0.00000
