  ==> Input File <==

--------------------------------------------------------------------------
set {
	reference rhf
	basis 6-31G*
}

set_num_threads( 1 )
memory 2 gb

molecule MOL {
0 1

H	 -0.000158	 1.970498	 0.756846
O	 -0.000074	 1.880206	 -0.189275
C	 -0.000015	 0.544847	 -0.545111
C	 -1.278788	 -0.123820	 -0.051541
C	 1.278802	 -0.123718	 -0.051505
H	 -0.000001	 0.490777	 -1.623619
F	 -1.428684	 0.104498	 1.235684
F	 -2.348628	 0.325992	 -0.672403
F	 -1.221394	 -1.434603	 -0.225181
F	 2.323327	 0.466644	 -0.591854
F	 1.326242	 -1.401483	 -0.363667
F	 1.388946	 -0.015632	 1.262939

	symmetry c1
}
set optking {
	frozen_dihedral = ("
		6 3 2 1
	")
}

ee = energy('scf')
oeprop('DIPOLE', 'QUADRUPOLE', 'MULLIKEN_CHARGES')
f=open( 'psi4out.xyz', 'w' )
f.write( "12  " )
f.write( str(ee) + "\n" )
f.write( MOL.save_string_xyz() )
f.close()
--------------------------------------------------------------------------

    Molecular point group: c1

    Geometry (in Angstrom), charge = 0, multiplicity = 1:

       Center              X                  Y                   Z               Mass
    ------------   -----------------  -----------------  -----------------  -----------------
           H         -0.004651733001     1.976521762182     0.753364268839     1.007825032070
           O         -0.004567733001     1.886229762182    -0.192756731161    15.994914619560
           C         -0.004508733001     0.550870762182    -0.548592731161    12.000000000000
           C         -1.283281733001    -0.117796237818    -0.055022731161    12.000000000000
           C          1.274308266999    -0.117694237818    -0.054986731161    12.000000000000
           H         -0.004494733001     0.496800762182    -1.627100731161     1.007825032070
           F         -1.433177733001     0.110521762182     1.232202268839    18.998403224000
           F         -2.353121733001     0.332015762182    -0.675884731161    18.998403224000
           F         -1.225887733001    -1.428579237818    -0.228662731161    18.998403224000
           F          2.318833266999     0.472667762182    -0.595335731161    18.998403224000
           F          1.321748266999    -1.395459237818    -0.367148731161    18.998403224000
           F          1.384452266999    -0.009608237818     1.259457268839    18.998403224000

  Charge       = 0
  Multiplicity = 1
  Basis Set: 6-31G*
  Basis Set:

    Orbital Energies (a.u.)
    -----------------------

    Doubly Occupied:

       1A    -26.364329     2A    -26.362800     3A    -26.361523
       4A    -26.360000     5A    -26.358205     6A    -26.358184
       7A    -20.616639     8A    -11.526121     9A    -11.525903
      10A    -11.349037    11A     -1.765048    12A     -1.758625
      13A     -1.662220    14A     -1.659279    15A     -1.656854
      16A     -1.653676    17A     -1.435199    18A     -1.101743
      19A     -0.996945    20A     -0.938587    21A     -0.864075
      22A     -0.862437    23A     -0.851738    24A     -0.843974
      25A     -0.832561    26A     -0.816712    27A     -0.744437
      28A     -0.727785    29A     -0.723941    30A     -0.717104
      31A     -0.689095    32A     -0.686492    33A     -0.683275
      34A     -0.673941    35A     -0.668497    36A     -0.663435
      37A     -0.655473    38A     -0.652316    39A     -0.622525
      40A     -0.550611    41A     -0.505904

  @DF-RHF Final Energy:  -786.27712914990059

   => Energetics <=

    Nuclear Repulsion Energy =            671.3124852928618793
    One-Electron Energy =               -2429.4851151710208796
    Two-Electron Energy =                 971.8955007282588667
    DFT Exchange-Correlation Energy =       0.0000000000000000
    Empirical Dispersion Energy =           0.0000000000000000
    PCM Polarization Energy =               0.0000000000000000
    EFP Energy =                            0.0000000000000000
    Total Energy =                       -786.2771291499002473

  Mulliken Charges: (a.u.)
   Center  Symbol    Alpha    Beta     Spin     Total
       1     H     0.26517  0.26517  0.00000  0.46965
       2     O     4.36395  4.36395  0.00000 -0.72790
       3     C     3.04775  3.04775  0.00000 -0.09549
       4     C     2.44342  2.44342  0.00000  1.11316
       5     C     2.44524  2.44524  0.00000  1.10951
       6     H     0.37559  0.37559  0.00000  0.24882
       7     F     4.67851  4.67851  0.00000 -0.35701
       8     F     4.67384  4.67384  0.00000 -0.34767
       9     F     4.67758  4.67758  0.00000 -0.35517
      10     F     4.67486  4.67486  0.00000 -0.34972
      11     F     4.67330  4.67330  0.00000 -0.34661
      12     F     4.68079  4.68079  0.00000 -0.36157

   Total alpha = 41.00000, Total beta = 41.00000, Total charge = -0.00000
