  ==> Input File <==

--------------------------------------------------------------------------
set {
	reference rhf
	basis 6-31G*
}

set_num_threads( 4 )
memory 2 gb

molecule MOL {
0 1

H	 -0.000158	 1.970498	 0.756846
O	 -0.000074	 1.880206	 -0.189275
C	 -0.000015	 0.544847	 -0.545111
C	 -1.278788	 -0.123820	 -0.051541
C	 1.278802	 -0.123718	 -0.051505
H	 -0.000001	 0.490777	 -1.623619
F	 -1.428684	 0.104498	 1.235684
F	 -2.348628	 0.325992	 -0.672403
F	 -1.221394	 -1.434603	 -0.225181
F	 2.323327	 0.466644	 -0.591854
F	 1.326242	 -1.401483	 -0.363667
F	 1.388946	 -0.015632	 1.262939

	symmetry c1
}
set optking {
	frozen_dihedral = ("
		7 4 3 6
	")
}

ee = optimize('scf')
oeprop('DIPOLE', 'QUADRUPOLE', 'MULLIKEN_CHARGES')
f=open( 'psi4out.xyz', 'w' )
f.write( "12  " )
f.write( str(ee) + "\n" )
f.write( MOL.save_string_xyz() )
f.close()
--------------------------------------------------------------------------

    Molecular point group: c1
  Charge       = 0
  Multiplicity = 1
  Basis Set: 6-31G*
  Basis Set:
  @DF-RHF Final Energy:  -786.27712917098677
    Total Energy =                       -786.2771291709865409
    Molecular point group: c1
  Basis Set: 6-31G*
  Basis Set:
  Basis Set: 6-31G*
  Basis Set:
  @DF-RHF Final Energy:  -786.27778024640543
    Total Energy =                       -786.2777802464049728
  Basis Set: 6-31G*
  Basis Set:
  Basis Set: 6-31G*
  Basis Set:
  @DF-RHF Final Energy:  -786.27795856709417
    Total Energy =                       -786.2779585670944016
  Basis Set: 6-31G*
  Basis Set:
  Basis Set: 6-31G*
  Basis Set:
  @DF-RHF Final Energy:  -786.27798592357010
    Total Energy =                       -786.2779859235695312
  Basis Set: 6-31G*
  Basis Set:
  Basis Set: 6-31G*
  Basis Set:
  @DF-RHF Final Energy:  -786.27798882455011
    Total Energy =                       -786.2779888245505617
  Basis Set: 6-31G*
  Basis Set:
  Charge       = 0
  Multiplicity = 1
  Basis Set: 6-31G*
  Basis Set:

    Orbital Energies (a.u.)
    -----------------------

    Doubly Occupied:

       1A    -26.363346     2A    -26.362867     3A    -26.362670
       4A    -26.361196     5A    -26.358291     6A    -26.357874
       7A    -20.616806     8A    -11.526509     9A    -11.525458
      10A    -11.349303    11A     -1.764830    12A     -1.758835
      13A     -1.662366    14A     -1.657858    15A     -1.657050
      16A     -1.655250    17A     -1.435224    18A     -1.101679
      19A     -0.997066    20A     -0.938452    21A     -0.864041
      22A     -0.862738    23A     -0.852118    24A     -0.844612
      25A     -0.832038    26A     -0.816344    27A     -0.743415
      28A     -0.726970    29A     -0.724496    30A     -0.717987
      31A     -0.688982    32A     -0.686252    33A     -0.683248
      34A     -0.674791    35A     -0.670174    36A     -0.662838
      37A     -0.656839    38A     -0.652881    39A     -0.620396
      40A     -0.551772    41A     -0.505915

  @DF-RHF Final Energy:  -786.27798931892789

   => Energetics <=

    Nuclear Repulsion Energy =            670.4490208014390191
    One-Electron Energy =               -2427.7504671681967920
    Two-Electron Energy =                 971.0234570478294245
    DFT Exchange-Correlation Energy =       0.0000000000000000
    Empirical Dispersion Energy =           0.0000000000000000
    PCM Polarization Energy =               0.0000000000000000
    EFP Energy =                            0.0000000000000000
    Total Energy =                       -786.2779893189283484
    Molecular point group: c1
  Basis Set: 6-31G*
  Basis Set:

  -Total Gradient:
     Atom            X                  Y                   Z
    ------   -----------------  -----------------  -----------------
       1       -0.000000055573    -0.000001996095    -0.000001989122
       2        0.000010564038    -0.000019532586    -0.000013514751
       3        0.000456689127    -0.000851767779     0.000027566064
       4        0.000528544529    -0.000882418387     0.000234077610
       5       -0.000016629063     0.000032533590    -0.000049437818
       6       -0.000480738731     0.000926490802    -0.000075870413
       7       -0.000471140181     0.000719440811    -0.000148291992
       8       -0.000053851467     0.000033427809    -0.000043759843
       9        0.000002974025     0.000085879378     0.000020390188
      10       -0.000014747407    -0.000007993281    -0.000002923102
      11        0.000010151774    -0.000005365915     0.000025159366
      12        0.000028238933    -0.000028698344     0.000028593802

  **** Optimization is complete! (in 6 steps) ****
    Final optimized geometry and variables:
    Molecular point group: c1

    Geometry (in Angstrom), charge = 0, multiplicity = 1:

    H           -0.032541822216     1.981836117275     0.721252901808
    O           -0.012303024925     1.875043079619    -0.222823105330
    C           -0.003613578941     0.533485640756    -0.555609428886
    C           -1.277382682346    -0.130238411625    -0.040154471878
    C            1.280843215899    -0.120647222154    -0.058955869561
    H           -0.012602616309     0.466893236720    -1.633361791751
    F           -1.434460663764     0.103512016505     1.253096277609
    F           -2.320885482133     0.372550661591    -0.666131514733
    F           -1.279480537113    -1.432715381268    -0.225785629819
    F            2.321526637828     0.506349730698    -0.563619477265
    F            1.360615757575    -1.387268950541    -0.408155516097
    F            1.365533792390    -0.049441652141     1.260119918442

  Mulliken Charges: (a.u.)
   Center  Symbol    Alpha    Beta     Spin     Total
       1     H     0.26552  0.26552  0.00000  0.46896
       2     O     4.36304  4.36304  0.00000 -0.72608
       3     C     3.04655  3.04655  0.00000 -0.09310
       4     C     2.44461  2.44461  0.00000  1.11078
       5     C     2.44610  2.44610  0.00000  1.10780
       6     H     0.37497  0.37497  0.00000  0.25005
       7     F     4.68105  4.68105  0.00000 -0.36211
       8     F     4.67548  4.67548  0.00000 -0.35097
       9     F     4.67326  4.67326  0.00000 -0.34652
      10     F     4.67456  4.67456  0.00000 -0.34911
      11     F     4.67398  4.67398  0.00000 -0.34796
      12     F     4.68088  4.68088  0.00000 -0.36176

   Total alpha = 41.00000, Total beta = 41.00000, Total charge =  0.00000
