  ==> Input File <==

--------------------------------------------------------------------------
set {
	reference rhf
	basis 6-31G*
}

set_num_threads( 4 )
memory 2 gb

molecule MOL {
0 1

H	 -2.172150	 0.880146	 0.502514
C	 -2.018062	 -0.000025	 -0.114509
O	 -0.774054	 0.001095	 -0.743181
H	 -2.760490	 0.003458	 -0.901350
H	 -2.173624	 -0.884374	 0.496163
C	 -0.517189	 -0.916453	 -1.791350
C	 0.917318	 -0.597708	 -2.206805
C	 -0.607970	 -2.362776	 -1.294260
C	 -1.466309	 -0.687060	 -2.971886
H	 1.588290	 -0.733336	 -1.366071
H	 0.991015	 0.433498	 -2.533237
H	 1.241976	 -1.242196	 -3.017294
H	 0.012642	 -2.497059	 -0.414579
H	 -0.263162	 -3.046857	 -2.062857
H	 -1.624140	 -2.645527	 -1.041267
H	 -1.448395	 0.355656	 -3.271010
H	 -1.162882	 -1.290840	 -3.820953
H	 -2.489579	 -0.955849	 -2.732509

	symmetry c1
}
set optking {
	frozen_dihedral = ("
		6 3 2 5
	")
}

ee = optimize('scf')
oeprop('DIPOLE', 'QUADRUPOLE', 'MULLIKEN_CHARGES')
f=open( 'psi4out.xyz', 'w' )
f.write( "18  " )
f.write( str(ee) + "\n" )
f.write( MOL.save_string_xyz() )
f.close()
--------------------------------------------------------------------------

    Molecular point group: c1
  Charge       = 0
  Multiplicity = 1
  Basis Set: 6-31G*
  Basis Set:
  @DF-RHF Final Energy:  -271.17242349863949
    Total Energy =                       -271.1724234986395459
    Molecular point group: c1
  Basis Set: 6-31G*
  Basis Set:
  Basis Set: 6-31G*
  Basis Set:
  @DF-RHF Final Energy:  -271.17468640029864
    Total Energy =                       -271.1746864002987536
  Basis Set: 6-31G*
  Basis Set:
  Basis Set: 6-31G*
  Basis Set:
  @DF-RHF Final Energy:  -271.17542279625701
    Total Energy =                       -271.1754227962570098
  Basis Set: 6-31G*
  Basis Set:
  Basis Set: 6-31G*
  Basis Set:
  @DF-RHF Final Energy:  -271.17538244133908
    Total Energy =                       -271.1753824413391953
  Basis Set: 6-31G*
  Basis Set:
  @DF-RHF Final Energy:  -271.17543948101695
    Total Energy =                       -271.1754394810169515
  Basis Set: 6-31G*
  Basis Set:
  @DF-RHF Final Energy:  -271.17545405748552
    Total Energy =                       -271.1754540574855241
  Basis Set: 6-31G*
  Basis Set:
  Basis Set: 6-31G*
  Basis Set:
  @DF-RHF Final Energy:  -271.17545074324340
    Total Energy =                       -271.1754507432432320
  Basis Set: 6-31G*
  Basis Set:
  Basis Set: 6-31G*
  Basis Set:
  @DF-RHF Final Energy:  -271.17545485512437
    Total Energy =                       -271.1754548551243147
  Basis Set: 6-31G*
  Basis Set:
  Charge       = 0
  Multiplicity = 1
  Basis Set: 6-31G*
  Basis Set:

    Orbital Energies (a.u.)
    -----------------------

    Doubly Occupied:

       1A    -20.546813     2A    -11.281280     3A    -11.260641
       4A    -11.209499     5A    -11.207876     6A    -11.203240
       7A     -1.370051     8A     -1.073003     9A     -0.946067
      10A     -0.939524    11A     -0.912454    12A     -0.752337
      13A     -0.655223    14A     -0.644431    15A     -0.637478
      16A     -0.592600    17A     -0.574394    18A     -0.552678
      19A     -0.534327    20A     -0.523909    21A     -0.514668
      22A     -0.487875    23A     -0.486303    24A     -0.438951
      25A     -0.404266

  @DF-RHF Final Energy:  -271.17545520951228

   => Energetics <=

    Nuclear Repulsion Energy =            272.3125800806996040
    One-Electron Energy =                -907.4762954622931375
    Two-Electron Energy =                 363.9882601720813682
    DFT Exchange-Correlation Energy =       0.0000000000000000
    Empirical Dispersion Energy =           0.0000000000000000
    PCM Polarization Energy =               0.0000000000000000
    EFP Energy =                            0.0000000000000000
    Total Energy =                       -271.1754552095121653
    Molecular point group: c1
  Basis Set: 6-31G*
  Basis Set:

  -Total Gradient:
     Atom            X                  Y                   Z
    ------   -----------------  -----------------  -----------------
       1       -0.000010926771     0.000001108545    -0.000003121634
       2       -0.000231125390    -0.000186079089    -0.000417087871
       3        0.000243328227    -0.000170947265     0.000345596912
       4        0.000015600029     0.000008226702     0.000012011364
       5        0.000111630038     0.000194891262     0.000286166363
       6       -0.000146510001     0.000185900655    -0.000185243183
       7       -0.000018339360     0.000002644046    -0.000005786373
       8        0.000002162513    -0.000017601215    -0.000009256785
       9        0.000023455695    -0.000008066849    -0.000010723746
      10       -0.000013530837    -0.000009658619     0.000000964286
      11        0.000008510263     0.000005559394     0.000003084798
      12       -0.000003251582     0.000004900971    -0.000006073434
      13        0.000004639943     0.000006396972    -0.000002342176
      14       -0.000006844555    -0.000015089857    -0.000000976059
      15        0.000004497845     0.000003180281     0.000003903641
      16        0.000000100522     0.000003511829    -0.000002238979
      17        0.000005417889     0.000000984942    -0.000002142741
      18        0.000011185534    -0.000009862707    -0.000006734381

  **** Optimization is complete! (in 9 steps) ****
    Final optimized geometry and variables:
    Molecular point group: c1

    Geometry (in Angstrom), charge = 0, multiplicity = 1:

    H           -1.315522198409     1.601101517698     2.028995143301
    C           -1.253466568405     0.712292375587     1.415192571411
    O           -0.041971149432     0.786194967850     0.729577441998
    H           -2.111552384784     0.698192791225     0.750244490391
    H           -1.303553635938    -0.154923022940     2.067169657315
    C            0.243003676706    -0.154858546974    -0.290278051812
    C            1.687326925863     0.154807764259    -0.677223368169
    C            0.136391242054    -1.591873295137     0.229081358682
    C           -0.676871122587     0.057279651450    -1.497094122443
    H            2.339991201670     0.023765240025     0.178516858606
    H            1.771665698421     1.183001965765    -1.010490193237
    H            2.026532274516    -0.497218237295    -1.475677051432
    H            0.736854497870    -1.715410577272     1.124367791692
    H            0.495621052273    -2.289422174330    -0.520418395049
    H           -0.886777685937    -1.865635033760     0.463994627281
    H           -0.637010654881     1.092170904805    -1.819517571085
    H           -0.365079115527    -0.571379265482    -2.324994513914
    H           -1.708959202533    -0.190123789098    -1.273685386132

  Mulliken Charges: (a.u.)
   Center  Symbol    Alpha    Beta     Spin     Total
       1     H     0.41293  0.41293  0.00000  0.17413
       2     C     3.07953  3.07953  0.00000 -0.15906
       3     O     4.31861  4.31861  0.00000 -0.63723
       4     H     0.43049  0.43049  0.00000  0.13902
       5     H     0.42834  0.42834  0.00000  0.14331
       6     C     2.84265  2.84265  0.00000  0.31471
       7     C     3.23302  3.23302  0.00000 -0.46603
       8     C     3.24941  3.24941  0.00000 -0.49882
       9     C     3.24494  3.24494  0.00000 -0.48988
      10     H     0.41459  0.41459  0.00000  0.17082
      11     H     0.41373  0.41373  0.00000  0.17254
      12     H     0.42512  0.42512  0.00000  0.14976
      13     H     0.41350  0.41350  0.00000  0.17300
      14     H     0.41880  0.41880  0.00000  0.16241
      15     H     0.41983  0.41983  0.00000  0.16034
      16     H     0.41324  0.41324  0.00000  0.17351
      17     H     0.42065  0.42065  0.00000  0.15871
      18     H     0.42063  0.42063  0.00000  0.15874

   Total alpha = 25.00000, Total beta = 25.00000, Total charge = -0.00000
