  ==> Input File <==

--------------------------------------------------------------------------
set {
	reference rhf
	basis 6-31G*
}

set_num_threads( 4 )
memory 2 gb

molecule MOL {
0 1

O	 -2.042549	 -1.228399	 -0.269030
C	 -1.653912	 -0.146171	 0.050137
C	 -0.332303	 0.024011	 0.778412
C	 -2.438579	 1.106236	 -0.272369
C	 0.437602	 1.241104	 0.241938
H	 -0.497097	 0.132251	 1.846827
H	 0.251420	 -0.875180	 0.615179
C	 1.790942	 1.431204	 0.928496
H	 -0.160166	 2.141486	 0.372583
H	 0.581815	 1.115779	 -0.827005
C	 2.562643	 2.635559	 0.390709
H	 1.639984	 1.546843	 1.999601
H	 2.387626	 0.531441	 0.798255
H	 2.005510	 3.556485	 0.537508
H	 2.757064	 2.532887	 -0.672823
H	 3.518583	 2.743910	 0.893167
H	 -3.277823	 0.863061	 -0.908988
H	 -1.806773	 1.843019	 -0.759671
H	 -2.802853	 1.554979	 0.648059

	symmetry c1
}
set optking {
	frozen_dihedral = ("
		5 3 2 4
	")
}

ee = optimize('scf')
oeprop('DIPOLE', 'QUADRUPOLE', 'MULLIKEN_CHARGES')
f=open( 'psi4out.xyz', 'w' )
f.write( "19  " )
f.write( str(ee) + "\n" )
f.write( MOL.save_string_xyz() )
f.close()
--------------------------------------------------------------------------

    Molecular point group: c1
  Charge       = 0
  Multiplicity = 1
  Basis Set: 6-31G*
  Basis Set:
  @DF-RHF Final Energy:  -309.06063625012195
    Total Energy =                       -309.0606362501221156
    Molecular point group: c1
  Basis Set: 6-31G*
  Basis Set:
  Basis Set: 6-31G*
  Basis Set:
  @DF-RHF Final Energy:  -309.06268632174829
    Total Energy =                       -309.0626863217481741
  Basis Set: 6-31G*
  Basis Set:
  Basis Set: 6-31G*
  Basis Set:
  @DF-RHF Final Energy:  -309.06375801252545
    Total Energy =                       -309.0637580125255113
  Basis Set: 6-31G*
  Basis Set:
  Basis Set: 6-31G*
  Basis Set:
  @DF-RHF Final Energy:  -309.06297519529232
    Total Energy =                       -309.0629751952922675
  Basis Set: 6-31G*
  Basis Set:
  @DF-RHF Final Energy:  -309.06408717070707
    Total Energy =                       -309.0640871707071824
  @DF-RHF Final Energy:  -309.06213066698041
    Total Energy =                       -309.0621306669804085
  @DF-RHF Final Energy:  -309.06407829618399
    Total Energy =                       -309.0640782961839932
  Basis Set: 6-31G*
  Basis Set:
  @DF-RHF Final Energy:  -309.06418939160091
    Total Energy =                       -309.0641893916006779
  Basis Set: 6-31G*
  Basis Set:
  Basis Set: 6-31G*
  Basis Set:
  @DF-RHF Final Energy:  -309.06418747813041
    Total Energy =                       -309.0641874781306342
  Basis Set: 6-31G*
  Basis Set:
  Basis Set: 6-31G*
  Basis Set:
  @DF-RHF Final Energy:  -309.06419210375668
    Total Energy =                       -309.0641921037569091
  Basis Set: 6-31G*
  Basis Set:
  Charge       = 0
  Multiplicity = 1
  Basis Set: 6-31G*
  Basis Set:

    Orbital Energies (a.u.)
    -----------------------

    Doubly Occupied:

       1A    -20.547162     2A    -11.325061     3A    -11.232611
       4A    -11.230542     5A    -11.227650     6A    -11.227053
       7A    -11.217292     8A     -1.392991     9A     -1.094651
      10A     -1.028853    11A     -0.982146    12A     -0.895166
      13A     -0.810326    14A     -0.732305    15A     -0.663557
      16A     -0.646841    17A     -0.626839    18A     -0.612777
      19A     -0.584116    20A     -0.574069    21A     -0.554260
      22A     -0.531713    23A     -0.516875    24A     -0.496260
      25A     -0.486107    26A     -0.479636    27A     -0.471026
      28A     -0.397116

  @DF-RHF Final Energy:  -309.06419221120177

   => Energetics <=

    Nuclear Repulsion Energy =            301.0210981039865601
    One-Electron Energy =               -1015.0005749815602485
    Two-Electron Energy =                 404.9152846663720311
    DFT Exchange-Correlation Energy =       0.0000000000000000
    Empirical Dispersion Energy =           0.0000000000000000
    PCM Polarization Energy =               0.0000000000000000
    EFP Energy =                            0.0000000000000000
    Total Energy =                       -309.0641922112016573
    Molecular point group: c1
  Basis Set: 6-31G*
  Basis Set:

  -Total Gradient:
     Atom            X                  Y                   Z
    ------   -----------------  -----------------  -----------------
       1       -0.000000071315    -0.000006345115     0.000000626721
       2       -0.000875059536     0.000126043979     0.001651426946
       3        0.000879061121    -0.000758885821    -0.001407270873
       4        0.000450487401     0.000086830690    -0.000917853050
       5       -0.000455003069     0.000564611805     0.000690504025
       6       -0.000005559362    -0.000001123069    -0.000007653437
       7        0.000003928720    -0.000001575117     0.000000643876
       8        0.000008881536    -0.000017552927    -0.000014228532
       9       -0.000006976638     0.000004004264    -0.000003801295
      10        0.000001363971    -0.000002273352     0.000004714844
      11       -0.000004703458     0.000006909250     0.000007845015
      12        0.000001372805    -0.000000687950    -0.000002149878
      13       -0.000001441900    -0.000001478382    -0.000001969604
      14       -0.000002355609     0.000001574664    -0.000005784037
      15        0.000004996268    -0.000004736923     0.000000530249
      16       -0.000002526469     0.000003162160     0.000003980796
      17       -0.000003422717     0.000000373308     0.000002135088
      18        0.000003950781     0.000006584540    -0.000002055062
      19        0.000003077471    -0.000005436005     0.000000358211

  **** Optimization is complete! (in 11 steps) ****
    Final optimized geometry and variables:
    Molecular point group: c1

    Geometry (in Angstrom), charge = 0, multiplicity = 1:

    O           -1.793534038580    -1.994558919118    -0.494323141510
    C           -1.434116944116    -0.887954579887    -0.228617043553
    C           -0.097920064690    -0.651660050848     0.456217890654
    C           -2.304768602442     0.309802672578    -0.546629819180
    C            0.697803537022     0.566245192888    -0.025548750492
    H           -0.307304199016    -0.542528468802     1.520502046197
    H            0.478541870484    -1.561891149114     0.341709498837
    C            2.054185008285     0.684284972868     0.672507930500
    H            0.130118877589     1.476747423948     0.146637766398
    H            0.855095755918     0.498479907632    -1.100381339048
    C            2.859130025258     1.895630915381     0.204077948717
    H            1.900407236388     0.745505749259     1.747689578088
    H            2.628600106831    -0.222028988480     0.496972306683
    H            2.324418701041     2.821339066623     0.397100492764
    H            3.058667315362     1.845346620819    -0.862456067250
    H            3.814118315354     1.952719995425     0.716506571203
    H           -3.283197545475    -0.033020869171    -0.852892999567
    H           -1.863737968995     0.888711133061    -1.352472261336
    H           -2.397482175492     0.968076335460     0.311821404755

  Mulliken Charges: (a.u.)
   Center  Symbol    Alpha    Beta     Spin     Total
       1     O     4.26258  4.26258  0.00000 -0.52516
       2     C     2.73105  2.73105  0.00000  0.53790
       3     C     3.20736  3.20736  0.00000 -0.41472
       4     C     3.29183  3.29183  0.00000 -0.58366
       5     C     3.16272  3.16272  0.00000 -0.32544
       6     H     0.40825  0.40825  0.00000  0.18350
       7     H     0.39858  0.39858  0.00000  0.20284
       8     C     3.15199  3.15199  0.00000 -0.30398
       9     H     0.41909  0.41909  0.00000  0.16182
      10     H     0.41732  0.41732  0.00000  0.16536
      11     C     3.24014  3.24014  0.00000 -0.48029
      12     H     0.42110  0.42110  0.00000  0.15779
      13     H     0.41859  0.41859  0.00000  0.16282
      14     H     0.42115  0.42115  0.00000  0.15770
      15     H     0.42005  0.42005  0.00000  0.15991
      16     H     0.41662  0.41662  0.00000  0.16676
      17     H     0.39582  0.39582  0.00000  0.20836
      18     H     0.40488  0.40488  0.00000  0.19023
      19     H     0.41086  0.41086  0.00000  0.17828

   Total alpha = 28.00000, Total beta = 28.00000, Total charge = -0.00000
