  ==> Input File <==

--------------------------------------------------------------------------
set {
	reference rhf
	basis 6-31G*
}

set_num_threads( 4 )
memory 2 gb

molecule MOL {
0 1

H	 -1.959107	 -1.318617	 -1.204415
N	 -1.254520	 -0.607388	 -1.238907
C	 -0.563778	 -0.502042	 0.037919
H	 -1.721209	 0.252277	 -1.457847
C	 0.575259	 0.508231	 -0.048326
H	 -0.156581	 -1.480370	 0.275115
H	 -1.225829	 -0.230099	 0.864042
C	 1.954651	 -0.143624	 0.035137
H	 0.475158	 1.060484	 -0.977307
H	 0.469181	 1.234488	 0.755973
H	 2.103292	 -0.853109	 -0.774172
H	 2.742821	 0.599562	 -0.030094
H	 2.083613	 -0.679371	 0.971560

	symmetry c1
}
set optking {
	frozen_dihedral = ("
		6 3 5 9
	")
}

ee = optimize('scf')
oeprop('DIPOLE', 'QUADRUPOLE', 'MULLIKEN_CHARGES')
f=open( 'psi4out.xyz', 'w' )
f.write( "13  " )
f.write( str(ee) + "\n" )
f.write( MOL.save_string_xyz() )
f.close()
--------------------------------------------------------------------------

    Molecular point group: c1
  Charge       = 0
  Multiplicity = 1
  Basis Set: 6-31G*
  Basis Set:
  @DF-RHF Final Energy:  -173.27618870141629
    Total Energy =                       -173.2761887014162596
    Molecular point group: c1
  Basis Set: 6-31G*
  Basis Set:
  Basis Set: 6-31G*
  Basis Set:
  @DF-RHF Final Energy:  -173.27659861806987
    Total Energy =                       -173.2765986180699542
  Basis Set: 6-31G*
  Basis Set:
  Basis Set: 6-31G*
  Basis Set:
  @DF-RHF Final Energy:  -173.27673089262473
    Total Energy =                       -173.2767308926247836
  Basis Set: 6-31G*
  Basis Set:
  Basis Set: 6-31G*
  Basis Set:
  @DF-RHF Final Energy:  -173.27673336823278
    Total Energy =                       -173.2767333682327831
  Basis Set: 6-31G*
  Basis Set:
  Charge       = 0
  Multiplicity = 1
  Basis Set: 6-31G*
  Basis Set:

    Orbital Energies (a.u.)
    -----------------------

    Doubly Occupied:

       1A    -15.533033     2A    -11.240213     3A    -11.211702
       4A    -11.205073     5A     -1.175663     6A     -1.030364
       7A     -0.897023     8A     -0.799150     9A     -0.655126
      10A     -0.637603    11A     -0.594392    12A     -0.563918
      13A     -0.530533    14A     -0.484916    15A     -0.476120
      16A     -0.469023    17A     -0.379874

  @DF-RHF Final Energy:  -173.27673343959111

   => Energetics <=

    Nuclear Repulsion Energy =            132.2379846260784007
    One-Electron Energy =                -495.2619827548097646
    Two-Electron Energy =                 189.7472646891402519
    DFT Exchange-Correlation Energy =       0.0000000000000000
    Empirical Dispersion Energy =           0.0000000000000000
    PCM Polarization Energy =               0.0000000000000000
    EFP Energy =                            0.0000000000000000
    Total Energy =                       -173.2767334395911121
    Molecular point group: c1
  Basis Set: 6-31G*
  Basis Set:

  -Total Gradient:
     Atom            X                  Y                   Z
    ------   -----------------  -----------------  -----------------
       1       -0.000018812847    -0.000006510677    -0.000029324857
       2       -0.000011825788    -0.000008569534     0.000038155591
       3        0.000009010312     0.000244372799     0.002936226496
       4        0.000000640578    -0.000005118575     0.000008898612
       5       -0.001807372098     0.002118331778     0.000858874614
       6        0.000308379903    -0.000512321449    -0.002616199288
       7        0.000005764578     0.000026747093    -0.000025364297
       8        0.000003923256    -0.000014194751     0.000008752088
       9        0.001520522017    -0.001816166820    -0.001196464169
      10       -0.000013151758    -0.000036232021     0.000013811609
      11       -0.000021181037    -0.000013153845     0.000017812266
      12        0.000008113559     0.000005196638    -0.000012579017
      13        0.000015989321     0.000017619363    -0.000002599650

  **** Optimization is complete! (in 5 steps) ****
    Final optimized geometry and variables:
    Molecular point group: c1

    Geometry (in Angstrom), charge = 0, multiplicity = 1:

    H           -2.081322048377    -1.145980062693    -0.912062273568
    N           -1.384072072525    -0.426508373936    -0.934473296835
    C           -0.732716944668    -0.299322977250     0.365047557658
    H           -1.855599369920     0.424725668252    -1.175362321186
    C            0.424261190987     0.715853036632     0.295377278745
    H           -0.341760731910    -1.281801499880     0.607815321838
    H           -1.426658171127    -0.025858900490     1.160990204192
    C            1.802562038977     0.053876290623     0.331718519274
    H            0.340581694706     1.268518711510    -0.635229685589
    H            0.346462022297     1.434406075649     1.106155944032
    H            1.904583446206    -0.658168050483    -0.481446880999
    H            2.595597362397     0.789180083162     0.234644070202
    H            1.958830393752    -0.480013106411     1.265113957995

  Mulliken Charges: (a.u.)
   Center  Symbol    Alpha    Beta     Spin     Total
       1     H     0.33342  0.33342  0.00000  0.33316
       2     N     3.92149  3.92149  0.00000 -0.84298
       3     C     3.06618  3.06618  0.00000 -0.13235
       4     H     0.33547  0.33547  0.00000  0.32907
       5     C     3.15399  3.15399  0.00000 -0.30797
       6     H     0.41787  0.41787  0.00000  0.16426
       7     H     0.43149  0.43149  0.00000  0.13702
       8     C     3.24239  3.24239  0.00000 -0.48477
       9     H     0.41534  0.41534  0.00000  0.16933
      10     H     0.42293  0.42293  0.00000  0.15415
      11     H     0.41455  0.41455  0.00000  0.17090
      12     H     0.42115  0.42115  0.00000  0.15769
      13     H     0.42375  0.42375  0.00000  0.15250

   Total alpha = 17.00000, Total beta = 17.00000, Total charge = -0.00000
