  ==> Input File <==

--------------------------------------------------------------------------
set {
	reference rhf
	basis cc-pvtz
}

set_num_threads( 4 )
memory 2 gb

molecule MOL {
0 1

H	 -1.786780	 1.137937	 -2.356964
O	 -2.018942	 1.768354	 -1.698841
C	 -1.005300	 1.848412	 -0.745034
C	 -0.793473	 0.591216	 0.050087
H	 -1.279226	 2.653342	 -0.073205
H	 -0.061825	 2.136447	 -1.205025
C	 -1.534243	 -0.493009	 -0.013340
H	 0.048909	 0.621245	 0.721458
H	 -1.101195	 -1.466332	 -0.144046
H	 -2.604242	 -0.437780	 0.050785

	symmetry c1
}
set optking {
	frozen_dihedral = ("
		3 4 7 9
	")
}

ee = optimize('scf')
oeprop('DIPOLE', 'QUADRUPOLE', 'MULLIKEN_CHARGES')
f=open( 'psi4out.xyz', 'w' )
f.write( "10  " )
f.write( str(ee) + "\n" )
f.write( MOL.save_string_xyz() )
f.close()
--------------------------------------------------------------------------

    Molecular point group: c1
  Charge       = 0
  Multiplicity = 1
  Basis Set: CC-PVTZ
  Basis Set:
  @DF-RHF Final Energy:  -191.94290113972045
    Total Energy =                       -191.9429011397204761
    Molecular point group: c1
  Basis Set: CC-PVTZ
  Basis Set:
  Basis Set: CC-PVTZ
  Basis Set:
  @DF-RHF Final Energy:  -191.96341159448579
    Total Energy =                       -191.9634115944857911
  Basis Set: CC-PVTZ
  Basis Set:
  Basis Set: CC-PVTZ
  Basis Set:
  @DF-RHF Final Energy:  -191.97449057196690
    Total Energy =                       -191.9744905719668395
  Basis Set: CC-PVTZ
  Basis Set:
  Basis Set: CC-PVTZ
  Basis Set:
  @DF-RHF Final Energy:  -191.97536364500576
    Total Energy =                       -191.9753636450057002
  Basis Set: CC-PVTZ
  Basis Set:
  @DF-RHF Final Energy:  -191.97544515919807
    Total Energy =                       -191.9754451591980455
  @DF-RHF Final Energy:  -191.97545460066777
    Total Energy =                       -191.9754546006678311
  @DF-RHF Final Energy:  -191.97545718930417
    Total Energy =                       -191.9754571893041373
  @DF-RHF Final Energy:  -191.97545605434340
    Total Energy =                       -191.9754560543434536
  @DF-RHF Final Energy:  -191.97545578136805
    Total Energy =                       -191.9754557813681686
  @DF-RHF Final Energy:  -191.97545291737777
    Total Energy =                       -191.9754529173776518
  @DF-RHF Final Energy:  -191.97545261217050
    Total Energy =                       -191.9754526121705283
  @DF-RHF Final Energy:  -191.92630932997389
    Total Energy =                       -191.9263093299737193
  @DF-RHF Final Energy:  -191.85858411512473
    Total Energy =                       -191.8585841151247564
  @DF-RHF Final Energy:  -191.90513014045274
    Total Energy =                       -191.9051301404526839
  @DF-RHF Final Energy:  -191.84467390817679
    Total Energy =                       -191.8446739081768442
  @DF-RHF Final Energy:  -191.91014264077614
    Total Energy =                       -191.9101426407759732
  @DF-RHF Final Energy:  -191.85465022725754
    Total Energy =                       -191.8546502272575367
  @DF-RHF Final Energy:  -191.89097539166613
    Total Energy =                       -191.8909753916661316
  @DF-RHF Final Energy:  -191.82660242369423
    Total Energy =                       -191.8266024236942826
  @DF-RHF Final Energy:  -191.87191146801337
    Total Energy =                       -191.8719114680134510
  @DF-RHF Final Energy:  -191.97219548334004
    Total Energy =                       -191.9721954833399593
  @DF-RHF Final Energy:  -191.97358302308078
    Total Energy =                       -191.9735830230807494
  @DF-RHF Final Energy:  -191.97392392099670
    Total Energy =                       -191.9739239209966684
  @DF-RHF Final Energy:  -191.97435873233218
    Total Energy =                       -191.9743587323321208
  @DF-RHF Final Energy:  -191.96730684097514
    Total Energy =                       -191.9673068409750840
  @DF-RHF Final Energy:  -191.97445287429599
    Total Energy =                       -191.9744528742959062
  @DF-RHF Final Energy:  -191.97493311757370
    Total Energy =                       -191.9749331175736131
  @DF-RHF Final Energy:  -191.97507708759727
    Total Energy =                       -191.9750770875972989
  @DF-RHF Final Energy:  -191.97474801412352
    Total Energy =                       -191.9747480141234917
  @DF-RHF Final Energy:  -191.95332372283337
    Total Energy =                       -191.9533237228332894
  @DF-RHF Final Energy:  -191.97360736188020
    Total Energy =                       -191.9736073618801697
  @DF-RHF Final Energy:  -191.97521602332168
    Total Energy =                       -191.9752160233215932
  @DF-RHF Final Energy:  -191.97525525406797
    Total Energy =                       -191.9752552540679176
  @DF-RHF Final Energy:  -191.97528319969663
    Total Energy =                       -191.9752831996966620
  @DF-RHF Final Energy:  -191.97530431002065
    Total Energy =                       -191.9753043100207321
  @DF-RHF Final Energy:  -191.97531687970167
    Total Energy =                       -191.9753168797016656
  Basis Set: CC-PVTZ
  Basis Set:
  @DF-RHF Final Energy:  -191.97340153565665
    Total Energy =                       -191.9734015356567340
  Basis Set: CC-PVTZ
  Basis Set:
  Basis Set: CC-PVTZ
  Basis Set:
  @DF-RHF Final Energy:  -191.97533541072815
    Total Energy =                       -191.9753354107282348
  Basis Set: CC-PVTZ
  Basis Set:
  Basis Set: CC-PVTZ
  Basis Set:
  @DF-RHF Final Energy:  -191.97491532330400
    Total Energy =                       -191.9749153233039465
  Basis Set: CC-PVTZ
  Basis Set:
  Charge       = 0
  Multiplicity = 1
  Basis Set: CC-PVTZ
  Basis Set:

    Orbital Energies (a.u.)
    -----------------------

    Doubly Occupied:

       1A    -20.556323     2A    -11.283878     3A    -11.238866
       4A    -11.219968     5A     -1.378097     6A     -1.065645
       7A     -0.936001     8A     -0.775829     9A     -0.695320
      10A     -0.662386    11A     -0.624037    12A     -0.580846
      13A     -0.535110    14A     -0.503075    15A     -0.453437
      16A     -0.361058

  @DF-RHF Final Energy:  -191.97532789757389

   => Energetics <=

    Nuclear Repulsion Energy =            119.4313893302082903
    One-Electron Energy =                -497.0736821220213528
    Two-Electron Energy =                 185.6669648942391291
    DFT Exchange-Correlation Energy =       0.0000000000000000
    Empirical Dispersion Energy =           0.0000000000000000
    PCM Polarization Energy =               0.0000000000000000
    EFP Energy =                            0.0000000000000000
    Total Energy =                       -191.9753278975739477
    Molecular point group: c1
  Basis Set: CC-PVTZ
  Basis Set:

  -Total Gradient:
     Atom            X                  Y                   Z
    ------   -----------------  -----------------  -----------------
       1       -0.000215319077    -0.000029790116     0.000352194222
       2        0.000136470733     0.000229198039    -0.000499541499
       3        0.015102930016    -0.008714230098    -0.014280919642
       4       -0.023887358439     0.011681314364     0.009610722255
       5        0.000065330015    -0.000012827885     0.000080861200
       6        0.000267334410     0.000191610175     0.000512665897
       7        0.006570728650    -0.007244858766     0.035936281224
       8       -0.000618482547     0.001462704435    -0.000069785176
       9        0.002731748543     0.001861144702    -0.031236609705
      10       -0.000153382305     0.000575735151    -0.000405868775

    Molecular point group: c1

    Geometry (in Angstrom), charge = 0, multiplicity = 1:

    H           -0.629148709453     0.078719024835    -1.542753526630
    O           -0.675156964757     0.848031444794    -1.004008642706
    C            0.388035246096     0.857573359673    -0.107436381911
    C            0.507763743735    -0.358060872406     0.775836740712
    H            0.292850650755     1.772618174833     0.465031763409
    H            1.342710198979     0.912142091561    -0.626217276439
    C           -0.141082008078    -1.499433444632     0.641983877449
    H            1.444953414528    -0.357856083614     1.312010094121
    H            0.337113717221    -2.461114086863     0.647745204467
    H           -1.059534098402    -1.497496014296     0.076008881105

  Mulliken Charges: (a.u.)
   Center  Symbol    Alpha    Beta     Spin     Total
       1     H     0.39117  0.39117  0.00000  0.21765
       2     O     4.19804  4.19804  0.00000 -0.39608
       3     C     2.94783  2.94783  0.00000  0.10434
       4     C     3.07432  3.07432  0.00000 -0.14865
       5     H     0.45179  0.45179  0.00000  0.09643
       6     H     0.46834  0.46834  0.00000  0.06331
       7     C     3.17716  3.17716  0.00000 -0.35431
       8     H     0.42928  0.42928  0.00000  0.14145
       9     H     0.42374  0.42374  0.00000  0.15251
      10     H     0.43833  0.43833  0.00000  0.12335

   Total alpha = 16.00000, Total beta = 16.00000, Total charge = -0.00000
