                              Psi4 1.0.54 Driver

  ==> Input File <==

--------------------------------------------------------------------------
set {
	reference rhf
	basis cc-pvtz
}

set_num_threads( 4 )
memory 2 gb

molecule MOL {
0 1

H	 -1.601577	 2.807981	 -2.474032
C	 -0.633043	 3.316286	 -2.576276
C	 0.020033	 3.702661	 -1.277008
O	 -0.187193	 3.528961	 -3.650192
C	 0.122556	 2.532582	 -0.294115
H	 0.991215	 4.128681	 -1.492989
H	 -0.597835	 4.483747	 -0.839460
C	 1.081863	 1.434065	 -0.747075
H	 0.445058	 2.919096	 0.666583
H	 -0.866356	 2.110405	 -0.132830
C	 1.181757	 0.280428	 0.247371
H	 2.067517	 1.865204	 -0.901060
H	 0.769095	 1.047792	 -1.713717
C	 2.151032	 -0.811012	 -0.202643
H	 1.486122	 0.673435	 1.212386
H	 0.195467	 -0.155088	 0.391783
C	 3.580021	 -0.656538	 0.320835
H	 2.170545	 -0.847575	 -1.289412
H	 1.766632	 -1.772905	 0.124928
C	 4.327657	 0.562694	 -0.213579
H	 4.138806	 -1.549270	 0.057813
H	 3.561991	 -0.620783	 1.406976
H	 4.355973	 0.557257	 -1.298551
H	 3.867136	 1.491650	 0.100501
H	 5.351524	 0.571613	 0.142204

	symmetry c1
}
set optking {
	frozen_dihedral = ("
		8 11 14 18
	")
}

ee,wfn = optimize('scf', return_wfn=True)
oeprop( wfn, 'DIPOLE', 'QUADRUPOLE', 'MULLIKEN_CHARGES')
f=open( 'psi4out.xyz', 'w' )
f.write( "25  " )
f.write( str(ee) + "\n" )
f.write( MOL.save_string_xyz() )
f.close()
--------------------------------------------------------------------------

    Molecular point group: c1
  Charge       = 0
  Multiplicity = 1
  Basis Set: CC-PVTZ
  Basis Set:
  @DF-RHF Final Energy:  -387.25484122226578
    Total Energy =                       -387.2548412222656680
    Molecular point group: c1
  Basis Set: CC-PVTZ
  Basis Set:
  Basis Set: CC-PVTZ
  Basis Set:
  @DF-RHF Final Energy:  -387.25565305581904
    Total Energy =                       -387.2556530558188115
  Basis Set: CC-PVTZ
  Basis Set:
  Basis Set: CC-PVTZ
  Basis Set:
  @DF-RHF Final Energy:  -387.25581974289582
    Total Energy =                       -387.2558197428955964
  Basis Set: CC-PVTZ
  Basis Set:
  Basis Set: CC-PVTZ
  Basis Set:
  @DF-RHF Final Energy:  -387.25565452563382
    Total Energy =                       -387.2556545256334175
  Basis Set: CC-PVTZ
  Basis Set:
  Basis Set: CC-PVTZ
  Basis Set:
  @DF-RHF Final Energy:  -387.25584562881744
    Total Energy =                       -387.2558456288172692
  Basis Set: CC-PVTZ
  Basis Set:
  Basis Set: CC-PVTZ
  Basis Set:
  @DF-RHF Final Energy:  -387.25585426915308
    Total Energy =                       -387.2558542691533603
  Basis Set: CC-PVTZ
  Basis Set:
  Charge       = 0
  Multiplicity = 1
  Basis Set: CC-PVTZ
  Basis Set:

    Orbital Energies (a.u.)
    -----------------------

    Doubly Occupied:

       1A    -20.551247     2A    -11.320856     3A    -11.233625
       4A    -11.232469     5A    -11.220688     6A    -11.218465
       7A    -11.216492     8A    -11.215347     9A    -11.208924
      10A     -1.406257    11A     -1.104349    12A     -1.069330
      13A     -1.012423    14A     -0.946796    15A     -0.876819
      16A     -0.821387    17A     -0.788528    18A     -0.779689
      19A     -0.667882    20A     -0.662585    21A     -0.633291
      22A     -0.624080    23A     -0.608736    24A     -0.594970
      25A     -0.567795    26A     -0.560030    27A     -0.533550
      28A     -0.525934    29A     -0.517941    30A     -0.497219
      31A     -0.488356    32A     -0.485023    33A     -0.463377
      34A     -0.450320    35A     -0.443201    36A     -0.411743

  @DF-RHF Final Energy:  -387.25585442211883

   => Energetics <=

    Nuclear Repulsion Energy =            447.8822955505260666
    One-Electron Energy =               -1412.3568486465894694
    Two-Electron Energy =                 577.2186986739443455
    DFT Exchange-Correlation Energy =       0.0000000000000000
    Empirical Dispersion Energy =           0.0000000000000000
    PCM Polarization Energy =               0.0000000000000000
    EFP Energy =                            0.0000000000000000
    Total Energy =                       -387.2558544221190004
    Molecular point group: c1
  Basis Set: CC-PVTZ
  Basis Set:

  -Total Gradient:
     Atom            X                  Y                   Z
    ------   -----------------  -----------------  -----------------
       1       -0.000002062092     0.000003498880     0.000003642326
       2       -0.000008905680    -0.000015081743     0.000012762017
       3        0.000013911079    -0.000001856438    -0.000007720672
       4        0.000007184701     0.000006847548    -0.000009909028
       5       -0.000009623615    -0.000009108469     0.000006956456
       6        0.000002692696    -0.000001420640    -0.000002550584
       7        0.000006663383    -0.000005928243     0.000013145468
       8        0.000091410535     0.000071997614     0.000029156493
       9       -0.000006187136     0.000010617941     0.000004412690
      10       -0.000001048862    -0.000002264226    -0.000005761781
      11       -0.000168153238    -0.000089569084    -0.000059196309
      12       -0.000013223513    -0.000006803173    -0.000002582078
      13        0.000000633161    -0.000001170629    -0.000001264530
      14        0.000200730517     0.000149643459     0.000011970574
      15       -0.000007468653     0.000001103235     0.000013457543
      16        0.000010619369     0.000005520016    -0.000007421965
      17       -0.000000337902     0.000013887984     0.000012192937
      18       -0.000117087729    -0.000112215647     0.000013677707
      19        0.000002288827    -0.000006459201    -0.000007026012
      20        0.000011614221     0.000007036741    -0.000023690051
      21       -0.000001943848     0.000011440324    -0.000002154815
      22       -0.000007406447    -0.000003841143     0.000002376692
      23       -0.000000796980     0.000001130460    -0.000012504096
      24       -0.000005158560    -0.000014811624     0.000008848011
      25        0.000001655758    -0.000012193940     0.000009183005

  **** Optimization is complete! (in 7 steps) ****
    Final optimized geometry and variables:
    Molecular point group: c1

    Geometry (in Angstrom), charge = 0, multiplicity = 1:

    H           -3.005671652082     1.189068665411    -1.448375243132
    C           -2.056432528011     1.718248530428    -1.609000880108
    C           -1.349065618554     2.146449866392    -0.351950707152
    O           -1.670229934347     1.919901877895    -2.707885150446
    C           -1.170190408239     0.999753678718     0.647376142026
    H           -0.400303810430     2.590078210267    -0.624738784493
    H           -1.962905754579     2.922282500117     0.100375189451
    C           -0.207679301350    -0.085070306459     0.168467315536
    H           -0.810361352462     1.413631080956     1.583205953646
    H           -2.139536560910     0.558389584882     0.866172736767
    C           -0.055277699820    -1.224747990328     1.176042134984
    H            0.754411749674     0.366182370973    -0.044568441694
    H           -0.559417011911    -0.497255214564    -0.773841040043
    C            0.919486206594    -2.338134038454     0.756153172502
    H            0.247743070869    -0.820928932746     2.139093407083
    H           -1.036770502053    -1.661598795231     1.333917448687
    C            2.356046172242    -2.203862269529     1.269847313587
    H            0.928581176698    -2.421033756736    -0.327723305778
    H            0.537161783549    -3.285359059169     1.121948952403
    C            3.133387441924    -0.986110551894     0.777795946736
    H            2.898356347654    -3.099343849583     0.981660680742
    H            2.340218589620    -2.199312467499     2.356613020770
    H            3.148716433152    -0.938984185214    -0.306051686392
    H            2.709588031580    -0.059345728779     1.145361273675
    H            4.160963918501    -1.028900574895     1.120402548695

  Mulliken Charges: (a.u.)
   Center  Symbol    Alpha    Beta     Spin     Total
       1     H     0.46416  0.46416  0.00000  0.07168
       2     C     2.90481  2.90481  0.00000  0.19039
       3     C     3.08840  3.08840  0.00000 -0.17680
       4     O     4.16627  4.16627  0.00000 -0.33253
       5     C     3.11809  3.11809  0.00000 -0.23617
       6     H     0.44306  0.44306  0.00000  0.11389
       7     H     0.44046  0.44046  0.00000  0.11908
       8     C     3.09346  3.09346  0.00000 -0.18692
       9     H     0.44277  0.44277  0.00000  0.11445
      10     H     0.44872  0.44872  0.00000  0.10256
      11     C     3.10605  3.10605  0.00000 -0.21210
      12     H     0.44562  0.44562  0.00000  0.10875
      13     H     0.44657  0.44657  0.00000  0.10685
      14     C     3.10222  3.10222  0.00000 -0.20443
      15     H     0.45114  0.45114  0.00000  0.09772
      16     H     0.44480  0.44480  0.00000  0.11040
      17     C     3.08409  3.08409  0.00000 -0.16817
      18     H     0.45264  0.45264  0.00000  0.09472
      19     H     0.44404  0.44404  0.00000  0.11192
      20     C     3.16053  3.16053  0.00000 -0.32106
      21     H     0.44872  0.44872  0.00000  0.10256
      22     H     0.45484  0.45484  0.00000  0.09032
      23     H     0.45100  0.45100  0.00000  0.09801
      24     H     0.45485  0.45485  0.00000  0.09031
      25     H     0.44271  0.44271  0.00000  0.11458

   Total alpha = 36.00000, Total beta = 36.00000, Total charge =  0.00000

*** Psi4 exiting successfully. Buy a developer a beer!
