  ==> Input File <==

--------------------------------------------------------------------------
set {
	reference rhf
	basis 6-31G*
}

set_num_threads( 4 )
memory 2 gb

molecule MOL {
0 1

H	 -2.209093	 0.792246	 2.170905
C	 -1.773541	 0.413444	 1.265267
C	 -2.566409	 0.080269	 0.180232
C	 -0.407784	 0.252917	 1.170986
H	 -3.633693	 0.198390	 0.234020
C	 -1.992153	 -0.406191	 -0.979214
H	 0.232619	 0.501249	 1.991347
C	 0.154804	 -0.237046	 -0.000077
H	 -2.624504	 -0.658816	 -1.810122
C	 -0.616673	 -0.583258	 -1.114523
N	 1.611208	 -0.370857	 -0.000034
C	 -0.096881	 -1.122556	 -2.429021
O	 2.274126	 0.622059	 -0.008063
O	 2.068510	 -1.474748	 0.007823
H	 0.434303	 -2.054627	 -2.294056
H	 -0.931732	 -1.292184	 -3.097321
H	 0.588728	 -0.431144	 -2.899141

	symmetry c1
}
set optking {
	frozen_dihedral = ("
		4 8 11 13
	")
}

ee = optimize('scf')
oeprop('DIPOLE', 'QUADRUPOLE', 'MULLIKEN_CHARGES')
f=open( 'psi4out.xyz', 'w' )
f.write( "17  " )
f.write( str(ee) + "\n" )
f.write( MOL.save_string_xyz() )
f.close()
--------------------------------------------------------------------------

    Molecular point group: c1
  Charge       = 0
  Multiplicity = 1
  Basis Set: 6-31G*
  Basis Set:
  @DF-RHF Final Energy:  -473.19986497353796
    Total Energy =                       -473.1998649735380695
    Molecular point group: c1
  Basis Set: 6-31G*
  Basis Set:
  Basis Set: 6-31G*
  Basis Set:
  @DF-RHF Final Energy:  -473.20149217235655
    Total Energy =                       -473.2014921723565521
  Basis Set: 6-31G*
  Basis Set:
  Basis Set: 6-31G*
  Basis Set:
  @DF-RHF Final Energy:  -473.19918912681698
    Total Energy =                       -473.1991891268161226
  Basis Set: 6-31G*
  Basis Set:
  Basis Set: 6-31G*
  Basis Set:
  @DF-RHF Final Energy:  -473.20211381142258
    Total Energy =                       -473.2021138114225778
  Basis Set: 6-31G*
  Basis Set:
  Basis Set: 6-31G*
  Basis Set:
  @DF-RHF Final Energy:  -473.20224351710317
    Total Energy =                       -473.2022435171029429
  Basis Set: 6-31G*
  Basis Set:
  Basis Set: 6-31G*
  Basis Set:
  @DF-RHF Final Energy:  -473.20229037577241
    Total Energy =                       -473.2022903757721224
  Basis Set: 6-31G*
  Basis Set:
  Basis Set: 6-31G*
  Basis Set:
  @DF-RHF Final Energy:  -473.20230711661242
    Total Energy =                       -473.2023071166125874
  Basis Set: 6-31G*
  Basis Set:
  Charge       = 0
  Multiplicity = 1
  Basis Set: 6-31G*
  Basis Set:

    Orbital Energies (a.u.)
    -----------------------

    Doubly Occupied:

       1A    -20.605498     2A    -20.604791     3A    -15.853132
       4A    -11.301963     5A    -11.276965     6A    -11.267539
       7A    -11.258982     8A    -11.256097     9A    -11.255109
      10A    -11.239309    11A     -1.636162    12A     -1.419832
      13A     -1.202221    14A     -1.092149    15A     -1.072970
      16A     -0.979351    17A     -0.935395    18A     -0.853304
      19A     -0.819902    20A     -0.772153    21A     -0.734112
      22A     -0.729530    23A     -0.695699    24A     -0.653453
      25A     -0.636472    26A     -0.599843    27A     -0.598365
      28A     -0.569890    29A     -0.542027    30A     -0.527642
      31A     -0.520677    32A     -0.492219    33A     -0.479071
      34A     -0.450219    35A     -0.364415    36A     -0.353416

  @DF-RHF Final Energy:  -473.20230806648624

   => Energetics <=

    Nuclear Repulsion Energy =            509.9172061253974562
    One-Electron Energy =               -1654.9392806586697589
    Two-Electron Energy =                 671.8197664667861773
    DFT Exchange-Correlation Energy =       0.0000000000000000
    Empirical Dispersion Energy =           0.0000000000000000
    PCM Polarization Energy =               0.0000000000000000
    EFP Energy =                            0.0000000000000000
    Total Energy =                       -473.2023080664860117
    Molecular point group: c1
  Basis Set: 6-31G*
  Basis Set:

  -Total Gradient:
     Atom            X                  Y                   Z
    ------   -----------------  -----------------  -----------------
       1        0.000013562656     0.000011600457     0.000001398266
       2       -0.000154912871    -0.000083107587    -0.000024725584
       3        0.000012399238     0.000089325305     0.000139317172
       4       -0.000164334878    -0.002913160229     0.000963176147
       5        0.000003210872    -0.000007931576    -0.000010198908
       6        0.000163051981     0.000012744442    -0.000126177765
       7       -0.000008759905    -0.000003277902     0.000012371980
       8        0.000416431930     0.004265388397    -0.002722421096
       9       -0.000010994552     0.000004014434    -0.000002317266
      10       -0.000228863693    -0.000194042046    -0.000017979205
      11        0.000052565171    -0.001258087671     0.005446809380
      12        0.000008808623     0.000033351261    -0.000024298876
      13       -0.000112520924     0.000022438429    -0.003630382605
      14        0.000010782252     0.000002334598    -0.000004902114
      15       -0.000004738901     0.000012171320     0.000013562661
      16        0.000003034822     0.000006629730    -0.000001898075
      17        0.000001278169    -0.000000391363    -0.000011334113

  **** Optimization is complete! (in 8 steps) ****
    Final optimized geometry and variables:
    Molecular point group: c1

    Geometry (in Angstrom), charge = 0, multiplicity = 1:

    H           -2.160672356318     1.073847953893     2.423201573410
    C           -1.729731412471     0.704526147554     1.511284115799
    C           -2.534347867836     0.359581020206     0.439172951059
    C           -0.356904628212     0.575731569168     1.397930287294
    H           -3.601621961221     0.463275095745     0.513519216164
    C           -1.974490648897    -0.118809811696    -0.734705736670
    H            0.297166286370     0.848115405702     2.204949717669
    C            0.168790944046     0.093735902753     0.218400049358
    H           -2.613758663519    -0.377659317927    -1.559327482979
    C           -0.601361928207    -0.280095189030    -0.872873854435
    N            1.621749884045    -0.071088238799     0.155460706447
    C            0.003956955947    -0.824463050014    -2.145517018812
    O            2.284098853163     0.920413589178     0.132124563417
    O            2.045203114186    -1.185378829341     0.112951328042
    H            0.376185913130    -1.830938174908    -1.996718927330
    H           -0.738421778150    -0.845371757932    -2.932922558873
    H            0.833417152498    -0.213296120642    -2.483907488162

  Mulliken Charges: (a.u.)
   Center  Symbol    Alpha    Beta     Spin     Total
       1     H     0.38980  0.38980  0.00000  0.22039
       2     C     3.10919  3.10919  0.00000 -0.21839
       3     C     3.08753  3.08753  0.00000 -0.17507
       4     C     3.08320  3.08320  0.00000 -0.16639
       5     H     0.39100  0.39100  0.00000  0.21800
       6     C     3.11984  3.11984  0.00000 -0.23968
       7     H     0.37616  0.37616  0.00000  0.24768
       8     C     2.91070  2.91070  0.00000  0.17860
       9     H     0.39270  0.39270  0.00000  0.21461
      10     C     2.96704  2.96704  0.00000  0.06592
      11     N     3.26446  3.26446  0.00000  0.47108
      12     C     3.25601  3.25601  0.00000 -0.51202
      13     O     4.22425  4.22425  0.00000 -0.44850
      14     O     4.22559  4.22559  0.00000 -0.45118
      15     H     0.39199  0.39199  0.00000  0.21603
      16     H     0.40879  0.40879  0.00000  0.18242
      17     H     0.40175  0.40175  0.00000  0.19650

   Total alpha = 36.00000, Total beta = 36.00000, Total charge =  0.00000
