  ==> Input File <==

--------------------------------------------------------------------------
set {
	reference rhf
	basis 6-31G*
}

set_num_threads( 4 )
memory 2 gb

molecule MOL {
0 1

H	 -2.798360	 -0.862255	 -0.071053
N	 -1.863561	 -0.715187	 0.256814
C	 -1.344686	 0.554728	 -0.219830
H	 -1.300452	 -1.461917	 -0.101532
C	 0.081427	 0.741154	 0.254071
H	 -1.362155	 0.656231	 -1.305829
H	 -1.952773	 1.354456	 0.191809
O	 0.844676	 1.203573	 -0.823290
H	 0.115365	 1.459778	 1.072647
H	 0.473768	 -0.207033	 0.614965
C	 2.202708	 1.338218	 -0.549084
H	 2.684456	 1.699949	 -1.447286
H	 2.377660	 2.051060	 0.254800
H	 2.648039	 0.385887	 -0.268809

	symmetry c1
}
set optking {
	frozen_dihedral = ("
		8 5 3 6
	")
}

ee = optimize('scf')
oeprop('DIPOLE', 'QUADRUPOLE', 'MULLIKEN_CHARGES')
f=open( 'psi4out.xyz', 'w' )
f.write( "14  " )
f.write( str(ee) + "\n" )
f.write( MOL.save_string_xyz() )
f.close()
--------------------------------------------------------------------------

    Molecular point group: c1
  Charge       = 0
  Multiplicity = 1
  Basis Set: 6-31G*
  Basis Set:
  @DF-RHF Final Energy:  -248.11762825464817
    Total Energy =                       -248.1176282546480252
    Molecular point group: c1
  Basis Set: 6-31G*
  Basis Set:
  Basis Set: 6-31G*
  Basis Set:
  @DF-RHF Final Energy:  -248.11849448438713
    Total Energy =                       -248.1184944843869857
  Basis Set: 6-31G*
  Basis Set:
  Basis Set: 6-31G*
  Basis Set:
  @DF-RHF Final Energy:  -248.11870331363494
    Total Energy =                       -248.1187033136348532
  Basis Set: 6-31G*
  Basis Set:
  Basis Set: 6-31G*
  Basis Set:
  @DF-RHF Final Energy:  -248.11871576637094
    Total Energy =                       -248.1187157663711105
  Basis Set: 6-31G*
  Basis Set:
  Charge       = 0
  Multiplicity = 1
  Basis Set: 6-31G*
  Basis Set:

    Orbital Energies (a.u.)
    -----------------------

    Doubly Occupied:

       1A    -20.554385     2A    -15.537501     3A    -11.264359
       4A    -11.264331     5A    -11.241033     6A     -1.378852
       7A     -1.179330     8A     -0.996364     9A     -0.900298
      10A     -0.823506    11A     -0.685469    12A     -0.663548
      13A     -0.652112    14A     -0.618389    15A     -0.587361
      16A     -0.563825    17A     -0.515940    18A     -0.497718
      19A     -0.469809    20A     -0.414274    21A     -0.384801

  @DF-RHF Final Energy:  -248.11871626743286

   => Energetics <=

    Nuclear Repulsion Energy =            190.8926909449404832
    One-Electron Energy =                -715.6364088182921250
    Two-Electron Energy =                 276.6250016059188397
    DFT Exchange-Correlation Energy =       0.0000000000000000
    Empirical Dispersion Energy =           0.0000000000000000
    PCM Polarization Energy =               0.0000000000000000
    EFP Energy =                            0.0000000000000000
    Total Energy =                       -248.1187162674328306
    Molecular point group: c1
  Basis Set: 6-31G*
  Basis Set:

  -Total Gradient:
     Atom            X                  Y                   Z
    ------   -----------------  -----------------  -----------------
       1       -0.000029860880    -0.000002828385    -0.000009182263
       2        0.000027928231    -0.000017816837     0.000011899318
       3        0.000756631924    -0.004555818029    -0.000575469532
       4        0.000002298869    -0.000029706870    -0.000013230745
       5       -0.000744710232     0.003810018662     0.000903481901
       6       -0.000493936996     0.003188241895     0.000328055112
       7       -0.000001503986     0.000016415433    -0.000007587458
       8        0.000495307114    -0.002425618330    -0.000653859759
       9        0.000007214459     0.000019662168    -0.000017906896
      10        0.000007844225    -0.000004867745    -0.000003119634
      11       -0.000003360170     0.000015344809     0.000060745432
      12       -0.000032762351    -0.000012063754    -0.000009699950
      13        0.000015472347     0.000007125133    -0.000001409005
      14       -0.000006562555    -0.000008088152    -0.000012716520

  **** Optimization is complete! (in 5 steps) ****
    Final optimized geometry and variables:
    Molecular point group: c1

    Geometry (in Angstrom), charge = 0, multiplicity = 1:

    H           -2.878392158289    -1.368968992543     0.319414193424
    N           -1.894248422384    -1.320503854684     0.498381312506
    C           -1.341129076647    -0.072604883452    -0.004268213611
    H           -1.474857571160    -2.103492344831     0.033485293094
    C            0.108219447540     0.101251869034     0.457718817913
    H           -1.358858730711     0.031202472126    -1.087388242209
    H           -1.949833429842     0.734573269990     0.388384185580
    O            0.877415945630     0.556520408044    -0.617165145982
    H            0.173947488850     0.797624249164     1.291372464814
    H            0.493705514767    -0.854662395076     0.809244611620
    C            2.212437769420     0.787628857698    -0.302044560621
    H            2.707585278564     1.126345987102    -1.201934372068
    H            2.315598502512     1.552484538689     0.465689820351
    H            2.702154641371    -0.119203054086     0.049140430903

  Mulliken Charges: (a.u.)
   Center  Symbol    Alpha    Beta     Spin     Total
       1     H     0.33086  0.33086  0.00000  0.33828
       2     N     3.92576  3.92576  0.00000 -0.85151
       3     C     3.07720  3.07720  0.00000 -0.15441
       4     H     0.33285  0.33285  0.00000  0.33431
       5     C     2.98988  2.98988  0.00000  0.02024
       6     H     0.41477  0.41477  0.00000  0.17045
       7     H     0.41739  0.41739  0.00000  0.16522
       8     O     4.30750  4.30750  0.00000 -0.61501
       9     H     0.42704  0.42704  0.00000  0.14592
      10     H     0.42468  0.42468  0.00000  0.15063
      11     C     3.07974  3.07974  0.00000 -0.15948
      12     H     0.41250  0.41250  0.00000  0.17499
      13     H     0.42968  0.42968  0.00000  0.14064
      14     H     0.43013  0.43013  0.00000  0.13974

   Total alpha = 21.00000, Total beta = 21.00000, Total charge =  0.00000
