                              Psi4 1.0.54 Driver

  ==> Input File <==

--------------------------------------------------------------------------
set {
	reference rhf
	basis cc-pvtz
}

set_num_threads( 4 )
memory 2 gb

molecule MOL {
0 1

H	 -4.148285	 0.785305	 -0.295650
O	 -3.434691	 0.222173	 -0.532001
C	 -2.302264	 0.528872	 0.237390
C	 -1.175688	 -0.398187	 -0.171891
H	 -2.005344	 1.563977	 0.081930
H	 -2.517029	 0.405470	 1.296861
C	 0.196029	 0.106276	 0.266738
H	 -1.201873	 -0.515469	 -1.250677
H	 -1.365975	 -1.378728	 0.252664
C	 1.330220	 -0.826136	 -0.155230
H	 0.359542	 1.097229	 -0.145561
H	 0.212134	 0.218135	 1.348778
C	 2.719700	 -0.407669	 0.328325
H	 1.339388	 -0.911200	 -1.239363
H	 1.119001	 -1.821953	 0.224128
C	 3.241564	 0.893452	 -0.276737
H	 3.418299	 -1.204729	 0.093035
H	 2.711776	 -0.323368	 1.411960
H	 3.254204	 0.841071	 -1.360784
H	 2.634460	 1.745075	 0.005842
H	 4.254264	 1.092401	 0.054971

	symmetry c1
}
set optking {
	frozen_dihedral = ("
		2 3 4 8
	")
}

ee,wfn = optimize('scf', return_wfn=True)
oeprop( wfn, 'DIPOLE', 'QUADRUPOLE', 'MULLIKEN_CHARGES')
f=open( 'psi4out.xyz', 'w' )
f.write( "21  " )
f.write( str(ee) + "\n" )
f.write( MOL.save_string_xyz() )
f.close()
--------------------------------------------------------------------------

    Molecular point group: c1
  Charge       = 0
  Multiplicity = 1
  Basis Set: CC-PVTZ
  Basis Set:
  @DF-RHF Final Energy:  -310.33181555561225
    Total Energy =                       -310.3318155556122520
    Molecular point group: c1
  Basis Set: CC-PVTZ
  Basis Set:
  Basis Set: CC-PVTZ
  Basis Set:
  @DF-RHF Final Energy:  -310.33193347073609
    Total Energy =                       -310.3319334707359758
  Basis Set: CC-PVTZ
  Basis Set:
  Basis Set: CC-PVTZ
  Basis Set:
  @DF-RHF Final Energy:  -310.33198529677730
    Total Energy =                       -310.3319852967774182
  Basis Set: CC-PVTZ
  Basis Set:
  Charge       = 0
  Multiplicity = 1
  Basis Set: CC-PVTZ
  Basis Set:

    Orbital Energies (a.u.)
    -----------------------

    Doubly Occupied:

       1A    -20.545465     2A    -11.265028     3A    -11.213174
       4A    -11.213035     5A    -11.211164     6A    -11.208738
       7A    -11.205881     8A     -1.363226     9A     -1.087174
      10A     -1.034004    11A     -0.955397    12A     -0.876508
      13A     -0.807841    14A     -0.779479    15A     -0.698072
      16A     -0.659631    17A     -0.621186    18A     -0.609909
      19A     -0.589913    20A     -0.568269    21A     -0.539639
      22A     -0.520811    23A     -0.510532    24A     -0.490104
      25A     -0.478801    26A     -0.460345    27A     -0.456244
      28A     -0.444293    29A     -0.436071

  @DF-RHF Final Energy:  -310.33198528442011

   => Energetics <=

    Nuclear Repulsion Energy =            312.8634116799515255
    One-Electron Energy =               -1040.6909275355696991
    Two-Electron Energy =                 417.4955305711981737
    DFT Exchange-Correlation Energy =       0.0000000000000000
    Empirical Dispersion Energy =           0.0000000000000000
    PCM Polarization Energy =               0.0000000000000000
    EFP Energy =                            0.0000000000000000
    Total Energy =                       -310.3319852844200568
    Molecular point group: c1
  Basis Set: CC-PVTZ
  Basis Set:

  -Total Gradient:
     Atom            X                  Y                   Z
    ------   -----------------  -----------------  -----------------
       1        0.000145430140    -0.000083656370    -0.000074029504
       2        0.000541925619     0.001840424161    -0.001676243259
       3       -0.001327350289    -0.002895297912     0.002388831257
       4        0.002692613889     0.003793326390    -0.000840852939
       5        0.000018025157    -0.000021162536     0.000001090529
       6       -0.000008885406     0.000003901126    -0.000048387487
       7        0.000020360037     0.000044794541    -0.000068346530
       8       -0.002014863456    -0.002695885795     0.000409808182
       9       -0.000022931292    -0.000003876852    -0.000073619694
      10       -0.000036051950     0.000045677939    -0.000043417916
      11       -0.000050339022    -0.000064888693     0.000012903712
      12       -0.000021495747    -0.000004969950    -0.000031147020
      13       -0.000033202491     0.000025988926     0.000086196955
      14       -0.000006041698     0.000039340768    -0.000015103668
      15       -0.000008640401    -0.000014292962    -0.000026002252
      16        0.000024758012     0.000015795575    -0.000024506774
      17       -0.000009344577    -0.000012755062     0.000028034271
      18        0.000006175690     0.000019448933     0.000019449470
      19       -0.000001439856     0.000014785339    -0.000018291233
      20        0.000072053365    -0.000032457126    -0.000002079297
      21        0.000019244273    -0.000014240440    -0.000004286803

  **** Optimization is complete! (in 4 steps) ****
    Final optimized geometry and variables:
    Molecular point group: c1

    Geometry (in Angstrom), charge = 0, multiplicity = 1:

    H           -4.197176416831     0.681627576090    -0.150845215633
    O           -3.463964619548     0.179189557462    -0.453938487807
    C           -2.322057488960     0.487884035770     0.301143384809
    C           -1.184391604576    -0.410013106543    -0.150914840102
    H           -2.048768775144     1.530545589871     0.151521058430
    H           -2.511226532168     0.349554131671     1.362943802920
    C            0.186505333024     0.084512253308     0.297114733481
    H           -1.234784623776    -0.497961273265    -1.230877818886
    H           -1.358452021682    -1.411131111067     0.232901691820
    C            1.316479926804    -0.862311775983    -0.102255541116
    H            0.361542662613     1.069832455841    -0.122543049608
    H            0.191750536993     0.206821701981     1.378570417964
    C            2.704585410973    -0.451403525755     0.391938641719
    H            1.335990643413    -0.958978457986    -1.185300466216
    H            1.092246338967    -1.852018513579     0.285400218331
    C            3.252144656482     0.829879994639    -0.232431188947
    H            3.395872641502    -1.261950942794     0.182666728738
    H            2.683145463524    -0.344789118125     1.473454675131
    H            3.277243613012     0.755409932946    -1.314922779689
    H            2.653908877452     1.695436925990     0.025343548192
    H            4.263476055280     1.021208168039     0.107891924967

  Mulliken Charges: (a.u.)
   Center  Symbol    Alpha    Beta     Spin     Total
       1     H     0.39683  0.39683  0.00000  0.20634
       2     O     4.19525  4.19525  0.00000 -0.39050
       3     C     2.96269  2.96269  0.00000  0.07462
       4     C     3.08557  3.08557  0.00000 -0.17114
       5     H     0.47757  0.47757  0.00000  0.04485
       6     H     0.47265  0.47265  0.00000  0.05470
       7     C     3.10202  3.10202  0.00000 -0.20403
       8     H     0.44785  0.44785  0.00000  0.10431
       9     H     0.45377  0.45377  0.00000  0.09245
      10     C     3.09467  3.09467  0.00000 -0.18934
      11     H     0.45195  0.45195  0.00000  0.09610
      12     H     0.45626  0.45626  0.00000  0.08749
      13     C     3.08989  3.08989  0.00000 -0.17977
      14     H     0.45282  0.45282  0.00000  0.09435
      15     H     0.44897  0.44897  0.00000  0.10206
      16     C     3.15213  3.15213  0.00000 -0.30425
      17     H     0.44847  0.44847  0.00000  0.10307
      18     H     0.45524  0.45524  0.00000  0.08952
      19     H     0.45453  0.45453  0.00000  0.09094
      20     H     0.45425  0.45425  0.00000  0.09150
      21     H     0.44663  0.44663  0.00000  0.10673

   Total alpha = 29.00000, Total beta = 29.00000, Total charge = -0.00000

*** Psi4 exiting successfully. Buy a developer a beer!
