  ==> Input File <==

--------------------------------------------------------------------------
set {
	reference rhf
	basis cc-pvtz
}

set_num_threads( 4 )
memory 2 gb

molecule MOL {
0 1

H	 1.651322	 -0.822465	 0.000000
O	 0.729993	 -1.034364	 0.000000
C	 0.037305	 0.100061	 0.000000
C	 -1.283026	 -0.047514	 -0.694999
O	 0.445205	 1.090696	 0.499054
H	 -1.119751	 -0.360891	 -1.718036
H	 -1.810107	 0.891840	 -0.672089
H	 -1.865682	 -0.816362	 -0.204232

	symmetry c1
}
set optking {
	frozen_dihedral = ("
		4 3 2 1
	")
}

ee = optimize('scf')
oeprop('DIPOLE', 'QUADRUPOLE', 'MULLIKEN_CHARGES')
f=open( 'psi4out.xyz', 'w' )
f.write( "8  " )
f.write( str(ee) + "\n" )
f.write( MOL.save_string_xyz() )
f.close()
--------------------------------------------------------------------------

    Molecular point group: c1
  Charge       = 0
  Multiplicity = 1
  Basis Set: CC-PVTZ
  Basis Set:
  @DF-RHF Final Energy:  -227.89960267562429
    Total Energy =                       -227.8996026756242941
    Molecular point group: c1
  Basis Set: CC-PVTZ
  Basis Set:
  Basis Set: CC-PVTZ
  Basis Set:
  @DF-RHF Final Energy:  -227.89683501197919
    Total Energy =                       -227.8968350119791353
  Basis Set: CC-PVTZ
  Basis Set:
  Basis Set: CC-PVTZ
  Basis Set:
  @DF-RHF Final Energy:  -227.89998152607643
    Total Energy =                       -227.8999815260764308
  Basis Set: CC-PVTZ
  Basis Set:
  Basis Set: CC-PVTZ
  Basis Set:
  @DF-RHF Final Energy:  -227.90007695388931
    Total Energy =                       -227.9000769538891973
  Basis Set: CC-PVTZ
  Basis Set:
  Basis Set: CC-PVTZ
  Basis Set:
  @DF-RHF Final Energy:  -227.90016006261121
    Total Energy =                       -227.9001600626112349
  Basis Set: CC-PVTZ
  Basis Set:
  Basis Set: CC-PVTZ
  Basis Set:
  @DF-RHF Final Energy:  -227.90018101092087
    Total Energy =                       -227.9001810109207327
  Basis Set: CC-PVTZ
  Basis Set:
  Basis Set: CC-PVTZ
  Basis Set:
  @DF-RHF Final Energy:  -227.90018256604566
    Total Energy =                       -227.9001825660457143
  Basis Set: CC-PVTZ
  Basis Set:
  Charge       = 0
  Multiplicity = 1
  Basis Set: CC-PVTZ
  Basis Set:

    Orbital Energies (a.u.)
    -----------------------

    Doubly Occupied:

       1A    -20.603286     2A    -20.544005     3A    -11.378804
       4A    -11.239627     5A     -1.476995     6A     -1.372159
       7A     -1.027549     8A     -0.833743     9A     -0.707320
      10A     -0.684687    11A     -0.658983    12A     -0.584404
      13A     -0.578381    14A     -0.552919    15A     -0.487781
      16A     -0.452466

  @DF-RHF Final Energy:  -227.90018246164729

   => Energetics <=

    Nuclear Repulsion Energy =            122.6584549690341248
    One-Electron Energy =                -554.7510601832992734
    Two-Electron Energy =                 204.1924227526179152
    DFT Exchange-Correlation Energy =       0.0000000000000000
    Empirical Dispersion Energy =           0.0000000000000000
    PCM Polarization Energy =               0.0000000000000000
    EFP Energy =                            0.0000000000000000
    Total Energy =                       -227.9001824616472618
    Molecular point group: c1
  Basis Set: CC-PVTZ
  Basis Set:

  -Total Gradient:
     Atom            X                  Y                   Z
    ------   -----------------  -----------------  -----------------
       1       -0.000098584010    -0.000791885747    -0.009614150910
       2        0.001192087170     0.001362415293     0.009558425205
       3       -0.003667810178    -0.001950204481     0.005399306245
       4        0.002648807147     0.001177834238    -0.005442690189
       5       -0.000103961512     0.000206617830     0.000080995869
       6       -0.000001114917    -0.000019328958    -0.000005054039
       7        0.000005452568     0.000008788289     0.000022776147
       8        0.000025123733     0.000005763535     0.000000391673

  **** Optimization is complete! (in 8 steps) ****
    Final optimized geometry and variables:
    Molecular point group: c1

    Geometry (in Angstrom), charge = 0, multiplicity = 1:

    H            1.609877525030    -0.890623899398     0.131406762556
    O            0.681400060337    -1.063386245148     0.153078694663
    C            0.020402052763     0.093462976036     0.060477580728
    C           -1.309990021454    -0.066385332827    -0.612500739065
    O            0.490899792810     1.120389939570     0.402574975780
    H           -1.126030003561    -0.248913346669    -1.664430372423
    H           -1.891804077119     0.833234779120    -0.495114343185
    H           -1.842389815070    -0.920796388944    -0.217643849077

  Mulliken Charges: (a.u.)
   Center  Symbol    Alpha    Beta     Spin     Total
       1     H     0.37848  0.37848  0.00000  0.24303
       2     O     4.16691  4.16691  0.00000 -0.33382
       3     C     2.80369  2.80369  0.00000  0.39261
       4     C     3.13706  3.13706  0.00000 -0.27411
       5     O     4.18572  4.18572  0.00000 -0.37143
       6     H     0.44593  0.44593  0.00000  0.10814
       7     H     0.43820  0.43820  0.00000  0.12359
       8     H     0.44400  0.44400  0.00000  0.11200

   Total alpha = 16.00000, Total beta = 16.00000, Total charge = -0.00000
