  ==> Input File <==

--------------------------------------------------------------------------
set {
	reference rhf
	basis cc-pvtz
}

set_num_threads( 4 )
memory 2 gb

molecule MOL {
0 1

H	 -2.739889	 1.763666	 1.671796
C	 -2.554308	 0.756485	 1.359617
C	 -1.468122	 0.481857	 0.679819
H	 -3.265538	 -0.004312	 1.614840
O	 -1.189946	 -0.765863	 0.237511
H	 -0.744570	 1.234948	 0.425942
C	 0.026572	 -0.995256	 -0.379403
C	 1.057223	 0.049888	 -0.004615
H	 -0.054361	 -1.010670	 -1.459674
H	 0.397526	 -1.952058	 -0.044198
F	 2.203233	 -0.234060	 -0.590375
F	 0.698147	 1.254887	 -0.392621
F	 1.266440	 0.094219	 1.288722

	symmetry c1
}
set optking {
	frozen_dihedral = ("
		3 5 7 9
	")
}

ee = optimize('scf')
oeprop('DIPOLE', 'QUADRUPOLE', 'MULLIKEN_CHARGES')
f=open( 'psi4out.xyz', 'w' )
f.write( "13  " )
f.write( str(ee) + "\n" )
f.write( MOL.save_string_xyz() )
f.close()
--------------------------------------------------------------------------

    Molecular point group: c1
  Charge       = 0
  Multiplicity = 1
  Basis Set: CC-PVTZ
  Basis Set:
  @DF-RHF Final Energy:  -527.71494231866836
    Total Energy =                       -527.7149423186685908
    Molecular point group: c1
  Basis Set: CC-PVTZ
  Basis Set:
  Basis Set: CC-PVTZ
  Basis Set:
  @DF-RHF Final Energy:  -527.72801968667659
    Total Energy =                       -527.7280196866763617
  Basis Set: CC-PVTZ
  Basis Set:
  Basis Set: CC-PVTZ
  Basis Set:
  @DF-RHF Final Energy:  -527.73211576325355
    Total Energy =                       -527.7321157632533186
  Basis Set: CC-PVTZ
  Basis Set:
  Basis Set: CC-PVTZ
  Basis Set:
  @DF-RHF Final Energy:  -527.73298260957802
    Total Energy =                       -527.7329826095783574
  Basis Set: CC-PVTZ
  Basis Set:
  @DF-RHF Final Energy:  -527.73324470804096
    Total Energy =                       -527.7332447080409565
  @DF-RHF Final Energy:  -527.73330170861436
    Total Energy =                       -527.7333017086142490
  Basis Set: CC-PVTZ
  Basis Set:
  @DF-RHF Final Energy:  -527.73331828559492
    Total Energy =                       -527.7333182855949190
  Basis Set: CC-PVTZ
  Basis Set:
  Basis Set: CC-PVTZ
  Basis Set:
  @DF-RHF Final Energy:  -527.73332227234778
    Total Energy =                       -527.7333222723476638
  Basis Set: CC-PVTZ
  Basis Set:
  Basis Set: CC-PVTZ
  Basis Set:
  @DF-RHF Final Energy:  -527.73332356415244
    Total Energy =                       -527.7333235641523288
  Basis Set: CC-PVTZ
  Basis Set:
  Charge       = 0
  Multiplicity = 1
  Basis Set: CC-PVTZ
  Basis Set:

    Orbital Energies (a.u.)
    -----------------------

    Doubly Occupied:

       1A    -26.347944     2A    -26.347506     3A    -26.347093
       4A    -20.599617     5A    -11.507858     6A    -11.321286
       7A    -11.295427     8A    -11.210293     9A     -1.758409
      10A     -1.654070    11A     -1.653269    12A     -1.437098
      13A     -1.088589    14A     -1.023563    15A     -0.937792
      16A     -0.851606    17A     -0.847620    18A     -0.842252
      19A     -0.770563    20A     -0.731522    21A     -0.728820
      22A     -0.708284    23A     -0.688331    24A     -0.671033
      25A     -0.664679    26A     -0.658808    27A     -0.649108
      28A     -0.588929    29A     -0.560837    30A     -0.532519
      31A     -0.503813    32A     -0.352211

  @DF-RHF Final Energy:  -527.73332400438176

   => Energetics <=

    Nuclear Repulsion Energy =            416.2010057507391139
    One-Electron Energy =               -1556.1071539010645211
    Two-Electron Energy =                 612.1728241459438777
    DFT Exchange-Correlation Energy =       0.0000000000000000
    Empirical Dispersion Energy =           0.0000000000000000
    PCM Polarization Energy =               0.0000000000000000
    EFP Energy =                            0.0000000000000000
    Total Energy =                       -527.7333240043815294
    Molecular point group: c1
  Basis Set: CC-PVTZ
  Basis Set:

  -Total Gradient:
     Atom            X                  Y                   Z
    ------   -----------------  -----------------  -----------------
       1        0.000000550233    -0.000002579520     0.000001827893
       2        0.000019919179    -0.000006311263    -0.000022228420
       3        0.001207286443    -0.000695419957     0.002782253538
       4        0.000002303477     0.000002591701    -0.000008207399
       5       -0.002081687835     0.000051839618    -0.004175167476
       6        0.000009289992    -0.000004331807     0.000006347527
       7        0.001414623742     0.004071986806     0.001252371446
       8       -0.000007165985    -0.000035439811    -0.000009348168
       9       -0.000565433715    -0.003405457044     0.000151689192
      10       -0.000056774528     0.000018620303     0.000018906570
      11        0.000024155084    -0.000003561387     0.000009917471
      12        0.000002214575    -0.000014946889     0.000007929018
      13        0.000030719335     0.000023009249    -0.000016291193

  **** Optimization is complete! (in 10 steps) ****
    Final optimized geometry and variables:
    Molecular point group: c1

    Geometry (in Angstrom), charge = 0, multiplicity = 1:

    H           -3.166225800562     1.598813397783     1.521377303236
    C           -2.880100569557     0.621487823594     1.190601715544
    C           -1.792715611364     0.477657639095     0.471860738489
    H           -3.495021917887    -0.215969339951     1.456217207782
    O           -1.411520810718    -0.736274485709     0.012581056292
    H           -1.180532913780     1.313407522531     0.201985072930
    C           -0.191361031564    -0.986869449493    -0.600135739444
    C            0.973466416530    -0.070327264466    -0.277909901180
    H           -0.301120102465    -1.015783650383    -1.677770689930
    H            0.117467229356    -1.970999652630    -0.278480619601
    F            2.071028252378    -0.614419088326    -0.758680509814
    F            0.863438833827     1.124164847331    -0.825137436825
    F            1.137133893650     0.099045809268     1.012868093032

  Mulliken Charges: (a.u.)
   Center  Symbol    Alpha    Beta     Spin     Total
       1     H     0.42518  0.42518  0.00000  0.14964
       2     C     3.19919  3.19919  0.00000 -0.39838
       3     C     2.96765  2.96765  0.00000  0.06470
       4     H     0.42632  0.42632  0.00000  0.14735
       5     O     4.14557  4.14557  0.00000 -0.29113
       6     H     0.42318  0.42318  0.00000  0.15363
       7     C     2.99637  2.99637  0.00000  0.00727
       8     C     2.68997  2.68997  0.00000  0.62007
       9     H     0.45370  0.45370  0.00000  0.09260
      10     H     0.44590  0.44590  0.00000  0.10820
      11     F     4.60644  4.60644  0.00000 -0.21287
      12     F     4.61277  4.61277  0.00000 -0.22554
      13     F     4.60776  4.60776  0.00000 -0.21553

   Total alpha = 32.00000, Total beta = 32.00000, Total charge = -0.00000
