  ==> Input File <==

--------------------------------------------------------------------------
set {
	reference rhf
	basis 6-31G*
}

set_num_threads( 1 )
memory 2 gb

molecule MOL {
0 1

H	 2.366820	 -0.624721	 -0.615180
C	 1.951159	 -0.223429	 0.317018
C	 0.692068	 0.589600	 0.160137
O	 2.490576	 -0.441001	 1.353272
C	 -0.558097	 -0.297372	 0.091132
H	 0.791645	 1.202255	 -0.728243
H	 0.616171	 1.253469	 1.020572
C	 -1.850991	 0.512573	 -0.019058
H	 -0.476753	 -0.965681	 -0.762987
H	 -0.604799	 -0.930658	 0.975228
C	 -3.096943	 -0.368295	 -0.099594
H	 -1.800724	 1.150330	 -0.898172
H	 -1.931651	 1.177355	 0.838044
H	 -3.060452	 -1.020287	 -0.967456
H	 -3.996858	 0.233488	 -0.175704
H	 -3.191959	 -0.995686	 0.782074

	symmetry c1
}
set optking {
	frozen_dihedral = ("
		9 5 8 12,
		6 3 5 9
	")
}

ee = energy('scf')
oeprop('DIPOLE', 'QUADRUPOLE', 'MULLIKEN_CHARGES')
f=open( 'psi4out.xyz', 'w' )
f.write( "16  " )
f.write( str(ee) + "\n" )
f.write( MOL.save_string_xyz() )
f.close()
--------------------------------------------------------------------------

    Molecular point group: c1

    Geometry (in Angstrom), charge = 0, multiplicity = 1:

       Center              X                  Y                   Z               Mass
    ------------   -----------------  -----------------  -----------------  -----------------
           H          2.435296520813    -0.578095197478    -0.923116911296     1.007825032070
           C          2.019635520813    -0.176803197478     0.009081088704    12.000000000000
           C          0.760544520813     0.636225802522    -0.147799911296    12.000000000000
           O          2.559052520813    -0.394375197478     1.045335088704    15.994914619560
           C         -0.489620479187    -0.250746197478    -0.216804911296    12.000000000000
           H          0.860121520813     1.248880802522    -1.036179911296     1.007825032070
           H          0.684647520813     1.300094802522     0.712635088704     1.007825032070
           C         -1.782514479187     0.559198802522    -0.326994911296    12.000000000000
           H         -0.408276479187    -0.919055197478    -1.070923911296     1.007825032070
           H         -0.536322479187    -0.884032197478     0.667291088704     1.007825032070
           C         -3.028466479187    -0.321669197478    -0.407530911296    12.000000000000
           H         -1.732247479187     1.196955802522    -1.206108911296     1.007825032070
           H         -1.863174479187     1.223980802522     0.530107088704     1.007825032070
           H         -2.991975479187    -0.973661197478    -1.275392911296     1.007825032070
           H         -3.928381479187     0.280113802522    -0.483640911296     1.007825032070
           H         -3.123482479187    -0.949060197478     0.474137088704     1.007825032070

  Charge       = 0
  Multiplicity = 1
  Basis Set: 6-31G*
  Basis Set:

    Orbital Energies (a.u.)
    -----------------------

    Doubly Occupied:

       1A    -20.562752     2A    -11.326498     3A    -11.236249
       4A    -11.234728     5A    -11.228407     6A    -11.217646
       7A     -1.402513     8A     -1.095142     9A     -1.018038
      10A     -0.906962    11A     -0.812755    12A     -0.788915
      13A     -0.681376    14A     -0.644859    15A     -0.629330
      16A     -0.603517    17A     -0.577850    18A     -0.552167
      19A     -0.524904    20A     -0.511733    21A     -0.486827
      22A     -0.480190    23A     -0.477158    24A     -0.408310

  @DF-RHF Final Energy:  -270.01905357309198

   => Energetics <=

    Nuclear Repulsion Energy =            229.5926463862260789
    One-Electron Energy =                -820.4057182290277979
    Two-Electron Energy =                 320.7940182697103637
    DFT Exchange-Correlation Energy =       0.0000000000000000
    Empirical Dispersion Energy =           0.0000000000000000
    PCM Polarization Energy =               0.0000000000000000
    EFP Energy =                            0.0000000000000000
    Total Energy =                       -270.0190535730913552

  Mulliken Charges: (a.u.)
   Center  Symbol    Alpha    Beta     Spin     Total
       1     H     0.43155  0.43155  0.00000  0.13691
       2     C     2.83509  2.83509  0.00000  0.32981
       3     C     3.20372  3.20372  0.00000 -0.40744
       4     O     4.23582  4.23582  0.00000 -0.47163
       5     C     3.16242  3.16242  0.00000 -0.32484
       6     H     0.41344  0.41344  0.00000  0.17313
       7     H     0.40143  0.40143  0.00000  0.19713
       8     C     3.15184  3.15184  0.00000 -0.30368
       9     H     0.41925  0.41925  0.00000  0.16151
      10     H     0.40929  0.40929  0.00000  0.18143
      11     C     3.24065  3.24065  0.00000 -0.48130
      12     H     0.42110  0.42110  0.00000  0.15779
      13     H     0.41840  0.41840  0.00000  0.16320
      14     H     0.42049  0.42049  0.00000  0.15902
      15     H     0.41656  0.41656  0.00000  0.16688
      16     H     0.41895  0.41895  0.00000  0.16210

   Total alpha = 24.00000, Total beta = 24.00000, Total charge =  0.00000
