  ==> Input File <==

--------------------------------------------------------------------------
set {
	reference rhf
	basis cc-pvtz
}

set_num_threads( 4 )
memory 2 gb

molecule MOL {
0 1

H	 2.646708	 0.758099	 0.000000
O	 2.258158	 -0.097743	 0.000000
C	 0.911162	 -0.015915	 0.000000
C	 0.345220	 1.230288	 -0.213284
C	 0.102469	 -1.118348	 0.202677
H	 0.987961	 2.074226	 -0.368691
C	 -1.026516	 1.361977	 -0.221795
H	 0.541534	 -2.085546	 0.368212
C	 -1.273284	 -0.971253	 0.191498
H	 -1.459540	 2.330176	 -0.387571
C	 -1.847333	 0.264752	 -0.019905
H	 -1.894012	 -1.832637	 0.349740
H	 -2.913946	 0.375064	 -0.027916

	symmetry c1
}
set optking {
	frozen_dihedral = ("
		4 3 2 1
	")
}

ee = optimize('scf')
oeprop('DIPOLE', 'QUADRUPOLE', 'MULLIKEN_CHARGES')
f=open( 'psi4out.xyz', 'w' )
f.write( "13  " )
f.write( str(ee) + "\n" )
f.write( MOL.save_string_xyz() )
f.close()
--------------------------------------------------------------------------

    Molecular point group: c1
  Charge       = 0
  Multiplicity = 1
  Basis Set: CC-PVTZ
  Basis Set:
  @DF-RHF Final Energy:  -305.66844930142855
    Total Energy =                       -305.6684493014286090
    Molecular point group: c1
  Basis Set: CC-PVTZ
  Basis Set:
  Basis Set: CC-PVTZ
  Basis Set:
  @DF-RHF Final Energy:  -305.67024448633993
    Total Energy =                       -305.6702444863399251
  Basis Set: CC-PVTZ
  Basis Set:
  Basis Set: CC-PVTZ
  Basis Set:
  @DF-RHF Final Energy:  -305.67039899921843
    Total Energy =                       -305.6703989992186052
  Basis Set: CC-PVTZ
  Basis Set:
  Basis Set: CC-PVTZ
  Basis Set:
  @DF-RHF Final Energy:  -305.67042003998432
    Total Energy =                       -305.6704200399845490
  Basis Set: CC-PVTZ
  Basis Set:
  Basis Set: CC-PVTZ
  Basis Set:
  @DF-RHF Final Energy:  -305.67042407272407
    Total Energy =                       -305.6704240727239039
  Basis Set: CC-PVTZ
  Basis Set:
  Charge       = 0
  Multiplicity = 1
  Basis Set: CC-PVTZ
  Basis Set:

    Orbital Energies (a.u.)
    -----------------------

    Doubly Occupied:

       1A    -20.584723     2A    -11.297500     3A    -11.235225
       4A    -11.233425     5A    -11.226168     6A    -11.220609
       7A    -11.219527     8A     -1.415346     9A     -1.152666
      10A     -1.022810    11A     -1.008388    12A     -0.851211
      13A     -0.826746    14A     -0.741569    15A     -0.688285
      16A     -0.654817    17A     -0.612978    18A     -0.596520
      19A     -0.592058    20A     -0.566668    21A     -0.517562
      22A     -0.493079    23A     -0.485328    24A     -0.343223
      25A     -0.314955

  @DF-RHF Final Energy:  -305.67042434377743

   => Energetics <=

    Nuclear Repulsion Energy =            273.8291092274495213
    One-Electron Energy =                -957.1962882914630200
    Two-Electron Energy =                 377.6967547202364699
    DFT Exchange-Correlation Energy =       0.0000000000000000
    Empirical Dispersion Energy =           0.0000000000000000
    PCM Polarization Energy =               0.0000000000000000
    EFP Energy =                            0.0000000000000000
    Total Energy =                       -305.6704243437770288
    Molecular point group: c1
  Basis Set: CC-PVTZ
  Basis Set:

  -Total Gradient:
     Atom            X                  Y                   Z
    ------   -----------------  -----------------  -----------------
       1        0.000008267821    -0.000002496029     0.000910399301
       2        0.000048555363    -0.000055438609    -0.001563624222
       3        0.000017870748     0.000190311903     0.001422207503
       4        0.000002534876    -0.000101996919    -0.000716241346
       5       -0.000079980046    -0.000009786373    -0.000030658654
       6       -0.000000951259    -0.000003107595    -0.000002358404
       7       -0.000007810589     0.000006892028    -0.000019859130
       8        0.000006281113     0.000005288763     0.000002641191
       9        0.000009226258    -0.000015816761    -0.000047223874
      10       -0.000009392004    -0.000004281209     0.000001716796
      11        0.000007316684    -0.000014702409     0.000033849756
      12       -0.000001978666    -0.000000359771     0.000009975041
      13        0.000000059703     0.000005492983    -0.000000823958

  **** Optimization is complete! (in 6 steps) ****
    Final optimized geometry and variables:
    Molecular point group: c1

    Geometry (in Angstrom), charge = 0, multiplicity = 1:

    H            2.694760033352     0.565346129466     0.011663660850
    O            2.245440029816    -0.260269749499     0.017828602913
    C            0.907610016194    -0.081220937174     0.010557799164
    C            0.328167988951     1.155053411263    -0.206704166627
    C            0.110199758837    -1.195671486224     0.210428150830
    H            0.947269472106     2.018565481590    -0.369992632238
    C           -1.049944860257     1.274755189411    -0.214828832968
    H            0.576565232957    -2.147053693989     0.374564397021
    C           -1.261670018474    -1.062558373934     0.195240907695
    H           -1.491787562215     2.238718933179    -0.381868830526
    C           -1.853543794874     0.171452122512    -0.015247248870
    H           -1.874525867928    -1.930006632554     0.351384887211
    H           -2.921539937882     0.267773645133    -0.023978645623

  Mulliken Charges: (a.u.)
   Center  Symbol    Alpha    Beta     Spin     Total
       1     H     0.38727  0.38727  0.00000  0.22546
       2     O     4.17533  4.17533  0.00000 -0.35065
       3     C     2.85005  2.85005  0.00000  0.29990
       4     C     3.13372  3.13372  0.00000 -0.26743
       5     C     3.11101  3.11101  0.00000 -0.22201
       6     H     0.43459  0.43459  0.00000  0.13082
       7     C     3.06479  3.06479  0.00000 -0.12958
       8     H     0.41943  0.41943  0.00000  0.16115
       9     C     3.05664  3.05664  0.00000 -0.11328
      10     H     0.42237  0.42237  0.00000  0.15525
      11     C     3.09847  3.09847  0.00000 -0.19694
      12     H     0.42242  0.42242  0.00000  0.15516
      13     H     0.42392  0.42392  0.00000  0.15216

   Total alpha = 25.00000, Total beta = 25.00000, Total charge = -0.00000
