  ==> Input File <==

--------------------------------------------------------------------------
set {
	reference rhf
	basis 6-31G*
}

set_num_threads( 1 )
memory 2 gb

molecule MOL {
0 1

H	 -2.701280	 0.829617	 -0.385284
N	 -1.718513	 0.910042	 -0.210140
C	 -0.962057	 0.755059	 -1.440123
H	 -1.468621	 0.181355	 0.429921
C	 0.521499	 0.841521	 -1.149056
H	 -1.156349	 -0.184343	 -1.959523
H	 -1.229097	 1.561965	 -2.115678
O	 0.874168	 -0.245412	 -0.342030
H	 1.089700	 0.817459	 -2.078683
H	 0.740147	 1.776950	 -0.638762
C	 2.202317	 -0.244239	 0.074611
H	 2.711377	 -1.041390	 -0.449894
H	 2.692099	 0.699270	 -0.159667
H	 2.283185	 -0.418429	 1.145558

	symmetry c1
}
set optking {
	frozen_dihedral = ("
		8 5 3 6,
		6 3 2 4,
		11 8 5 3
	")
}

ee = energy('scf')
oeprop('DIPOLE', 'QUADRUPOLE', 'MULLIKEN_CHARGES')
f=open( 'psi4out.xyz', 'w' )
f.write( "14  " )
f.write( str(ee) + "\n" )
f.write( MOL.save_string_xyz() )
f.close()
--------------------------------------------------------------------------

    Molecular point group: c1

    Geometry (in Angstrom), charge = 0, multiplicity = 1:

       Center              X                  Y                   Z               Mass
    ------------   -----------------  -----------------  -----------------  -----------------
           H         -2.888352261871     0.439284677823     0.212154809135     1.007825032070
           N         -1.905585261871     0.519709677823     0.387298809135    14.003074004780
           C         -1.149129261871     0.364726677823    -0.842684190865    12.000000000000
           H         -1.655693261871    -0.208977322177     1.027359809135     1.007825032070
           C          0.334426738129     0.451188677823    -0.551617190865    12.000000000000
           H         -1.343421261871    -0.574675322177    -1.362084190865     1.007825032070
           H         -1.416169261871     1.171632677823    -1.518239190865     1.007825032070
           O          0.687095738129    -0.635744322177     0.255408809135    15.994914619560
           H          0.902627738129     0.427126677823    -1.481244190865     1.007825032070
           H          0.553074738129     1.386617677823    -0.041323190865     1.007825032070
           C          2.015244738129    -0.634571322177     0.672049809135    12.000000000000
           H          2.524304738129    -1.431722322177     0.147544809135     1.007825032070
           H          2.505026738129     0.308937677823     0.437771809135     1.007825032070
           H          2.096112738129    -0.808761322177     1.742996809135     1.007825032070

  Charge       = 0
  Multiplicity = 1
  Basis Set: 6-31G*
  Basis Set:

    Orbital Energies (a.u.)
    -----------------------

    Doubly Occupied:

       1A    -20.554374     2A    -15.528214     3A    -11.266265
       4A    -11.265292     5A    -11.240431     6A     -1.380252
       7A     -1.173357     8A     -0.998339     9A     -0.907069
      10A     -0.816233    11A     -0.683132    12A     -0.671929
      13A     -0.643809    14A     -0.610996    15A     -0.605386
      16A     -0.538424    17A     -0.534777    18A     -0.495218
      19A     -0.474442    20A     -0.412274    21A     -0.379893

  @DF-RHF Final Energy:  -248.12101175858589

   => Energetics <=

    Nuclear Repulsion Energy =            194.7080625712896449
    One-Electron Energy =                -723.2978946840642038
    Two-Electron Energy =                 280.4688203541885514
    DFT Exchange-Correlation Energy =       0.0000000000000000
    Empirical Dispersion Energy =           0.0000000000000000
    PCM Polarization Energy =               0.0000000000000000
    EFP Energy =                            0.0000000000000000
    Total Energy =                       -248.1210117585859507

  Mulliken Charges: (a.u.)
   Center  Symbol    Alpha    Beta     Spin     Total
       1     H     0.33287  0.33287  0.00000  0.33427
       2     N     3.92532  3.92532  0.00000 -0.85064
       3     C     3.06903  3.06903  0.00000 -0.13806
       4     H     0.32363  0.32363  0.00000  0.35274
       5     C     2.99177  2.99177  0.00000  0.01645
       6     H     0.42664  0.42664  0.00000  0.14672
       7     H     0.42059  0.42059  0.00000  0.15883
       8     O     4.31182  4.31182  0.00000 -0.62363
       9     H     0.43105  0.43105  0.00000  0.13790
      10     H     0.42156  0.42156  0.00000  0.15688
      11     C     3.07656  3.07656  0.00000 -0.15313
      12     H     0.42218  0.42218  0.00000  0.15565
      13     H     0.42858  0.42858  0.00000  0.14285
      14     H     0.41840  0.41840  0.00000  0.16319

   Total alpha = 21.00000, Total beta = 21.00000, Total charge = -0.00000
