                              Psi4 1.0.54 Driver

  ==> Input File <==

--------------------------------------------------------------------------
set {
	reference rhf
	basis cc-pvtz
}

set_num_threads( 4 )
memory 2 gb

molecule MOL {
0 1

H	 -0.000342	 -0.223902	 -3.352295
C	 -0.027146	 0.371068	 -2.446756
C	 0.024493	 -0.518541	 -1.216015
H	 -0.932586	 0.964979	 -2.449855
H	 0.819708	 1.049865	 -2.473332
N	 -0.042516	 0.263377	 0.000000
H	 -0.822211	 -1.197105	 -1.225584
H	 0.921114	 -1.142847	 -1.255206
C	 0.024493	 -0.518541	 1.216015
H	 0.682568	 0.950412	 0.000000
C	 -1.309775	 -0.522275	 1.943001
H	 0.291476	 -1.535243	 0.946785
H	 0.806559	 -0.162492	 1.891903
H	 -2.090583	 -0.915857	 1.304258
H	 -1.257182	 -1.129147	 2.839466
H	 -1.594404	 0.482050	 2.241248

	symmetry c1
}
set optking {
	frozen_dihedral = ("
		12 9 6 3
	")
}

ee,wfn = optimize('scf', return_wfn=True)
oeprop( wfn, 'DIPOLE', 'QUADRUPOLE', 'MULLIKEN_CHARGES')
f=open( 'psi4out.xyz', 'w' )
f.write( "16  " )
f.write( str(ee) + "\n" )
f.write( MOL.save_string_xyz() )
f.close()
--------------------------------------------------------------------------

    Molecular point group: c1
  Charge       = 0
  Multiplicity = 1
  Basis Set: CC-PVTZ
  Basis Set:
  @DF-RHF Final Energy:  -212.38973395081186
    Total Energy =                       -212.3897339508120012
    Molecular point group: c1
  Basis Set: CC-PVTZ
  Basis Set:
  Basis Set: CC-PVTZ
  Basis Set:
  @DF-RHF Final Energy:  -212.29560227585995
    Total Energy =                       -212.2956022758600341
  Basis Set: CC-PVTZ
  Basis Set:
  Basis Set: CC-PVTZ
  Basis Set:
  @DF-RHF Final Energy:  -212.37532432035457
    Total Energy =                       -212.3753243203545082
  Basis Set: CC-PVTZ
  Basis Set:
  Basis Set: CC-PVTZ
  Basis Set:
  @DF-RHF Final Energy:  -212.39026223085347
    Total Energy =                       -212.3902622308531249
  Basis Set: CC-PVTZ
  Basis Set:
  Basis Set: CC-PVTZ
  Basis Set:
  @DF-RHF Final Energy:  -212.39043898788080
    Total Energy =                       -212.3904389878806569
  Basis Set: CC-PVTZ
  Basis Set:
  Basis Set: CC-PVTZ
  Basis Set:
  @DF-RHF Final Energy:  -212.39046638895852
    Total Energy =                       -212.3904663889584299
  Basis Set: CC-PVTZ
  Basis Set:
  Charge       = 0
  Multiplicity = 1
  Basis Set: CC-PVTZ
  Basis Set:

    Orbital Energies (a.u.)
    -----------------------

    Doubly Occupied:

       1A    -15.527243     2A    -11.239972     3A    -11.239516
       4A    -11.206448     5A    -11.199616     6A     -1.203486
       7A     -1.025951     8A     -0.964811     9A     -0.838981
      10A     -0.810741    11A     -0.665378    12A     -0.626563
      13A     -0.611835    14A     -0.570751    15A     -0.550748
      16A     -0.527119    17A     -0.505081    18A     -0.493390
      19A     -0.482475    20A     -0.469019    21A     -0.358926

  @DF-RHF Final Energy:  -212.39046760021921

   => Energetics <=

    Nuclear Repulsion Energy =            189.9365483312819265
    One-Electron Energy =                -662.4179244483403863
    Two-Electron Energy =                 260.0909085168394768
    DFT Exchange-Correlation Energy =       0.0000000000000000
    Empirical Dispersion Energy =           0.0000000000000000
    PCM Polarization Energy =               0.0000000000000000
    EFP Energy =                            0.0000000000000000
    Total Energy =                       -212.3904676002189831
    Molecular point group: c1
  Basis Set: CC-PVTZ
  Basis Set:

  -Total Gradient:
     Atom            X                  Y                   Z
    ------   -----------------  -----------------  -----------------
       1        0.000005189616     0.000001698596     0.000006916042
       2       -0.000022741607    -0.000016995186     0.000000334328
       3        0.001313437454    -0.000399050063     0.000208831001
       4        0.000004165139    -0.000009276192     0.000006056061
       5        0.000012667876     0.000003675992     0.000001776987
       6       -0.002317773450     0.000624259960    -0.000469673611
       7       -0.000005800204    -0.000006184835    -0.000020018814
       8       -0.000000468938     0.000017899677     0.000006813522
       9        0.002752418908    -0.000479657305     0.000813814284
      10       -0.000002511922    -0.000002418901     0.000006574960
      11       -0.000046232924    -0.000009918263    -0.000026233035
      12       -0.001711298755     0.000313712435    -0.000527594583
      13        0.000025719800    -0.000016621799    -0.000000833601
      14       -0.000028288714     0.000008847056     0.000005242628
      15       -0.000002988299    -0.000001945602    -0.000000198401
      16        0.000024506019    -0.000028025570    -0.000011807768

  **** Optimization is complete! (in 7 steps) ****
    Final optimized geometry and variables:
    Molecular point group: c1

    Geometry (in Angstrom), charge = 0, multiplicity = 1:

    H            0.982459724356     0.572256054939    -3.068319081274
    C            0.916323416770     0.927303397915    -2.046349721896
    C            0.435211495725    -0.178363126796    -1.122317840562
    H            0.238948309220     1.771497148384    -2.015743928682
    H            1.901831978621     1.277339001738    -1.754620584936
    N            0.322741721266     0.293344691151     0.242612466522
    H           -0.543827784425    -0.515477782744    -1.446595587146
    H            1.102587890873    -1.039418233257    -1.207038491609
    C           -0.149958725190    -0.691792451235     1.207074591466
    H            1.195290900438     0.673763904775     0.535370138467
    C           -1.541663789334    -0.357332709404     1.727966363628
    H           -0.173670827922    -1.680943373382     0.756079736686
    H            0.540620985871    -0.749146395295     2.041910091943
    H           -2.253762762585    -0.306643802752     0.912103648952
    H           -1.884923442877    -1.109390330644     2.431601425090
    H           -1.540476678227     0.604579972958     2.226062033021

  Mulliken Charges: (a.u.)
   Center  Symbol    Alpha    Beta     Spin     Total
       1     H     0.45427  0.45427  0.00000  0.09147
       2     C     3.14398  3.14398  0.00000 -0.28797
       3     C     3.02305  3.02305  0.00000 -0.04610
       4     H     0.44956  0.44956  0.00000  0.10088
       5     H     0.45956  0.45956  0.00000  0.08089
       6     N     3.63981  3.63981  0.00000 -0.27963
       7     H     0.45859  0.45859  0.00000  0.08283
       8     H     0.47196  0.47196  0.00000  0.05607
       9     C     3.03787  3.03787  0.00000 -0.07575
      10     H     0.44374  0.44374  0.00000  0.11252
      11     C     3.12695  3.12695  0.00000 -0.25391
      12     H     0.46389  0.46389  0.00000  0.07222
      13     H     0.45539  0.45539  0.00000  0.08922
      14     H     0.45654  0.45654  0.00000  0.08692
      15     H     0.45950  0.45950  0.00000  0.08100
      16     H     0.45534  0.45534  0.00000  0.08933

   Total alpha = 21.00000, Total beta = 21.00000, Total charge =  0.00000

*** Psi4 exiting successfully. Buy a developer a beer!
