  ==> Input File <==

--------------------------------------------------------------------------
set {
	reference rhf
	basis 6-31G*
}

set_num_threads( 1 )
memory 2 gb

molecule MOL {
0 1

O	 2.090744	 1.161618	 2.265895
C	 2.050957	 0.172044	 1.608461
C	 1.245376	 -0.013843	 0.345420
O	 2.729790	 -0.927748	 1.910574
C	 0.455112	 1.231400	 -0.050772
H	 1.937871	 -0.320461	 -0.431515
H	 0.584542	 -0.861973	 0.505644
C	 -0.998893	 1.219485	 0.433193
H	 0.482531	 1.345121	 -1.130325
H	 0.957290	 2.103070	 0.354729
C	 -1.883438	 0.145884	 -0.207175
H	 -1.431207	 2.195402	 0.224832
H	 -1.019646	 1.105716	 1.516076
C	 -3.347647	 0.245583	 0.225435
H	 -1.822183	 0.231698	 -1.291012
H	 -1.510341	 -0.844814	 0.042401
C	 -4.239992	 -0.825570	 -0.404234
H	 -3.732888	 1.230466	 -0.033079
H	 -3.408585	 0.170602	 1.310038
C	 -5.701275	 -0.716658	 0.029921
H	 -4.179496	 -0.752714	 -1.488058
H	 -3.859041	 -1.810759	 -0.143352
H	 -6.308102	 -1.488908	 -0.432678
H	 -6.122175	 0.245478	 -0.248167
H	 -5.799072	 -0.820114	 1.106957
C	 3.529085	 -0.888926	 3.078695
H	 4.283088	 -0.119214	 2.997900
H	 3.992762	 -1.860375	 3.151481
H	 2.919461	 -0.698742	 3.950317

	symmetry c1
}
set optking {
	frozen_dihedral = ("
		21 17 14 11,
		17 14 11 15,
		15 11 8 5,
		11 8 5 9,
		2 4 26 27,
		1 2 4 26,
		6 3 2 1
	")
}

ee = energy('scf')
oeprop('DIPOLE', 'QUADRUPOLE', 'MULLIKEN_CHARGES')
f=open( 'psi4out.xyz', 'w' )
f.write( "29  " )
f.write( str(ee) + "\n" )
f.write( MOL.save_string_xyz() )
f.close()
--------------------------------------------------------------------------

    Molecular point group: c1

    Geometry (in Angstrom), charge = 0, multiplicity = 1:

       Center              X                  Y                   Z               Mass
    ------------   -----------------  -----------------  -----------------  -----------------
           O          2.431018369605     1.100810319694     1.396046488159    15.994914619560
           C          2.391231369605     0.111236319694     0.738612488159    12.000000000000
           C          1.585650369605    -0.074650680306    -0.524428511841    12.000000000000
           O          3.070064369605    -0.988555680306     1.040725488159    15.994914619560
           C          0.795386369605     1.170592319694    -0.920620511841    12.000000000000
           H          2.278145369605    -0.381268680306    -1.301363511841     1.007825032070
           H          0.924816369605    -0.922780680306    -0.364204511841     1.007825032070
           C         -0.658618630395     1.158677319694    -0.436655511841    12.000000000000
           H          0.822805369605     1.284313319694    -2.000173511841     1.007825032070
           H          1.297564369605     2.042262319694    -0.515119511841     1.007825032070
           C         -1.543163630395     0.085076319694    -1.077023511841    12.000000000000
           H         -1.090932630395     2.134594319694    -0.645016511841     1.007825032070
           H         -0.679371630395     1.044908319694     0.646227488159     1.007825032070
           C         -3.007372630395     0.184775319694    -0.644413511841    12.000000000000
           H         -1.481908630395     0.170890319694    -2.160860511841     1.007825032070
           H         -1.170066630395    -0.905621680306    -0.827447511841     1.007825032070
           C         -3.899717630395    -0.886377680306    -1.274082511841    12.000000000000
           H         -3.392613630395     1.169658319694    -0.902927511841     1.007825032070
           H         -3.068310630395     0.109794319694     0.440189488159     1.007825032070
           C         -5.361000630395    -0.777465680306    -0.839927511841    12.000000000000
           H         -3.839221630395    -0.813521680306    -2.357906511841     1.007825032070
           H         -3.518766630395    -1.871566680306    -1.013200511841     1.007825032070
           H         -5.967827630395    -1.549715680306    -1.302526511841     1.007825032070
           H         -5.781900630395     0.184670319694    -1.118015511841     1.007825032070
           H         -5.458797630395    -0.880921680306     0.237108488159     1.007825032070
           C          3.869359369605    -0.949733680306     2.208846488159    12.000000000000
           H          4.623362369605    -0.180021680306     2.128051488159     1.007825032070
           H          4.333036369605    -1.921182680306     2.281632488159     1.007825032070
           H          3.259735369605    -0.759549680306     3.080468488159     1.007825032070

  Charge       = 0
  Multiplicity = 1
  Basis Set: 6-31G*
  Basis Set:

    Orbital Energies (a.u.)
    -----------------------

    Doubly Occupied:

       1A    -20.604030     2A    -20.546035     3A    -11.372364
       4A    -11.281059     5A    -11.233480     6A    -11.216557
       7A    -11.214939     8A    -11.214619     9A    -11.213832
      10A    -11.213120    11A    -11.208207    12A     -1.469734
      13A     -1.363446    14A     -1.096825    15A     -1.065895
      16A     -1.017957    17A     -0.976902    18A     -0.927023
      19A     -0.861269    20A     -0.800095    21A     -0.789994
      22A     -0.762209    23A     -0.700524    24A     -0.682154
      25A     -0.671990    26A     -0.652568    27A     -0.621691
      28A     -0.612437    29A     -0.589859    30A     -0.580226
      31A     -0.564412    32A     -0.549422    33A     -0.536106
      34A     -0.526474    35A     -0.517909    36A     -0.502682
      37A     -0.500556    38A     -0.474939    39A     -0.468883
      40A     -0.460076    41A     -0.457319    42A     -0.456801
      43A     -0.438942    44A     -0.436406

  @DF-RHF Final Energy:  -501.04080999776806

   => Energetics <=

    Nuclear Repulsion Energy =            618.5103682074964127
    One-Electron Energy =               -1908.1985508467942054
    Two-Electron Energy =                 788.6473726415316605
    DFT Exchange-Correlation Energy =       0.0000000000000000
    Empirical Dispersion Energy =           0.0000000000000000
    PCM Polarization Energy =               0.0000000000000000
    EFP Energy =                            0.0000000000000000
    Total Energy =                       -501.0408099977661323

  Mulliken Charges: (a.u.)
   Center  Symbol    Alpha    Beta     Spin     Total
       1     O     4.28551  4.28551  0.00000 -0.57102
       2     C     2.60909  2.60909  0.00000  0.78182
       3     C     3.21070  3.21070  0.00000 -0.42141
       4     O     4.30627  4.30627  0.00000 -0.61255
       5     C     3.16273  3.16273  0.00000 -0.32547
       6     H     0.39734  0.39734  0.00000  0.20531
       7     H     0.39801  0.39801  0.00000  0.20398
       8     C     3.15701  3.15701  0.00000 -0.31403
       9     H     0.41969  0.41969  0.00000  0.16063
      10     H     0.39712  0.39712  0.00000  0.20576
      11     C     3.15459  3.15459  0.00000 -0.30917
      12     H     0.41939  0.41939  0.00000  0.16122
      13     H     0.41761  0.41761  0.00000  0.16478
      14     C     3.15010  3.15010  0.00000 -0.30019
      15     H     0.42399  0.42399  0.00000  0.15201
      16     H     0.42502  0.42502  0.00000  0.14997
      17     C     3.15139  3.15139  0.00000 -0.30277
      18     H     0.42323  0.42323  0.00000  0.15353
      19     H     0.42338  0.42338  0.00000  0.15324
      20     C     3.23931  3.23931  0.00000 -0.47862
      21     H     0.42321  0.42321  0.00000  0.15358
      22     H     0.42361  0.42361  0.00000  0.15277
      23     H     0.41950  0.41950  0.00000  0.16100
      24     H     0.42160  0.42160  0.00000  0.15681
      25     H     0.42165  0.42165  0.00000  0.15671
      26     C     3.09229  3.09229  0.00000 -0.18457
      27     H     0.40901  0.40901  0.00000  0.18198
      28     H     0.40847  0.40847  0.00000  0.18306
      29     H     0.40918  0.40918  0.00000  0.18164

   Total alpha = 44.00000, Total beta = 44.00000, Total charge =  0.00000
