                              Psi4 1.0.54 Driver

  ==> Input File <==

--------------------------------------------------------------------------
set {
	reference rhf
	basis cc-pvtz
}

set_num_threads( 4 )
memory 2 gb

molecule MOL {
0 1

H	 1.469018	 1.154996	 0.554158
C	 0.848385	 0.440008	 0.000011
C	 -0.623497	 0.751021	 0.000090
O	 1.346793	 -0.486929	 -0.538154
C	 -1.523725	 -0.474323	 -0.000013
H	 -0.813143	 1.382932	 -0.864897
H	 -0.813071	 1.382716	 0.865253
H	 -1.342980	 -1.087348	 -0.873016
H	 -2.565269	 -0.177464	 0.000070
H	 -1.342898	 -1.087564	 0.872820

	symmetry c1
}
set optking {
	frozen_dihedral = ("
		4 2 3 6
	")
}

ee,wfn = optimize('scf', return_wfn=True)
oeprop( wfn, 'DIPOLE', 'QUADRUPOLE', 'MULLIKEN_CHARGES')
f=open( 'psi4out.xyz', 'w' )
f.write( "10  " )
f.write( str(ee) + "\n" )
f.write( MOL.save_string_xyz() )
f.close()
--------------------------------------------------------------------------

    Molecular point group: c1
  Charge       = 0
  Multiplicity = 1
  Basis Set: CC-PVTZ
  Basis Set:
  @DF-RHF Final Energy:  -192.02261981585036
    Total Energy =                       -192.0226198158504189
    Molecular point group: c1
  Basis Set: CC-PVTZ
  Basis Set:
  Basis Set: CC-PVTZ
  Basis Set:
  @DF-RHF Final Energy:  -192.02164590298440
    Total Energy =                       -192.0216459029842611
  Basis Set: CC-PVTZ
  Basis Set:
  Basis Set: CC-PVTZ
  Basis Set:
  @DF-RHF Final Energy:  -192.02281046697442
    Total Energy =                       -192.0228104669745335
  Basis Set: CC-PVTZ
  Basis Set:
  Basis Set: CC-PVTZ
  Basis Set:
  @DF-RHF Final Energy:  -192.02312566010113
    Total Energy =                       -192.0231256601011296
  Basis Set: CC-PVTZ
  Basis Set:
  Charge       = 0
  Multiplicity = 1
  Basis Set: CC-PVTZ
  Basis Set:

    Orbital Energies (a.u.)
    -----------------------

    Doubly Occupied:

       1A    -20.553521     2A    -11.323720     3A    -11.239087
       4A    -11.219774     5A     -1.409268     6A     -1.060954
       7A     -0.909516     8A     -0.777042     9A     -0.686192
      10A     -0.640219    11A     -0.625980    12A     -0.552203
      13A     -0.536161    14A     -0.516611    15A     -0.494778
      16A     -0.415660

  @DF-RHF Final Energy:  -192.02312741056673

   => Energetics <=

    Nuclear Repulsion Energy =            119.1883944106660635
    One-Electron Energy =                -496.5016703005029512
    Two-Electron Energy =                 185.2901484792701581
    DFT Exchange-Correlation Energy =       0.0000000000000000
    Empirical Dispersion Energy =           0.0000000000000000
    PCM Polarization Energy =               0.0000000000000000
    EFP Energy =                            0.0000000000000000
    Total Energy =                       -192.0231274105667012
    Molecular point group: c1
  Basis Set: CC-PVTZ
  Basis Set:

  -Total Gradient:
     Atom            X                  Y                   Z
    ------   -----------------  -----------------  -----------------
       1        0.000041763302     0.000083837468     0.000063441648
       2       -0.000392875314    -0.002410577681     0.002727611420
       3        0.000517162224     0.002840240234     0.000590616094
       4        0.000217733538     0.001386021495    -0.002093155917
       5       -0.000021611969     0.000071370496     0.000036078873
       6       -0.000361133453    -0.001912282572    -0.001288842399
       7        0.000018590768    -0.000021515856    -0.000026718520
       8        0.000003004474    -0.000000260666    -0.000009489678
       9       -0.000019461134    -0.000021261683    -0.000004841965
      10       -0.000003172437    -0.000015571235     0.000005300443

  **** Optimization is complete! (in 5 steps) ****
    Final optimized geometry and variables:
    Molecular point group: c1

    Geometry (in Angstrom), charge = 0, multiplicity = 1:

    H            1.455084716745     1.177122215235     0.655516074966
    C            0.832759732543     0.423709319875     0.157533353750
    C           -0.650025552207     0.702398418906     0.155337271555
    O            1.338702660754    -0.503653410675    -0.373058511542
    C           -1.509274437534    -0.554867901525     0.086690621367
    H           -0.832231800923     1.317702459900    -0.723812306366
    H           -0.897409302403     1.309142232409     1.019152963044
    H           -1.258476769390    -1.143520511669    -0.784204746196
    H           -2.558642259771    -0.292398911474     0.035213126703
    H           -1.359619698523    -1.176357244224     0.961336875148

  Mulliken Charges: (a.u.)
   Center  Symbol    Alpha    Beta     Spin     Total
       1     H     0.45400  0.45400  0.00000  0.09200
       2     C     2.91547  2.91547  0.00000  0.16906
       3     C     3.08351  3.08351  0.00000 -0.16702
       4     O     4.16588  4.16588  0.00000 -0.33176
       5     C     3.14196  3.14196  0.00000 -0.28391
       6     H     0.44707  0.44707  0.00000  0.10586
       7     H     0.44838  0.44838  0.00000  0.10324
       8     H     0.44248  0.44248  0.00000  0.11505
       9     H     0.44924  0.44924  0.00000  0.10151
      10     H     0.45201  0.45201  0.00000  0.09598

   Total alpha = 16.00000, Total beta = 16.00000, Total charge = -0.00000

*** Psi4 exiting successfully. Buy a developer a beer!
