  ==> Input File <==

--------------------------------------------------------------------------
set {
	reference rhf
	basis cc-pvtz
}

set_num_threads( 4 )
memory 2 gb

molecule MOL {
0 1

H	 -3.162190	 0.493205	 -0.000107
C	 -2.363908	 -0.234727	 0.000005
O	 -1.158738	 0.454634	 -0.000087
H	 -2.464314	 -0.863616	 -0.882153
H	 -2.464327	 -0.863359	 0.882345
C	 -0.979213	 1.302043	 -1.090952
C	 0.365655	 1.990280	 -0.972415
H	 -1.778603	 2.042638	 -1.124601
H	 -1.029222	 0.732325	 -2.019156
C	 0.638507	 2.939313	 -2.133982
H	 0.395189	 2.531345	 -0.033105
H	 1.138603	 1.231453	 -0.920603
H	 -0.110809	 3.721956	 -2.189500
H	 1.604390	 3.416791	 -2.023964
H	 0.637871	 2.413338	 -3.082886

	symmetry c1
}
set optking {
	frozen_dihedral = ("
		6 3 2 4
	")
}

ee = optimize('scf')
oeprop('DIPOLE', 'QUADRUPOLE', 'MULLIKEN_CHARGES')
f=open( 'psi4out.xyz', 'w' )
f.write( "15  " )
f.write( str(ee) + "\n" )
f.write( MOL.save_string_xyz() )
f.close()
--------------------------------------------------------------------------

    Molecular point group: c1
  Charge       = 0
  Multiplicity = 1
  Basis Set: CC-PVTZ
  Basis Set:
  @DF-RHF Final Energy:  -232.22718363588990
    Total Energy =                       -232.2271836358900146
    Molecular point group: c1
  Basis Set: CC-PVTZ
  Basis Set:
  Basis Set: CC-PVTZ
  Basis Set:
  @DF-RHF Final Energy:  -232.22801568578478
    Total Energy =                       -232.2280156857847828
  Basis Set: CC-PVTZ
  Basis Set:
  Basis Set: CC-PVTZ
  Basis Set:
  @DF-RHF Final Energy:  -232.22822123380104
    Total Energy =                       -232.2282212338009799
  Basis Set: CC-PVTZ
  Basis Set:
  Charge       = 0
  Multiplicity = 1
  Basis Set: CC-PVTZ
  Basis Set:

    Orbital Energies (a.u.)
    -----------------------

    Doubly Occupied:

       1A    -20.547591     2A    -11.264414     3A    -11.261793
       4A    -11.212787     5A    -11.210737     6A     -1.381991
       7A     -1.058496     8A     -0.956169     9A     -0.877341
      10A     -0.809584    11A     -0.677277    12A     -0.656001
      13A     -0.632369    14A     -0.608530    15A     -0.565264
      16A     -0.540865    17A     -0.503766    18A     -0.490421
      19A     -0.478376    20A     -0.462964    21A     -0.416835

  @DF-RHF Final Energy:  -232.22822231967299

   => Energetics <=

    Nuclear Repulsion Energy =            190.0190768655641307
    One-Electron Energy =                -691.2674587251489129
    Two-Electron Energy =                 269.0201595399117878
    DFT Exchange-Correlation Energy =       0.0000000000000000
    Empirical Dispersion Energy =           0.0000000000000000
    PCM Polarization Energy =               0.0000000000000000
    EFP Energy =                            0.0000000000000000
    Total Energy =                       -232.2282223196730229
    Molecular point group: c1
  Basis Set: CC-PVTZ
  Basis Set:

  -Total Gradient:
     Atom            X                  Y                   Z
    ------   -----------------  -----------------  -----------------
       1        0.000027200781     0.000024514332     0.000000576747
       2        0.000014905788    -0.000063219759    -0.000000348956
       3       -0.000046005653     0.000116930941     0.000079726764
       4        0.000022821990     0.000095014897    -0.000052627374
       5        0.000056169971     0.000017548973     0.000008540063
       6       -0.000032241440    -0.000118650469    -0.000181248773
       7        0.000010036816    -0.000037405918     0.000081597593
       8       -0.000001792486    -0.000013801202     0.000045493442
       9       -0.000005132188     0.000005359204    -0.000022701791
      10       -0.000064897832    -0.000023820212     0.000006243402
      11        0.000023704643     0.000018589986     0.000011654722
      12        0.000006159491    -0.000005431424     0.000004527180
      13       -0.000001945429     0.000008135321    -0.000006866075
      14       -0.000009729157    -0.000020210216     0.000025493655
      15        0.000000744706    -0.000003554450    -0.000000060598

  **** Optimization is complete! (in 4 steps) ****
    Final optimized geometry and variables:
    Molecular point group: c1

    Geometry (in Angstrom), charge = 0, multiplicity = 1:

    H           -2.490326773765    -0.816364629217     0.861793151637
    C           -1.643851949221    -1.499401301978     0.831404380295
    O           -0.436523988597    -0.814364768181     0.833763208442
    H           -1.743632821978    -2.129091804192    -0.050313366461
    H           -1.671623916976    -2.126139027156     1.711005938280
    C           -0.250915454207     0.030799723558    -0.257594066011
    C            1.095321103637     0.715681192304    -0.134866275478
    H           -1.048231438838     0.773555372321    -0.295003943057
    H           -0.299203698641    -0.539951160755    -1.185330495763
    C            1.374516529753     1.662461127022    -1.296780408521
    H            1.122998598899     1.258099162404     0.803810604398
    H            1.866264063514    -0.045002716657    -0.079279545694
    H            0.627219773575     2.446823020499    -1.356111096490
    H            2.341187438243     2.137827588052    -1.183936371135
    H            1.376038543416     1.135058252871    -2.244951347903

  Mulliken Charges: (a.u.)
   Center  Symbol    Alpha    Beta     Spin     Total
       1     H     0.47204  0.47204  0.00000  0.05592
       2     C     3.03352  3.03352  0.00000 -0.06704
       3     O     4.17143  4.17143  0.00000 -0.34286
       4     H     0.47228  0.47228  0.00000  0.05543
       5     H     0.44685  0.44685  0.00000  0.10630
       6     C     2.95607  2.95607  0.00000  0.08785
       7     C     3.08012  3.08012  0.00000 -0.16025
       8     H     0.47593  0.47593  0.00000  0.04814
       9     H     0.47577  0.47577  0.00000  0.04846
      10     C     3.15583  3.15583  0.00000 -0.31166
      11     H     0.45109  0.45109  0.00000  0.09781
      12     H     0.45111  0.45111  0.00000  0.09778
      13     H     0.45584  0.45584  0.00000  0.08833
      14     H     0.44627  0.44627  0.00000  0.10745
      15     H     0.45584  0.45584  0.00000  0.08832

   Total alpha = 21.00000, Total beta = 21.00000, Total charge = -0.00000
