  ==> Input File <==

--------------------------------------------------------------------------
set {
	reference rhf
	basis cc-pvtz
}

set_num_threads( 4 )
memory 2 gb

molecule MOL {
0 1

H	 1.316084	 -1.399760	 0.315416
C	 0.736191	 -0.478154	 0.391684
N	 -0.537714	 -0.645117	 0.000000
O	 1.220104	 0.536381	 0.783173
C	 -1.522613	 0.412524	 0.000000
H	 -0.805621	 -1.548363	 -0.303900
H	 -2.150256	 0.356137	 -0.880771
H	 -1.005621	 1.357208	 0.000000
H	 -2.150256	 0.356137	 0.880771

	symmetry c1
}
set optking {
	frozen_dihedral = ("
		6 3 5 7
	")
}

ee = optimize('scf')
oeprop('DIPOLE', 'QUADRUPOLE', 'MULLIKEN_CHARGES')
f=open( 'psi4out.xyz', 'w' )
f.write( "9  " )
f.write( str(ee) + "\n" )
f.write( MOL.save_string_xyz() )
f.close()
--------------------------------------------------------------------------

    Molecular point group: c1
  Charge       = 0
  Multiplicity = 1
  Basis Set: CC-PVTZ
  Basis Set:
  @DF-RHF Final Energy:  -208.04348404433830
    Total Energy =                       -208.0434840443382996
    Molecular point group: c1
  Basis Set: CC-PVTZ
  Basis Set:
  Basis Set: CC-PVTZ
  Basis Set:
  @DF-RHF Final Energy:  -208.04357030374024
    Total Energy =                       -208.0435703037401538
  Basis Set: CC-PVTZ
  Basis Set:
  Basis Set: CC-PVTZ
  Basis Set:
  @DF-RHF Final Energy:  -208.04357968866336
    Total Energy =                       -208.0435796886632716
  Basis Set: CC-PVTZ
  Basis Set:
  Basis Set: CC-PVTZ
  Basis Set:
  @DF-RHF Final Energy:  -208.04360486548546
    Total Energy =                       -208.0436048654854631
  Basis Set: CC-PVTZ
  Basis Set:
  @DF-RHF Final Energy:  -208.04361463265610
    Total Energy =                       -208.0436146326559879
  @DF-RHF Final Energy:  -208.04363479212901
    Total Energy =                       -208.0436347921288984
  Basis Set: CC-PVTZ
  Basis Set:
  @DF-RHF Final Energy:  -208.04363812059538
    Total Energy =                       -208.0436381205954035
  Basis Set: CC-PVTZ
  Basis Set:
  Basis Set: CC-PVTZ
  Basis Set:
  @DF-RHF Final Energy:  -208.04364060777442
    Total Energy =                       -208.0436406077744209
  Basis Set: CC-PVTZ
  Basis Set:
  Basis Set: CC-PVTZ
  Basis Set:
  @DF-RHF Final Energy:  -208.04364233299452
    Total Energy =                       -208.0436423329945512
  Basis Set: CC-PVTZ
  Basis Set:
  Charge       = 0
  Multiplicity = 1
  Basis Set: CC-PVTZ
  Basis Set:

    Orbital Energies (a.u.)
    -----------------------

    Doubly Occupied:

       1A    -20.516612     2A    -15.584801     3A    -11.337095
       4A    -11.259635     5A     -1.393993     6A     -1.239724
       7A     -0.970077     8A     -0.808442     9A     -0.748779
      10A     -0.646321    11A     -0.629685    12A     -0.596525
      13A     -0.556715    14A     -0.540354    15A     -0.428575
      16A     -0.396401

  @DF-RHF Final Energy:  -208.04364328220777

   => Energetics <=

    Nuclear Repulsion Energy =            122.7831983720025306
    One-Electron Energy =                -526.3462192094275451
    Two-Electron Energy =                 195.5193775552173179
    DFT Exchange-Correlation Energy =       0.0000000000000000
    Empirical Dispersion Energy =           0.0000000000000000
    PCM Polarization Energy =               0.0000000000000000
    EFP Energy =                            0.0000000000000000
    Total Energy =                       -208.0436432822077109
    Molecular point group: c1
  Basis Set: CC-PVTZ
  Basis Set:

  -Total Gradient:
     Atom            X                  Y                   Z
    ------   -----------------  -----------------  -----------------
       1        0.000000612012    -0.000002278468     0.000000724922
       2        0.000003598799     0.000007893949    -0.000019589952
       3        0.000038724232     0.000047468586    -0.000146962015
       4       -0.000004824140    -0.000002936192    -0.000003998392
       5       -0.000083043644    -0.000095696055     0.000108525178
       6       -0.000020288508    -0.000025046300     0.000122988879
       7        0.000070610380     0.000071694254    -0.000065396187
       8       -0.000000430025     0.000002122015     0.000006817745
       9       -0.000004959106    -0.000003221788    -0.000003110176

  **** Optimization is complete! (in 10 steps) ****
    Final optimized geometry and variables:
    Molecular point group: c1

    Geometry (in Angstrom), charge = 0, multiplicity = 1:

    H            1.362117977926    -1.361087486361     0.021768191547
    C            0.773110591425    -0.445771669521     0.105871798708
    N           -0.479413954706    -0.596510462637    -0.355718037976
    O            1.230295600275     0.558604498172     0.551444994053
    C           -1.470464250750     0.454358092911    -0.301065165291
    H           -0.760607249988    -1.506608993459    -0.625136319921
    H           -2.145275865558     0.358065147894    -1.140460582527
    H           -0.972442686313     1.408463491759    -0.358960122717
    H           -2.045060192207     0.421597319165     0.617561596732

  Mulliken Charges: (a.u.)
   Center  Symbol    Alpha    Beta     Spin     Total
       1     H     0.46344  0.46344  0.00000  0.07312
       2     C     2.88080  2.88080  0.00000  0.23840
       3     N     3.60692  3.60692  0.00000 -0.21385
       4     O     4.21422  4.21422  0.00000 -0.42844
       5     C     3.07909  3.07909  0.00000 -0.15818
       6     H     0.41028  0.41028  0.00000  0.17945
       7     H     0.45380  0.45380  0.00000  0.09241
       8     H     0.43608  0.43608  0.00000  0.12785
       9     H     0.45538  0.45538  0.00000  0.08924

   Total alpha = 16.00000, Total beta = 16.00000, Total charge = -0.00000
