  ==> Input File <==

--------------------------------------------------------------------------
set {
	reference rhf
	basis 6-31G*
}

set_num_threads( 1 )
memory 2 gb

molecule MOL {
0 1

H	 2.591676	 2.013956	 0.335017
O	 3.341076	 1.666752	 -0.126416
C	 3.569581	 0.339145	 0.272707
C	 2.539767	 -0.640285	 -0.279495
H	 4.553106	 0.084646	 -0.100901
H	 3.608576	 0.269204	 1.359154
C	 1.630625	 -1.254835	 0.787584
H	 1.935280	 -0.123722	 -1.020524
H	 3.072219	 -1.433617	 -0.801497
C	 0.644650	 -2.273622	 0.209011
H	 1.081432	 -0.462340	 1.288287
H	 2.242056	 -1.741423	 1.547666
C	 -0.232350	 -2.982525	 1.247600
H	 0.007887	 -1.779833	 -0.522803
H	 1.206992	 -3.027069	 -0.338518
C	 -1.231510	 -2.077148	 1.973170
H	 -0.783690	 -3.774885	 0.745599
H	 0.405183	 -3.475809	 1.979761
C	 -2.154106	 -2.846652	 2.920859
H	 -1.834979	 -1.546746	 1.237908
H	 -0.702601	 -1.314904	 2.540217
C	 -3.148201	 -1.944426	 3.651221
H	 -2.698661	 -3.602062	 2.358450
H	 -1.552500	 -3.385060	 3.650293
H	 -3.787202	 -1.416126	 2.949225
H	 -3.788689	 -2.519037	 4.313212
H	 -2.634029	 -1.200145	 4.252916

	symmetry c1
}
set optking {
	frozen_dihedral = ("
		14 10 7 4,
		14 10 13 16,
		10 7 4 8,
		10 13 16 20,
		20 16 19 22,
		4 3 2 1
	")
}

ee = energy('scf')
oeprop('DIPOLE', 'QUADRUPOLE', 'MULLIKEN_CHARGES')
f=open( 'psi4out.xyz', 'w' )
f.write( "27  " )
f.write( str(ee) + "\n" )
f.write( MOL.save_string_xyz() )
f.close()
--------------------------------------------------------------------------

    Molecular point group: c1

    Geometry (in Angstrom), charge = 0, multiplicity = 1:

       Center              X                  Y                   Z               Mass
    ------------   -----------------  -----------------  -----------------  -----------------
           H          2.009156517944     3.290792512887    -0.843329404682     1.007825032070
           O          2.758556517944     2.943588512887    -1.304762404682    15.994914619560
           C          2.987061517944     1.615981512887    -0.905639404682    12.000000000000
           C          1.957247517944     0.636551512887    -1.457841404682    12.000000000000
           H          3.970586517944     1.361482512887    -1.279247404682     1.007825032070
           H          3.026056517944     1.546040512887     0.180807595318     1.007825032070
           C          1.048105517944     0.022001512887    -0.390762404682    12.000000000000
           H          1.352760517944     1.153114512887    -2.198870404682     1.007825032070
           H          2.489699517944    -0.156780487113    -1.979843404682     1.007825032070
           C          0.062130517944    -0.996785487113    -0.969335404682    12.000000000000
           H          0.498912517944     0.814496512887     0.109940595318     1.007825032070
           H          1.659536517944    -0.464586487113     0.369319595318     1.007825032070
           C         -0.814869482056    -1.705688487113     0.069253595318    12.000000000000
           H         -0.574632482056    -0.502996487113    -1.701149404682     1.007825032070
           H          0.624472517944    -1.750232487113    -1.516864404682     1.007825032070
           C         -1.814029482056    -0.800311487113     0.794823595318    12.000000000000
           H         -1.366209482056    -2.498048487113    -0.432747404682     1.007825032070
           H         -0.177336482056    -2.198972487113     0.801414595318     1.007825032070
           C         -2.736625482056    -1.569815487113     1.742512595318    12.000000000000
           H         -2.417498482056    -0.269909487113     0.059561595318     1.007825032070
           H         -1.285120482056    -0.038067487113     1.361870595318     1.007825032070
           C         -3.730720482056    -0.667589487113     2.472874595318    12.000000000000
           H         -3.281180482056    -2.325225487113     1.180103595318     1.007825032070
           H         -2.135019482056    -2.108223487113     2.471946595318     1.007825032070
           H         -4.369721482056    -0.139289487113     1.770878595318     1.007825032070
           H         -4.371208482056    -1.242200487113     3.134865595318     1.007825032070
           H         -3.216548482056     0.076691512887     3.074569595318     1.007825032070

  Charge       = 0
  Multiplicity = 1
  Basis Set: 6-31G*
  Basis Set:

    Orbital Energies (a.u.)
    -----------------------

    Doubly Occupied:

       1A    -20.550792     2A    -11.265542     3A    -11.219110
       4A    -11.216419     5A    -11.216298     6A    -11.215437
       7A    -11.214446     8A    -11.212724     9A    -11.209792
      10A     -1.357882    11A     -1.095296    12A     -1.062071
      13A     -1.011531    14A     -0.946696    15A     -0.885358
      16A     -0.820942    17A     -0.803896    18A     -0.778780
      19A     -0.689332    20A     -0.654489    21A     -0.642170
      22A     -0.609739    23A     -0.600564    24A     -0.584103
      25A     -0.575925    26A     -0.551170    27A     -0.541627
      28A     -0.528724    29A     -0.507658    30A     -0.500547
      31A     -0.483404    32A     -0.474324    33A     -0.464106
      34A     -0.460336    35A     -0.452049    36A     -0.441277
      37A     -0.421038

  @DF-RHF Final Energy:  -388.27565904951001

   => Energetics <=

    Nuclear Repulsion Energy =            455.7292729143227348
    One-Electron Energy =               -1429.4783275504280482
    Two-Electron Energy =                 585.4733955865954158
    DFT Exchange-Correlation Energy =       0.0000000000000000
    Empirical Dispersion Energy =           0.0000000000000000
    PCM Polarization Energy =               0.0000000000000000
    EFP Energy =                            0.0000000000000000
    Total Energy =                       -388.2756590495098408

  Mulliken Charges: (a.u.)
   Center  Symbol    Alpha    Beta     Spin     Total
       1     H     0.28346  0.28346  0.00000  0.43307
       2     O     4.36996  4.36996  0.00000 -0.73993
       3     C     2.99654  2.99654  0.00000  0.00691
       4     C     3.17213  3.17213  0.00000 -0.34426
       5     H     0.41456  0.41456  0.00000  0.17088
       6     H     0.42912  0.42912  0.00000  0.14177
       7     C     3.15922  3.15922  0.00000 -0.31843
       8     H     0.41087  0.41087  0.00000  0.17826
       9     H     0.41978  0.41978  0.00000  0.16044
      10     C     3.15321  3.15321  0.00000 -0.30641
      11     H     0.42521  0.42521  0.00000  0.14958
      12     H     0.42328  0.42328  0.00000  0.15343
      13     C     3.15330  3.15330  0.00000 -0.30661
      14     H     0.42305  0.42305  0.00000  0.15389
      15     H     0.42110  0.42110  0.00000  0.15779
      16     C     3.15262  3.15262  0.00000 -0.30525
      17     H     0.42135  0.42135  0.00000  0.15730
      18     H     0.42397  0.42397  0.00000  0.15206
      19     C     3.15117  3.15117  0.00000 -0.30235
      20     H     0.42455  0.42455  0.00000  0.15091
      21     H     0.42327  0.42327  0.00000  0.15347
      22     C     3.23919  3.23919  0.00000 -0.47837
      23     H     0.42282  0.42282  0.00000  0.15436
      24     H     0.42302  0.42302  0.00000  0.15397
      25     H     0.42181  0.42181  0.00000  0.15638
      26     H     0.41912  0.41912  0.00000  0.16176
      27     H     0.42232  0.42232  0.00000  0.15536

   Total alpha = 37.00000, Total beta = 37.00000, Total charge = -0.00000
