  ==> Input File <==

--------------------------------------------------------------------------
set {
	reference rhf
	basis 6-31G*
}

set_num_threads( 4 )
memory 2 gb

molecule MOL {
0 1

O	 3.447947	 0.394410	 1.002069
C	 2.843464	 0.164689	 -0.000222
C	 1.546494	 -0.624492	 -0.000609
C	 3.336520	 0.650364	 -1.347876
C	 0.291004	 0.242674	 0.000989
H	 1.557904	 -1.283758	 -0.867573
H	 1.558622	 -1.285963	 0.864672
C	 -0.994322	 -0.586602	 0.000262
H	 0.309117	 0.896430	 -0.865270
H	 0.309661	 0.894078	 0.869017
C	 -2.259874	 0.272531	 0.000494
H	 -1.004862	 -1.240012	 -0.870939
H	 -1.005220	 -1.241071	 0.870675
C	 -3.549786	 -0.549746	 -0.000374
H	 -2.250389	 0.926680	 -0.869574
H	 -2.250838	 0.925513	 0.871430
C	 -4.809590	 0.315458	 -0.000369
H	 -3.560515	 -1.202009	 -0.871156
H	 -3.561123	 -1.202955	 0.869711
H	 -4.844746	 0.956611	 -0.876632
H	 -5.706986	 -0.295590	 -0.001609
H	 -4.845960	 0.954827	 0.877144
H	 2.594943	 1.292739	 -1.813748
H	 4.260529	 1.197522	 -1.222738
H	 3.500491	 -0.189813	 -2.016346

	symmetry c1
}
set optking {
	frozen_dihedral = ("
		1 2 3 6
	")
}

ee = optimize('scf')
oeprop('DIPOLE', 'QUADRUPOLE', 'MULLIKEN_CHARGES')
f=open( 'psi4out.xyz', 'w' )
f.write( "25  " )
f.write( str(ee) + "\n" )
f.write( MOL.save_string_xyz() )
f.close()
--------------------------------------------------------------------------

    Molecular point group: c1
  Charge       = 0
  Multiplicity = 1
  Basis Set: 6-31G*
  Basis Set:
  @DF-RHF Final Energy:  -387.13362779837144
    Total Energy =                       -387.1336277983720038
    Molecular point group: c1
  Basis Set: 6-31G*
  Basis Set:
  Basis Set: 6-31G*
  Basis Set:
  @DF-RHF Final Energy:  -387.13423201291914
    Total Energy =                       -387.1342320129197105
  Basis Set: 6-31G*
  Basis Set:
  Basis Set: 6-31G*
  Basis Set:
  @DF-RHF Final Energy:  -387.13203986063849
    Total Energy =                       -387.1320398606385425
  Basis Set: 6-31G*
  Basis Set:
  Basis Set: 6-31G*
  Basis Set:
  @DF-RHF Final Energy:  -387.13431898632643
    Total Energy =                       -387.1343189863268890
  Basis Set: 6-31G*
  Basis Set:
  @DF-RHF Final Energy:  -387.13436033033213
    Total Energy =                       -387.1343603303324699
  Basis Set: 6-31G*
  Basis Set:
  @DF-RHF Final Energy:  -387.13436963993860
    Total Energy =                       -387.1343696399383134
  Basis Set: 6-31G*
  Basis Set:
  Basis Set: 6-31G*
  Basis Set:
  @DF-RHF Final Energy:  -387.13437783924991
    Total Energy =                       -387.1343778392501918
  Basis Set: 6-31G*
  Basis Set:
  Basis Set: 6-31G*
  Basis Set:
  @DF-RHF Final Energy:  -387.13437967648940
    Total Energy =                       -387.1343796764890612
  Basis Set: 6-31G*
  Basis Set:
  Charge       = 0
  Multiplicity = 1
  Basis Set: 6-31G*
  Basis Set:

    Orbital Energies (a.u.)
    -----------------------

    Doubly Occupied:

       1A    -20.547531     2A    -11.324026     3A    -11.231967
       4A    -11.229108     5A    -11.227495     6A    -11.223320
       7A    -11.219581     8A    -11.218987     9A    -11.211663
      10A     -1.392881    11A     -1.100218    12A     -1.060099
      13A     -1.012101    14A     -0.970842    15A     -0.895353
      16A     -0.819440    17A     -0.796553    18A     -0.732509
      19A     -0.668430    20A     -0.647154    21A     -0.638241
      22A     -0.610123    23A     -0.606183    24A     -0.587949
      25A     -0.567064    26A     -0.557735    27A     -0.542611
      28A     -0.539031    29A     -0.509064    30A     -0.501766
      31A     -0.488227    32A     -0.478984    33A     -0.468879
      34A     -0.467885    35A     -0.454385    36A     -0.395632

  @DF-RHF Final Energy:  -387.13438037805162

   => Energetics <=

    Nuclear Repulsion Energy =            438.8423806988494675
    One-Electron Energy =               -1394.0674829162435344
    Two-Electron Energy =                 568.0907218393423364
    DFT Exchange-Correlation Energy =       0.0000000000000000
    Empirical Dispersion Energy =           0.0000000000000000
    PCM Polarization Energy =               0.0000000000000000
    EFP Energy =                            0.0000000000000000
    Total Energy =                       -387.1343803780517874
    Molecular point group: c1
  Basis Set: 6-31G*
  Basis Set:

  -Total Gradient:
     Atom            X                  Y                   Z
    ------   -----------------  -----------------  -----------------
       1        0.000371302922    -0.000652979085    -0.000116748668
       2       -0.000512690802     0.000778498013     0.000191641079
       3       -0.000234636701     0.000407550073    -0.000480049843
       4        0.000018700110     0.000005826048     0.000017218667
       5       -0.000002384480     0.000040609310    -0.000031829812
       6        0.000339555526    -0.000499938256     0.000403448072
       7       -0.000011761172    -0.000022837262     0.000020765219
       8        0.000010260882    -0.000030825664    -0.000015302247
       9        0.000033285582     0.000010025314    -0.000015049913
      10        0.000013434793    -0.000003550812     0.000001771056
      11        0.000010132691    -0.000004190576     0.000027708028
      12       -0.000026110323    -0.000012150210    -0.000001433898
      13       -0.000009486326    -0.000000405815    -0.000000898938
      14        0.000003037100    -0.000005118865    -0.000000771151
      15        0.000004884309     0.000001438012     0.000011057587
      16        0.000000907555    -0.000003485257     0.000013384735
      17        0.000001134245     0.000000748243    -0.000017869583
      18        0.000002732721    -0.000009072199     0.000004804181
      19       -0.000002715442     0.000010360370     0.000002155926
      20       -0.000003194624     0.000004158129    -0.000000212711
      21       -0.000000468823    -0.000000023168    -0.000003980538
      22        0.000003023534    -0.000004433118    -0.000000470394
      23       -0.000014548634    -0.000000633426    -0.000002829953
      24        0.000003195268     0.000000900372    -0.000002083631
      25        0.000002410081    -0.000010470173    -0.000004423270

  **** Optimization is complete! (in 9 steps) ****
    Final optimized geometry and variables:
    Molecular point group: c1

    Geometry (in Angstrom), charge = 0, multiplicity = 1:

    O            3.435737006272     0.323838299722     1.059236328815
    C            2.855599937577     0.116296411140     0.037221639055
    C            1.578472199319    -0.703384824119     0.011384908929
    C            3.368361208569     0.652984994839    -1.282583481997
    C            0.324527015364     0.185464086932     0.005348446093
    H            1.574648485369    -1.353388259308    -0.860369325759
    H            1.578583382962    -1.328326737827     0.896720914405
    C           -0.969449301591    -0.630234999876     0.028059075020
    H            0.327448032594     0.827519448026    -0.872523773853
    H            0.357071905007     0.841556606476     0.871106492869
    C           -2.226703261134     0.240939800652     0.035255040281
    H           -0.993360896425    -1.291440916040    -0.836403333891
    H           -0.971146219520    -1.273560546532     0.905550989689
    C           -3.523110057969    -0.570930192795     0.058109770006
    H           -2.223443475477     0.886472715742    -0.841570542573
    H           -2.201710744199     0.901645636338     0.899988989817
    C           -4.775521586306     0.304835545144     0.061470021971
    H           -3.548427507574    -1.233319980226    -0.804600724041
    H           -3.529749816951    -1.213236955741     0.936045094338
    H           -4.815691246169     0.935311342367    -0.822333811471
    H           -5.677476315832    -0.298996444427     0.077891175193
    H           -4.796895767037     0.954982180420     0.931465929884
    H            2.578570496890     1.132872838765    -1.851075090817
    H            4.171531217771     1.354680437580    -1.105371302029
    H            3.742510499356    -0.171613979221    -1.883988388598

  Mulliken Charges: (a.u.)
   Center  Symbol    Alpha    Beta     Spin     Total
       1     O     4.26075  4.26075  0.00000 -0.52151
       2     C     2.73688  2.73688  0.00000  0.52624
       3     C     3.20123  3.20123  0.00000 -0.40246
       4     C     3.28964  3.28964  0.00000 -0.57927
       5     C     3.16380  3.16380  0.00000 -0.32759
       6     H     0.41611  0.41611  0.00000  0.16779
       7     H     0.40018  0.40018  0.00000  0.19964
       8     C     3.15177  3.15177  0.00000 -0.30353
       9     H     0.42014  0.42014  0.00000  0.15972
      10     H     0.40932  0.40932  0.00000  0.18136
      11     C     3.15168  3.15168  0.00000 -0.30336
      12     H     0.42273  0.42273  0.00000  0.15455
      13     H     0.41943  0.41943  0.00000  0.16114
      14     C     3.15197  3.15197  0.00000 -0.30394
      15     H     0.42384  0.42384  0.00000  0.15231
      16     H     0.42163  0.42163  0.00000  0.15674
      17     C     3.23957  3.23957  0.00000 -0.47914
      18     H     0.42297  0.42297  0.00000  0.15407
      19     H     0.42194  0.42194  0.00000  0.15612
      20     H     0.42169  0.42169  0.00000  0.15662
      21     H     0.41857  0.41857  0.00000  0.16286
      22     H     0.42095  0.42095  0.00000  0.15811
      23     H     0.40987  0.40987  0.00000  0.18025
      24     H     0.39681  0.39681  0.00000  0.20638
      25     H     0.40655  0.40655  0.00000  0.18691

   Total alpha = 36.00000, Total beta = 36.00000, Total charge =  0.00000
