  ==> Input File <==

--------------------------------------------------------------------------
set {
	reference rhf
	basis 6-31G*
}

set_num_threads( 1 )
memory 2 gb

molecule MOL {
0 1

H	 -1.001725	 0.664899	 -2.578816
O	 -1.422924	 1.400773	 -2.155809
C	 -0.743564	 1.694979	 -0.970113
C	 -0.793441	 0.596080	 0.058728
H	 -1.206996	 2.589633	 -0.570078
H	 0.296714	 1.947642	 -1.172615
C	 -1.530462	 -0.493172	 -0.025500
H	 -0.163712	 0.751216	 0.921199
H	 -1.092586	 -1.461565	 -0.186463
H	 -2.602122	 -0.450675	 0.050101

	symmetry c1
}
set optking {
	frozen_dihedral = ("
		5 3 2 1,
		5 3 4 7
	")
}

ee = energy('scf')
oeprop('DIPOLE', 'QUADRUPOLE', 'MULLIKEN_CHARGES')
f=open( 'psi4out.xyz', 'w' )
f.write( "10  " )
f.write( str(ee) + "\n" )
f.write( MOL.save_string_xyz() )
f.close()
--------------------------------------------------------------------------

    Molecular point group: c1

    Geometry (in Angstrom), charge = 0, multiplicity = 1:

       Center              X                  Y                   Z               Mass
    ------------   -----------------  -----------------  -----------------  -----------------
           H          0.124784854193    -0.162997567769    -1.729619517038     1.007825032070
           O         -0.296414145807     0.572876432231    -1.306612517038    15.994914619560
           C          0.382945854193     0.867082432231    -0.120916517038    12.000000000000
           C          0.333068854193    -0.231816567769     0.907924482962    12.000000000000
           H         -0.080486145807     1.761736432231     0.279118482962     1.007825032070
           H          1.423223854193     1.119745432231    -0.323418517038     1.007825032070
           C         -0.403952145807    -1.321068567769     0.823696482962    12.000000000000
           H          0.962797854193    -0.076680567769     1.770395482962     1.007825032070
           H          0.033923854193    -2.289461567769     0.662733482962     1.007825032070
           H         -1.475612145807    -1.278571567769     0.899297482962     1.007825032070

  Charge       = 0
  Multiplicity = 1
  Basis Set: 6-31G*
  Basis Set:

    Orbital Energies (a.u.)
    -----------------------

    Doubly Occupied:

       1A    -20.557361     2A    -11.279689     3A    -11.239586
       4A    -11.216840     5A     -1.366382     6A     -1.060370
       7A     -0.928676     8A     -0.769749     9A     -0.686995
      10A     -0.641904    11A     -0.618078    12A     -0.579564
      13A     -0.560138    14A     -0.504406    15A     -0.449337
      16A     -0.283331

  @DF-RHF Final Energy:  -191.80603972451658

   => Energetics <=

    Nuclear Repulsion Energy =            119.1621864281236469
    One-Electron Energy =                -496.4516231770519425
    Two-Electron Energy =                 185.4833970244115449
    DFT Exchange-Correlation Energy =       0.0000000000000000
    Empirical Dispersion Energy =           0.0000000000000000
    PCM Polarization Energy =               0.0000000000000000
    EFP Energy =                            0.0000000000000000
    Total Energy =                       -191.8060397245167792

  Mulliken Charges: (a.u.)
   Center  Symbol    Alpha    Beta     Spin     Total
       1     H     0.28387  0.28387  0.00000  0.43227
       2     O     4.36213  4.36213  0.00000 -0.72427
       3     C     2.99834  2.99834  0.00000  0.00332
       4     C     3.09405  3.09405  0.00000 -0.18809
       5     H     0.41364  0.41364  0.00000  0.17272
       6     H     0.41815  0.41815  0.00000  0.16370
       7     C     3.21157  3.21157  0.00000 -0.42315
       8     H     0.40702  0.40702  0.00000  0.18597
       9     H     0.40741  0.40741  0.00000  0.18517
      10     H     0.40382  0.40382  0.00000  0.19236

   Total alpha = 16.00000, Total beta = 16.00000, Total charge = -0.00000
