  ==> Input File <==

--------------------------------------------------------------------------
set {
	reference rhf
	basis 6-31G*
}

set_num_threads( 1 )
memory 2 gb

molecule MOL {
0 1

H	 -1.943384	 0.915435	 2.421015
O	 -1.010198	 0.762870	 2.482187
C	 -0.388592	 1.276144	 1.340207
C	 -0.793441	 0.596080	 0.058728
H	 0.677377	 1.154863	 1.495785
H	 -0.569695	 2.346621	 1.249067
C	 -1.530462	 -0.493172	 -0.025500
H	 -0.428466	 1.066636	 -0.841190
H	 -1.092586	 -1.461565	 -0.186463
H	 -2.602122	 -0.450675	 0.050101

	symmetry c1
}
set optking {
	frozen_dihedral = ("
		5 3 2 1,
		5 3 4 7
	")
}

ee = energy('scf')
oeprop('DIPOLE', 'QUADRUPOLE', 'MULLIKEN_CHARGES')
f=open( 'psi4out.xyz', 'w' )
f.write( "10  " )
f.write( str(ee) + "\n" )
f.write( MOL.save_string_xyz() )
f.close()
--------------------------------------------------------------------------

    Molecular point group: c1

    Geometry (in Angstrom), charge = 0, multiplicity = 1:

       Center              X                  Y                   Z               Mass
    ------------   -----------------  -----------------  -----------------  -----------------
           H         -1.000728636808     0.358079972297     1.380306228329     1.007825032070
           O         -0.067542636808     0.205514972297     1.441478228329    15.994914619560
           C          0.554063363192     0.718788972297     0.299498228329    12.000000000000
           C          0.149214363192     0.038724972297    -0.981980771671    12.000000000000
           H          1.620032363192     0.597507972297     0.455076228329     1.007825032070
           H          0.372960363192     1.789265972297     0.208358228329     1.007825032070
           C         -0.587806636808    -1.050527027703    -1.066208771671    12.000000000000
           H          0.514189363192     0.509280972297    -1.881898771671     1.007825032070
           H         -0.149930636808    -2.018920027703    -1.227171771671     1.007825032070
           H         -1.659466636808    -1.008030027703    -0.990607771671     1.007825032070

  Charge       = 0
  Multiplicity = 1
  Basis Set: 6-31G*
  Basis Set:

    Orbital Energies (a.u.)
    -----------------------

    Doubly Occupied:

       1A    -20.558514     2A    -11.282492     3A    -11.241960
       4A    -11.213979     5A     -1.367504     6A     -1.060831
       7A     -0.929983     8A     -0.769733     9A     -0.687968
      10A     -0.642706    11A     -0.614436    12A     -0.582387
      13A     -0.568677    14A     -0.501231    15A     -0.451738
      16A     -0.264118

  @DF-RHF Final Energy:  -191.77123111884964

   => Energetics <=

    Nuclear Repulsion Energy =            119.1486438947088118
    One-Electron Energy =                -496.3632136765252199
    Two-Electron Energy =                 185.4433386629665961
    DFT Exchange-Correlation Energy =       0.0000000000000000
    Empirical Dispersion Energy =           0.0000000000000000
    PCM Polarization Energy =               0.0000000000000000
    EFP Energy =                            0.0000000000000000
    Total Energy =                       -191.7712311188498120

  Mulliken Charges: (a.u.)
   Center  Symbol    Alpha    Beta     Spin     Total
       1     H     0.27939  0.27939  0.00000  0.44123
       2     O     4.36382  4.36382  0.00000 -0.72764
       3     C     2.99689  2.99689  0.00000  0.00623
       4     C     3.08808  3.08808  0.00000 -0.17616
       5     H     0.40014  0.40014  0.00000  0.19973
       6     H     0.43223  0.43223  0.00000  0.13553
       7     C     3.22079  3.22079  0.00000 -0.44158
       8     H     0.40612  0.40612  0.00000  0.18776
       9     H     0.40155  0.40155  0.00000  0.19690
      10     H     0.41100  0.41100  0.00000  0.17800

   Total alpha = 16.00000, Total beta = 16.00000, Total charge = -0.00000
