  ==> Input File <==

--------------------------------------------------------------------------
set {
	reference rhf
	basis 6-31G*
}

set_num_threads( 4 )
memory 2 gb

molecule MOL {
0 1

O	 1.845249	 1.299068	 -0.052277
C	 1.700933	 0.123500	 -0.153922
C	 0.377766	 -0.602507	 -0.151303
O	 2.713535	 -0.723313	 -0.290601
C	 -0.823008	 0.326187	 0.001381
H	 0.319014	 -1.173671	 -1.073818
H	 0.411918	 -1.336774	 0.648950
C	 -2.149452	 -0.435131	 -0.000098
H	 -0.815352	 1.055639	 -0.802379
H	 -0.723003	 0.891543	 0.922620
C	 -3.368779	 0.488503	 -0.000883
H	 -2.193746	 -1.087250	 -0.871175
H	 -2.195311	 -1.087803	 0.870418
C	 -4.693822	 -0.272754	 -0.001129
H	 -3.325798	 1.139422	 -0.871284
H	 -3.326423	 1.139959	 0.869145
H	 -4.781274	 -0.907928	 -0.878124
H	 -5.538651	 0.408946	 -0.001420
H	 -4.781694	 -0.907783	 0.875984
C	 4.016433	 -0.169225	 -0.310619
H	 4.124444	 0.518072	 -1.137350
H	 4.690216	 -1.003633	 -0.427468
H	 4.222164	 0.351690	 0.613410

	symmetry c1
}
set optking {
	frozen_dihedral = ("
		9 5 8 12
	")
}

ee = optimize('scf')
oeprop('DIPOLE', 'QUADRUPOLE', 'MULLIKEN_CHARGES')
f=open( 'psi4out.xyz', 'w' )
f.write( "23  " )
f.write( str(ee) + "\n" )
f.write( MOL.save_string_xyz() )
f.close()
--------------------------------------------------------------------------

    Molecular point group: c1
  Charge       = 0
  Multiplicity = 1
  Basis Set: 6-31G*
  Basis Set:
  @DF-RHF Final Energy:  -422.97616288458892
    Total Energy =                       -422.9761628845893711
    Molecular point group: c1
  Basis Set: 6-31G*
  Basis Set:
  Basis Set: 6-31G*
  Basis Set:
  @DF-RHF Final Energy:  -422.97613683852171
    Total Energy =                       -422.9761368385217111
  Basis Set: 6-31G*
  Basis Set:
  Basis Set: 6-31G*
  Basis Set:
  @DF-RHF Final Energy:  -422.97603288899438
    Total Energy =                       -422.9760328889944958
  Basis Set: 6-31G*
  Basis Set:
  Basis Set: 6-31G*
  Basis Set:
  @DF-RHF Final Energy:  -422.97618620306781
    Total Energy =                       -422.9761862030685506
  Basis Set: 6-31G*
  Basis Set:
  Basis Set: 6-31G*
  Basis Set:
  @DF-RHF Final Energy:  -422.97618858343196
    Total Energy =                       -422.9761885834327586
  Basis Set: 6-31G*
  Basis Set:
  Charge       = 0
  Multiplicity = 1
  Basis Set: 6-31G*
  Basis Set:

    Orbital Energies (a.u.)
    -----------------------

    Doubly Occupied:

       1A    -20.603661     2A    -20.545465     3A    -11.372302
       4A    -11.280871     5A    -11.235652     6A    -11.219217
       7A    -11.217857     8A    -11.216565     9A    -11.209679
      10A     -1.469360    11A     -1.362811    12A     -1.093173
      13A     -1.043731    14A     -0.987058    15A     -0.932150
      16A     -0.843649    17A     -0.795240    18A     -0.767351
      19A     -0.696983    20A     -0.683800    21A     -0.671574
      22A     -0.651242    23A     -0.609343    24A     -0.599434
      25A     -0.572933    26A     -0.558333    27A     -0.557000
      28A     -0.523906    29A     -0.521066    30A     -0.507864
      31A     -0.484232    32A     -0.469943    33A     -0.465802
      34A     -0.461601    35A     -0.455557    36A     -0.435564

  @DF-RHF Final Energy:  -422.97618881146320

   => Energetics <=

    Nuclear Repulsion Energy =            452.1072768016093733
    One-Electron Energy =               -1471.9229967445319289
    Two-Electron Energy =                 596.8395311314596938
    DFT Exchange-Correlation Energy =       0.0000000000000000
    Empirical Dispersion Energy =           0.0000000000000000
    PCM Polarization Energy =               0.0000000000000000
    EFP Energy =                            0.0000000000000000
    Total Energy =                       -422.9761888114628618
    Molecular point group: c1
  Basis Set: 6-31G*
  Basis Set:

  -Total Gradient:
     Atom            X                  Y                   Z
    ------   -----------------  -----------------  -----------------
       1       -0.000003802435    -0.000004465982    -0.000025298039
       2        0.000006954033    -0.000004028943     0.000066315259
       3        0.000001506086     0.000005840208    -0.000008185397
       4       -0.000004023008     0.000002908332    -0.000015474776
       5        0.000703198378    -0.001237784468    -0.000815838945
       6       -0.000006407642     0.000000558488    -0.000001103154
       7        0.000005302127     0.000002492298    -0.000001438870
       8       -0.000746064666     0.001294760949    -0.000604799527
       9       -0.000457044566     0.000830068667     0.000736635137
      10       -0.000011994318    -0.000002781156    -0.000001553993
      11        0.000003127596    -0.000004286527     0.000049464759
      12        0.000501213489    -0.000887343626     0.000633167229
      13        0.000005432369     0.000002613557     0.000004458787
      14       -0.000001691576     0.000003271706    -0.000031719497
      15        0.000007118477     0.000003832103     0.000011871562
      16       -0.000003025170    -0.000005474993     0.000011650275
      17        0.000000628782    -0.000012643529     0.000004172658
      18       -0.000001872677    -0.000001403251    -0.000014209846
      19        0.000000476637     0.000013777847     0.000003847874
      20       -0.000000584526     0.000000333896    -0.000001169921
      21        0.000001196286     0.000000159941    -0.000000188929
      22        0.000001111317    -0.000000203175    -0.000000691763
      23       -0.000000754993    -0.000000202339     0.000000089118

  **** Optimization is complete! (in 6 steps) ****
    Final optimized geometry and variables:
    Molecular point group: c1

    Geometry (in Angstrom), charge = 0, multiplicity = 1:

    O            1.848623650225     1.292904339628     0.064010596772
    C            1.704486906794     0.118209036862    -0.047082313821
    C            0.380855535824    -0.606851200593    -0.061488465027
    O            2.717769972598    -0.728844058259    -0.176948212321
    C           -0.820598056016     0.321558082509     0.082435205359
    H            0.331500361258    -1.174202582378    -0.986810010070
    H            0.405880578835    -1.344391895941     0.736187905692
    C           -2.147937144781    -0.438817813004     0.088401358278
    H           -0.814189961526     1.051608225998    -0.721056187300
    H           -0.722756353837     0.892372698737     1.000671543378
    C           -3.367632291030     0.483299094499     0.108551158380
    H           -2.200486094742    -1.092313511708    -0.781285287211
    H           -2.181643995066    -1.095866200734     0.956429933647
    C           -4.691775393309    -0.279070404458     0.134449775541
    H           -3.341314955536     1.132282203274    -0.763856744479
    H           -3.309576183372     1.136718308183     0.976240669154
    H           -4.792556618429    -0.919980831269    -0.736983753619
    H           -5.537150930272     0.401852548208     0.143249186408
    H           -4.765037805838    -0.908493639170     1.016876180537
    C            4.021331887724    -0.175880242949    -0.179479076969
    H            4.139285265941     0.515502163989    -1.001422696823
    H            4.695656401062    -1.010356769530    -0.293068335132
    H            4.217111335514     0.340053239243     0.749497610664

  Mulliken Charges: (a.u.)
   Center  Symbol    Alpha    Beta     Spin     Total
       1     O     4.28604  4.28604  0.00000 -0.57209
       2     C     2.60485  2.60485  0.00000  0.79031
       3     C     3.20821  3.20821  0.00000 -0.41643
       4     O     4.30743  4.30743  0.00000 -0.61485
       5     C     3.15265  3.15265  0.00000 -0.30529
       6     H     0.40056  0.40056  0.00000  0.19888
       7     H     0.40059  0.40059  0.00000  0.19882
       8     C     3.15339  3.15339  0.00000 -0.30677
       9     H     0.41196  0.41196  0.00000  0.17609
      10     H     0.41147  0.41147  0.00000  0.17705
      11     C     3.15158  3.15158  0.00000 -0.30315
      12     H     0.42433  0.42433  0.00000  0.15135
      13     H     0.42377  0.42377  0.00000  0.15246
      14     C     3.23962  3.23962  0.00000 -0.47925
      15     H     0.42139  0.42139  0.00000  0.15721
      16     H     0.42114  0.42114  0.00000  0.15773
      17     H     0.42182  0.42182  0.00000  0.15635
      18     H     0.41847  0.41847  0.00000  0.16306
      19     H     0.42173  0.42173  0.00000  0.15654
      20     C     3.09245  3.09245  0.00000 -0.18490
      21     H     0.40906  0.40906  0.00000  0.18187
      22     H     0.40842  0.40842  0.00000  0.18315
      23     H     0.40907  0.40907  0.00000  0.18185

   Total alpha = 36.00000, Total beta = 36.00000, Total charge =  0.00000
