                              Psi4 1.0.54 Driver

  ==> Input File <==

--------------------------------------------------------------------------
set {
	reference rhf
	basis cc-pvtz
}

set_num_threads( 4 )
memory 2 gb

molecule MOL {
0 1

H	 -3.268214	 -0.875720	 0.463107
C	 -2.806015	 0.000007	 0.024886
N	 -1.391133	 0.000016	 0.301321
H	 -3.029448	 0.000055	 -1.045738
H	 -3.268126	 0.875758	 0.463150
C	 -1.047501	 0.860107	 1.412958
C	 -0.602249	 0.328063	 -0.866403
H	 -1.303773	 1.903016	 1.204355
H	 -1.614687	 0.551813	 2.283211
C	 0.434706	 0.768533	 1.723908
H	 -0.844375	 -0.368640	 -1.660172
H	 -0.828165	 1.334704	 -1.230386
C	 0.879958	 0.236489	 -0.555453
H	 0.676832	 1.465236	 2.517677
H	 0.660622	 -0.238108	 2.087891
N	 1.223590	 1.096580	 0.556184
H	 1.447143	 0.544783	 -1.425706
H	 1.136230	 -0.806420	 -0.346850
C	 2.638472	 1.096589	 0.832619
H	 2.859735	 1.797754	 1.627587
H	 3.187004	 1.406686	 -0.048014
H	 3.012033	 0.114115	 1.134869

	symmetry c1
}
set optking {
	frozen_dihedral = ("
		6 3 2 4
	")
}

ee,wfn = optimize('scf', return_wfn=True)
oeprop( wfn, 'DIPOLE', 'QUADRUPOLE', 'MULLIKEN_CHARGES')
f=open( 'psi4out.xyz', 'w' )
f.write( "22  " )
f.write( str(ee) + "\n" )
f.write( MOL.save_string_xyz() )
f.close()
--------------------------------------------------------------------------

    Molecular point group: c1
  Charge       = 0
  Multiplicity = 1
  Basis Set: CC-PVTZ
  Basis Set:
  @DF-RHF Final Energy:  -344.34491674847192
    Total Energy =                       -344.3449167484716327
    Molecular point group: c1
  Basis Set: CC-PVTZ
  Basis Set:
  Basis Set: CC-PVTZ
  Basis Set:
  @DF-RHF Final Energy:  -344.34556023056302
    Total Energy =                       -344.3455602305627963
  Basis Set: CC-PVTZ
  Basis Set:
  Basis Set: CC-PVTZ
  Basis Set:
  @DF-RHF Final Energy:  -344.34566465428884
    Total Energy =                       -344.3456646542888393
  Basis Set: CC-PVTZ
  Basis Set:
  Charge       = 0
  Multiplicity = 1
  Basis Set: CC-PVTZ
  Basis Set:

    Orbital Energies (a.u.)
    -----------------------

    Doubly Occupied:

       1A    -15.537132     2A    -15.535886     3A    -11.237371
       4A    -11.237235     5A    -11.236458     6A    -11.236421
       7A    -11.234012     8A    -11.233968     9A     -1.255691
      10A     -1.204133    11A     -1.025284    12A     -0.992038
      13A     -0.912499    14A     -0.867325    15A     -0.836731
      16A     -0.755568    17A     -0.666199    18A     -0.636152
      19A     -0.631330    20A     -0.625257    21A     -0.621536
      22A     -0.581363    23A     -0.552140    24A     -0.548521
      25A     -0.541887    26A     -0.519998    27A     -0.497934
      28A     -0.487627    29A     -0.465012    30A     -0.456406
      31A     -0.351384    32A     -0.345762

  @DF-RHF Final Energy:  -344.34566672998488

   => Energetics <=

    Nuclear Repulsion Energy =            421.5893170053580548
    One-Electron Energy =               -1302.1374437412143834
    Two-Electron Energy =                 536.2024600058712167
    DFT Exchange-Correlation Energy =       0.0000000000000000
    Empirical Dispersion Energy =           0.0000000000000000
    PCM Polarization Energy =               0.0000000000000000
    EFP Energy =                            0.0000000000000000
    Total Energy =                       -344.3456667299851688
    Molecular point group: c1
  Basis Set: CC-PVTZ
  Basis Set:

  -Total Gradient:
     Atom            X                  Y                   Z
    ------   -----------------  -----------------  -----------------
       1       -0.000030687828    -0.000036509090     0.000002018625
       2        0.000219808692    -0.004011642747    -0.000749748707
       3       -0.000577854332    -0.002014172907     0.002557877810
       4       -0.000081004880     0.003863592166     0.000087893371
       5        0.000005232033    -0.000001473626     0.000008708151
       6        0.000304960496     0.002278389064    -0.001909806564
       7        0.000059373589    -0.000078011670     0.000105502068
       8       -0.000023183945     0.000003237557    -0.000007407443
       9       -0.000003691229    -0.000012131484    -0.000025631437
      10        0.000031032423    -0.000076374616    -0.000012293170
      11        0.000004379044     0.000009850001     0.000022290827
      12        0.000026350532    -0.000018504794     0.000005021230
      13        0.000039303799     0.000051871633    -0.000096294967
      14        0.000000564832     0.000003725658    -0.000009424122
      15        0.000018122809    -0.000008971576     0.000014372647
      16       -0.000010197051     0.000020631244    -0.000003145572
      17        0.000076798418     0.000008736145    -0.000000610793
      18       -0.000031230478     0.000032468884     0.000005041431
      19       -0.000004612197    -0.000016823128     0.000003256084
      20       -0.000008352568     0.000002502332     0.000002663312
      21       -0.000014106511    -0.000001291522    -0.000000597426
      22       -0.000001005650     0.000000902476     0.000000314642

  **** Optimization is complete! (in 4 steps) ****
    Final optimized geometry and variables:
    Molecular point group: c1

    Geometry (in Angstrom), charge = 0, multiplicity = 1:

    H           -3.206204200294    -1.434147338985     0.003427851942
    C           -2.733387492215    -0.558627231859    -0.426176309236
    N           -1.307790489160    -0.540047569155    -0.150283218218
    H           -2.918471201038    -0.549597905104    -1.492647201933
    H           -3.234326955337     0.321726249707    -0.026192414072
    C           -0.970536307386     0.311991192143     0.969902762526
    C           -0.503197143584    -0.198071687386    -1.305424427563
    H           -1.218810275426     1.356651970237     0.762305450344
    H           -1.549709433842     0.004436505069     1.833060528311
    C            0.506327851918     0.210095012756     1.301192240817
    H           -0.733041640416    -0.885718174073    -2.109960963913
    H           -0.717446723755     0.813603487930    -1.662355162004
    C            0.974821519404    -0.300867495659    -0.977221652521
    H            0.740461058683     0.899326193632     2.104093851619
    H            0.722262072209    -0.800605408886     1.660194417734
    N            1.312147500252     0.544365876205     0.147292232191
    H            1.554344024312     0.012506900971    -1.837770107680
    H            1.221004847100    -1.347917511868    -0.776848181147
    C            2.723306370184     0.530492956968     0.440436868900
    H            2.940272258390     1.221016717222     1.245946283848
    H            3.284777487094     0.846215911468    -0.430070937031
    H            3.086084943866    -0.458115300522     0.736113042507

  Mulliken Charges: (a.u.)
   Center  Symbol    Alpha    Beta     Spin     Total
       1     H     0.44919  0.44919  0.00000  0.10163
       2     C     3.09372  3.09372  0.00000 -0.18744
       3     N     3.61601  3.61601  0.00000 -0.23202
       4     H     0.45762  0.45762  0.00000  0.08476
       5     H     0.46506  0.46506  0.00000  0.06989
       6     C     3.03612  3.03612  0.00000 -0.07224
       7     C     3.03502  3.03502  0.00000 -0.07004
       8     H     0.46768  0.46768  0.00000  0.06464
       9     H     0.45326  0.45326  0.00000  0.09348
      10     C     3.03716  3.03716  0.00000 -0.07433
      11     H     0.45355  0.45355  0.00000  0.09289
      12     H     0.46845  0.46845  0.00000  0.06310
      13     C     3.03691  3.03691  0.00000 -0.07382
      14     H     0.45403  0.45403  0.00000  0.09194
      15     H     0.46836  0.46836  0.00000  0.06328
      16     N     3.61284  3.61284  0.00000 -0.22568
      17     H     0.45402  0.45402  0.00000  0.09196
      18     H     0.46852  0.46852  0.00000  0.06296
      19     C     3.09843  3.09843  0.00000 -0.19685
      20     H     0.45199  0.45199  0.00000  0.09602
      21     H     0.45201  0.45201  0.00000  0.09598
      22     H     0.47006  0.47006  0.00000  0.05988

   Total alpha = 32.00000, Total beta = 32.00000, Total charge =  0.00000

*** Psi4 exiting successfully. Buy a developer a beer!
