  ==> Input File <==

--------------------------------------------------------------------------
set {
	reference rhf
	basis 6-31G*
}

set_num_threads( 4 )
memory 2 gb

molecule MOL {
0 1

H	 1.148083	 -1.049780	 0.784252
O	 1.319262	 -0.618148	 -0.041729
C	 0.709265	 0.639550	 -0.033818
C	 1.651808	 1.780882	 0.244665
H	 -0.053267	 0.600959	 0.735765
H	 0.192257	 0.824828	 -0.974775
C	 2.909434	 1.656176	 0.618281
H	 1.225012	 2.764204	 0.120541
H	 3.361969	 0.692930	 0.769277
H	 3.527032	 2.517314	 0.799913

	symmetry c1
}
set optking {
	frozen_dihedral = ("
		5 3 2 1
	")
}

ee = optimize('scf')
oeprop('DIPOLE', 'QUADRUPOLE', 'MULLIKEN_CHARGES')
f=open( 'psi4out.xyz', 'w' )
f.write( "10  " )
f.write( str(ee) + "\n" )
f.write( MOL.save_string_xyz() )
f.close()
--------------------------------------------------------------------------

    Molecular point group: c1
  Charge       = 0
  Multiplicity = 1
  Basis Set: 6-31G*
  Basis Set:
  @DF-RHF Final Energy:  -191.91358599784664
    Total Energy =                       -191.9135859978467806
    Molecular point group: c1
  Basis Set: 6-31G*
  Basis Set:
  Basis Set: 6-31G*
  Basis Set:
  @DF-RHF Final Energy:  -191.91492235161621
    Total Energy =                       -191.9149223516160987
  Basis Set: 6-31G*
  Basis Set:
  Basis Set: 6-31G*
  Basis Set:
  @DF-RHF Final Energy:  -191.91536171901208
    Total Energy =                       -191.9153617190120826
  Basis Set: 6-31G*
  Basis Set:
  Basis Set: 6-31G*
  Basis Set:
  @DF-RHF Final Energy:  -191.91537438360908
    Total Energy =                       -191.9153743836089916
  Basis Set: 6-31G*
  Basis Set:
  Basis Set: 6-31G*
  Basis Set:
  @DF-RHF Final Energy:  -191.91537640036137
    Total Energy =                       -191.9153764003613105
  Basis Set: 6-31G*
  Basis Set:
  Charge       = 0
  Multiplicity = 1
  Basis Set: 6-31G*
  Basis Set:

    Orbital Energies (a.u.)
    -----------------------

    Doubly Occupied:

       1A    -20.559708     2A    -11.278837     3A    -11.224529
       4A    -11.211807     5A     -1.367769     6A     -1.053616
       7A     -0.924962     8A     -0.759871     9A     -0.699619
      10A     -0.652644    11A     -0.611044    12A     -0.573941
      13A     -0.514990    14A     -0.504138    15A     -0.444287
      16A     -0.358261

  @DF-RHF Final Energy:  -191.91537644886716

   => Energetics <=

    Nuclear Repulsion Energy =            119.2328875801504324
    One-Electron Energy =                -496.8164828459350133
    Two-Electron Energy =                 185.6682188169174310
    DFT Exchange-Correlation Energy =       0.0000000000000000
    Empirical Dispersion Energy =           0.0000000000000000
    PCM Polarization Energy =               0.0000000000000000
    EFP Energy =                            0.0000000000000000
    Total Energy =                       -191.9153764488671641
    Molecular point group: c1
  Basis Set: 6-31G*
  Basis Set:

  -Total Gradient:
     Atom            X                  Y                   Z
    ------   -----------------  -----------------  -----------------
       1       -0.001584555503    -0.000838993256    -0.000893350507
       2        0.002245702958     0.001179467425     0.001454571124
       3       -0.001726046655    -0.000940390173    -0.001795236836
       4        0.000001950124     0.000005883005    -0.000051558899
       5        0.001043767130     0.000575446319     0.001266787825
       6        0.000012086226     0.000016577733     0.000001230526
       7        0.000011141882     0.000003917813    -0.000034291477
       8       -0.000000329715     0.000000157814     0.000015578109
       9       -0.000001234259    -0.000000494259     0.000014913412
      10       -0.000002482190    -0.000001572423     0.000021356723

  **** Optimization is complete! (in 6 steps) ****
    Final optimized geometry and variables:
    Molecular point group: c1

    Geometry (in Angstrom), charge = 0, multiplicity = 1:

    H           -0.511439461826    -1.835037621754     0.615631336933
    O           -0.284942963422    -1.398469098817    -0.191381415162
    C           -0.910318023750    -0.145484903601    -0.248326911448
    C            0.020293190275     0.994753634945     0.068889982499
    H           -1.757225921940    -0.102908350598     0.434322098095
    H           -1.307777797799    -0.019260663057    -1.250335740771
    C            1.297546320702     0.874787764723     0.366395646753
    H           -0.435697147186     1.972617975906     0.034425763725
    H            1.778101718435    -0.085243708382     0.396320584773
    H            1.904001684495     1.736506470447     0.580912474123

  Mulliken Charges: (a.u.)
   Center  Symbol    Alpha    Beta     Spin     Total
       1     H     0.27784  0.27784  0.00000  0.44431
       2     O     4.36879  4.36879  0.00000 -0.73758
       3     C     3.00297  3.00297  0.00000 -0.00594
       4     C     3.08974  3.08974  0.00000 -0.17949
       5     H     0.42643  0.42643  0.00000  0.14713
       6     H     0.41259  0.41259  0.00000  0.17481
       7     C     3.19284  3.19284  0.00000 -0.38568
       8     H     0.41292  0.41292  0.00000  0.17417
       9     H     0.40220  0.40220  0.00000  0.19559
      10     H     0.41367  0.41367  0.00000  0.17267

   Total alpha = 16.00000, Total beta = 16.00000, Total charge =  0.00000
