  ==> Input File <==

--------------------------------------------------------------------------
set {
	reference rhf
	basis cc-pvtz
}

set_num_threads( 4 )
memory 2 gb

molecule MOL {
0 1

H	 -1.799875	 0.043712	 -0.788494
N	 -1.173824	 -0.310545	 -0.096857
C	 -0.022588	 0.563366	 0.065815
H	 -1.687926	 -0.384581	 0.756272
C	 1.270420	 -0.230572	 -0.014245
H	 -0.045354	 1.293678	 -0.735129
H	 -0.043155	 1.123061	 1.001180
H	 1.336273	 -0.754933	 -0.959364
H	 2.130728	 0.422015	 0.082222
H	 1.323344	 -0.967006	 0.781773

	symmetry c1
}
set optking {
	frozen_dihedral = ("
		1 2 3 6
	")
}

ee = optimize('scf')
oeprop('DIPOLE', 'QUADRUPOLE', 'MULLIKEN_CHARGES')
f=open( 'psi4out.xyz', 'w' )
f.write( "10  " )
f.write( str(ee) + "\n" )
f.write( MOL.save_string_xyz() )
f.close()
--------------------------------------------------------------------------

    Molecular point group: c1
  Charge       = 0
  Multiplicity = 1
  Basis Set: CC-PVTZ
  Basis Set:
  @DF-RHF Final Energy:  -134.30141525112310
    Total Energy =                       -134.3014152511231032
    Molecular point group: c1
  Basis Set: CC-PVTZ
  Basis Set:
  Basis Set: CC-PVTZ
  Basis Set:
  @DF-RHF Final Energy:  -134.30183536926859
    Total Energy =                       -134.3018353692685878
  Basis Set: CC-PVTZ
  Basis Set:
  Basis Set: CC-PVTZ
  Basis Set:
  @DF-RHF Final Energy:  -134.30196093169911
    Total Energy =                       -134.3019609316990852
  Basis Set: CC-PVTZ
  Basis Set:
  Basis Set: CC-PVTZ
  Basis Set:
  @DF-RHF Final Energy:  -134.30196512701374
    Total Energy =                       -134.3019651270137729
  Basis Set: CC-PVTZ
  Basis Set:
  Charge       = 0
  Multiplicity = 1
  Basis Set: CC-PVTZ
  Basis Set:

    Orbital Energies (a.u.)
    -----------------------

    Doubly Occupied:

       1A    -15.524684     2A    -11.241509     3A    -11.199038
       4A     -1.174228     5A     -0.986902     6A     -0.821254
       7A     -0.674180     8A     -0.624461     9A     -0.570882
      10A     -0.526523    11A     -0.511302    12A     -0.477323
      13A     -0.381079

  @DF-RHF Final Energy:  -134.30196580138414

   => Energetics <=

    Nuclear Repulsion Energy =             83.1542158248401506
    One-Electron Energy =                -345.4856345944804161
    Two-Electron Energy =                 128.0294529682560949
    DFT Exchange-Correlation Energy =       0.0000000000000000
    Empirical Dispersion Energy =           0.0000000000000000
    PCM Polarization Energy =               0.0000000000000000
    EFP Energy =                            0.0000000000000000
    Total Energy =                       -134.3019658013841706
    Molecular point group: c1
  Basis Set: CC-PVTZ
  Basis Set:

  -Total Gradient:
     Atom            X                  Y                   Z
    ------   -----------------  -----------------  -----------------
       1        0.000827142080    -0.000885270355    -0.001229238697
       2       -0.001286499398     0.001315254102     0.001756201325
       3        0.001286110755    -0.001404066673    -0.001426203298
       4        0.000007217938    -0.000000473685     0.000004416792
       5       -0.000006400631     0.000013457368     0.000016574677
       6       -0.000817313528     0.000948995327     0.000897908094
       7       -0.000008931157     0.000005227276     0.000005424584
       8        0.000000086039     0.000000660219    -0.000000441866
       9        0.000008588382    -0.000007495477    -0.000008291642
      10       -0.000010000481     0.000013711899    -0.000016349970

  **** Optimization is complete! (in 5 steps) ****
    Final optimized geometry and variables:
    Molecular point group: c1

    Geometry (in Angstrom), charge = 0, multiplicity = 1:

    H           -1.827725228761     0.040610119042    -0.749551363353
    N           -1.182005520300    -0.308834287705    -0.078187270829
    C           -0.010952246902     0.550601516041     0.062750781651
    H           -1.664315682128    -0.439241157723     0.782651221998
    C            1.283836172219    -0.245308601032     0.005245857252
    H           -0.017739197774     1.294764544806    -0.726030266722
    H           -0.046500904222     1.109252409681     0.994687912318
    H            1.363720522477    -0.772145176952    -0.937866631465
    H            2.146086734158     0.405322623390     0.113227616753
    H            1.313661641423    -0.982582031344     0.799618507416

  Mulliken Charges: (a.u.)
   Center  Symbol    Alpha    Beta     Spin     Total
       1     H     0.42479  0.42479  0.00000  0.15042
       2     N     3.69771  3.69771  0.00000 -0.39543
       3     C     3.03386  3.03386  0.00000 -0.06772
       4     H     0.42686  0.42686  0.00000  0.14627
       5     C     3.12154  3.12154  0.00000 -0.24309
       6     H     0.45783  0.45783  0.00000  0.08434
       7     H     0.46148  0.46148  0.00000  0.07703
       8     H     0.45573  0.45573  0.00000  0.08854
       9     H     0.46154  0.46154  0.00000  0.07692
      10     H     0.45864  0.45864  0.00000  0.08272

   Total alpha = 13.00000, Total beta = 13.00000, Total charge = -0.00000
