  ==> Input File <==

--------------------------------------------------------------------------
set {
	reference rhf
	basis cc-pvtz
}

set_num_threads( 4 )
memory 2 gb

molecule MOL {
0 1

H	 1.596926	 -1.077433	 1.070674
C	 0.718407	 -1.186641	 0.451812
O	 -0.000000	 0.000000	 0.518769
H	 1.032561	 -1.405417	 -0.566667
H	 0.133847	 -2.027692	 0.818933
C	 -1.165153	 0.000000	 -0.236961
H	 -1.229451	 0.882440	 -0.870223
H	 -2.002557	 0.000000	 0.445289
H	 -1.229451	 -0.882440	 -0.870223

	symmetry c1
}
set optking {
	frozen_dihedral = ("
		2 3 6 7
	")
}

ee = optimize('scf')
oeprop('DIPOLE', 'QUADRUPOLE', 'MULLIKEN_CHARGES')
f=open( 'psi4out.xyz', 'w' )
f.write( "9  " )
f.write( str(ee) + "\n" )
f.write( MOL.save_string_xyz() )
f.close()
--------------------------------------------------------------------------

    Molecular point group: c1
  Charge       = 0
  Multiplicity = 1
  Basis Set: CC-PVTZ
  Basis Set:
  @DF-RHF Final Energy:  -154.12303061959389
    Total Energy =                       -154.1230306195940329
    Molecular point group: c1
  Basis Set: CC-PVTZ
  Basis Set:
  Basis Set: CC-PVTZ
  Basis Set:
  @DF-RHF Final Energy:  -154.12358399854071
    Total Energy =                       -154.1235839985407097
  Basis Set: CC-PVTZ
  Basis Set:
  Basis Set: CC-PVTZ
  Basis Set:
  @DF-RHF Final Energy:  -154.12369497058145
    Total Energy =                       -154.1236949705814538
  Basis Set: CC-PVTZ
  Basis Set:
  Charge       = 0
  Multiplicity = 1
  Basis Set: CC-PVTZ
  Basis Set:

    Orbital Energies (a.u.)
    -----------------------

    Doubly Occupied:

       1A    -20.546785     2A    -11.263578     3A    -11.262684
       4A     -1.377901     5A     -0.975793     6A     -0.872656
       7A     -0.659364     8A     -0.654542     9A     -0.644792
      10A     -0.559177    11A     -0.527383    12A     -0.475081
      13A     -0.415335

  @DF-RHF Final Energy:  -154.12369549352616

   => Energetics <=

    Nuclear Repulsion Energy =             84.5905340866936939
    One-Electron Energy =                -376.9583187277379466
    Two-Electron Energy =                 138.2440891475182525
    DFT Exchange-Correlation Energy =       0.0000000000000000
    Empirical Dispersion Energy =           0.0000000000000000
    PCM Polarization Energy =               0.0000000000000000
    EFP Energy =                            0.0000000000000000
    Total Energy =                       -154.1236954935259860
    Molecular point group: c1
  Basis Set: CC-PVTZ
  Basis Set:

  -Total Gradient:
     Atom            X                  Y                   Z
    ------   -----------------  -----------------  -----------------
       1        0.000024430807    -0.000036124973     0.000010387180
       2        0.000733523597     0.000387266511    -0.000949125845
       3       -0.000792482556    -0.000791563689     0.001077398323
       4       -0.000024239667     0.000003106581     0.000003170871
       5       -0.000026968625     0.000059811643    -0.000015404744
       6       -0.000587082551     0.001100107589     0.000981320973
       7        0.000680300498    -0.000738483402    -0.001105241526
       8       -0.000009660096     0.000007921995    -0.000000608699
       9        0.000002178593     0.000007957746    -0.000001896534

  **** Optimization is complete! (in 4 steps) ****
    Final optimized geometry and variables:
    Molecular point group: c1

    Geometry (in Angstrom), charge = 0, multiplicity = 1:

    H            1.766483452461    -0.648523633466     0.831038259486
    C            0.885091057895    -0.780704736142     0.220029958160
    O            0.155013021551     0.400540579279     0.271799868257
    H            1.197023981343    -1.014008298024    -0.795268337379
    H            0.317359762205    -1.623395131483     0.608491019479
    C           -1.027558651396     0.415457027023    -0.467280664144
    H           -1.052440337922     1.306006006944    -1.083211969446
    H           -1.888144624159     0.417695071176     0.193241507904
    H           -1.104114147329    -0.445701773838    -1.123979831505

  Mulliken Charges: (a.u.)
   Center  Symbol    Alpha    Beta     Spin     Total
       1     H     0.44979  0.44979  0.00000  0.10042
       2     C     3.02075  3.02075  0.00000 -0.04151
       3     O     4.17274  4.17274  0.00000 -0.34547
       4     H     0.47283  0.47283  0.00000  0.05434
       5     H     0.47326  0.47326  0.00000  0.05348
       6     C     3.01629  3.01629  0.00000 -0.03257
       7     H     0.45719  0.45719  0.00000  0.08562
       8     H     0.46206  0.46206  0.00000  0.07587
       9     H     0.47509  0.47509  0.00000  0.04982

   Total alpha = 13.00000, Total beta = 13.00000, Total charge = -0.00000
