  ==> Input File <==

--------------------------------------------------------------------------
set {
	reference rhf
	basis 6-31G*
}

set_num_threads( 4 )
memory 2 gb

molecule MOL {
0 1

O	 0.391030	 1.298905	 0.000133
C	 0.503002	 0.111612	 0.000005
C	 -0.702327	 -0.811998	 -0.000075
C	 1.863306	 -0.554493	 0.000030
C	 -1.897000	 -0.256838	 0.765891
H	 -0.967385	 -1.014982	 -1.036083
H	 -0.389351	 -1.769470	 0.412307
H	 -2.226417	 0.684021	 0.342229
H	 -2.725647	 -0.956454	 0.732152
H	 -1.643259	 -0.077157	 1.803460
H	 1.974395	 -1.189404	 -0.874166
H	 2.638695	 0.198920	 -0.000196
H	 1.974487	 -1.188655	 0.874727

	symmetry c1
}
set optking {
	frozen_dihedral = ("
		6 3 2 1
	")
}

ee = optimize('scf')
oeprop('DIPOLE', 'QUADRUPOLE', 'MULLIKEN_CHARGES')
f=open( 'psi4out.xyz', 'w' )
f.write( "13  " )
f.write( str(ee) + "\n" )
f.write( MOL.save_string_xyz() )
f.close()
--------------------------------------------------------------------------

    Molecular point group: c1
  Charge       = 0
  Multiplicity = 1
  Basis Set: 6-31G*
  Basis Set:
  @DF-RHF Final Energy:  -230.99634521274973
    Total Energy =                       -230.9963452127496453
    Molecular point group: c1
  Basis Set: 6-31G*
  Basis Set:
  Basis Set: 6-31G*
  Basis Set:
  @DF-RHF Final Energy:  -230.99555535879333
    Total Energy =                       -230.9955553587933537
  Basis Set: 6-31G*
  Basis Set:
  Basis Set: 6-31G*
  Basis Set:
  @DF-RHF Final Energy:  -230.99646937387732
    Total Energy =                       -230.9964693738772894
  Basis Set: 6-31G*
  Basis Set:
  Basis Set: 6-31G*
  Basis Set:
  @DF-RHF Final Energy:  -230.99686147727527
    Total Energy =                       -230.9968614772752176
  Basis Set: 6-31G*
  Basis Set:
  Basis Set: 6-31G*
  Basis Set:
  @DF-RHF Final Energy:  -230.99687204235920
    Total Energy =                       -230.9968720423594277
  Basis Set: 6-31G*
  Basis Set:
  Basis Set: 6-31G*
  Basis Set:
  @DF-RHF Final Energy:  -230.99687554197570
    Total Energy =                       -230.9968755419757542
  Basis Set: 6-31G*
  Basis Set:
  Basis Set: 6-31G*
  Basis Set:
  @DF-RHF Final Energy:  -230.99687689017085
    Total Energy =                       -230.9968768901710519
  Basis Set: 6-31G*
  Basis Set:
  Charge       = 0
  Multiplicity = 1
  Basis Set: 6-31G*
  Basis Set:

    Orbital Energies (a.u.)
    -----------------------

    Doubly Occupied:

       1A    -20.550153     2A    -11.327012     3A    -11.234616
       4A    -11.229432     5A    -11.216315     6A     -1.396083
       7A     -1.061324     8A     -1.000566     9A     -0.878417
      10A     -0.730432    11A     -0.658088    12A     -0.641658
      13A     -0.617633    14A     -0.585641    15A     -0.570913
      16A     -0.524483    17A     -0.517893    18A     -0.505192
      19A     -0.481917    20A     -0.401725

  @DF-RHF Final Energy:  -230.99687702224034

   => Energetics <=

    Nuclear Repulsion Energy =            176.8666406851248496
    One-Electron Energy =                -663.4680524379460849
    Two-Electron Energy =                 255.6045347305806672
    DFT Exchange-Correlation Energy =       0.0000000000000000
    Empirical Dispersion Energy =           0.0000000000000000
    PCM Polarization Energy =               0.0000000000000000
    EFP Energy =                            0.0000000000000000
    Total Energy =                       -230.9968770222405965
    Molecular point group: c1
  Basis Set: 6-31G*
  Basis Set:

  -Total Gradient:
     Atom            X                  Y                   Z
    ------   -----------------  -----------------  -----------------
       1       -0.000000115724     0.000036408458    -0.001621097066
       2       -0.000177322804     0.000199574448     0.002293292804
       3        0.001151218216    -0.001484523834    -0.000709367893
       4       -0.000008292382     0.000007425853     0.000000443359
       5       -0.000001575334     0.000000001442    -0.000002875795
       6       -0.000966023946     0.001246770125     0.000040597085
       7       -0.000000174014    -0.000000225045    -0.000000365454
       8        0.000000817901     0.000000468499    -0.000001428124
       9        0.000000366761    -0.000001554907     0.000000340145
      10        0.000003092792    -0.000001582181    -0.000001521793
      11       -0.000004277628     0.000000597487     0.000000268541
      12        0.000002902443    -0.000001853282    -0.000000033071
      13       -0.000000616281    -0.000001507068     0.000001747263

  **** Optimization is complete! (in 8 steps) ****
    Final optimized geometry and variables:
    Molecular point group: c1

    Geometry (in Angstrom), charge = 0, multiplicity = 1:

    O            0.352872892919     1.329919280957    -0.098256662400
    C            0.480348788015     0.144479507891    -0.133658760544
    C           -0.722477179669    -0.785037094423    -0.157461035529
    C            1.844929801890    -0.504671364878    -0.201749227219
    C           -1.937844642749    -0.213335665577     0.568702551979
    H           -0.966013167971    -0.939895049471    -1.207887396009
    H           -0.447726201687    -1.756852403146     0.241482196301
    H           -2.212444958651     0.747993647240     0.155390401530
    H           -2.784995382478    -0.884723551843     0.476974324770
    H           -1.731774067827    -0.074161986188     1.624741089571
    H            1.889755803472    -1.218521370508    -1.019169840503
    H            2.607508527318     0.250625097015    -0.331010887676
    H            2.034642934811    -1.055052320343     0.715947812848

  Mulliken Charges: (a.u.)
   Center  Symbol    Alpha    Beta     Spin     Total
       1     O     4.26189  4.26189  0.00000 -0.52379
       2     C     2.73551  2.73551  0.00000  0.52899
       3     C     3.20679  3.20679  0.00000 -0.41359
       4     C     3.28822  3.28822  0.00000 -0.57645
       5     C     3.23896  3.23896  0.00000 -0.47792
       6     H     0.40381  0.40381  0.00000  0.19238
       7     H     0.41368  0.41368  0.00000  0.17263
       8     H     0.40290  0.40290  0.00000  0.19421
       9     H     0.41844  0.41844  0.00000  0.16312
      10     H     0.41667  0.41667  0.00000  0.16666
      11     H     0.40950  0.40950  0.00000  0.18100
      12     H     0.39677  0.39677  0.00000  0.20647
      13     H     0.40685  0.40685  0.00000  0.18629

   Total alpha = 20.00000, Total beta = 20.00000, Total charge =  0.00000
