                              Psi4 1.0.54 Driver

  ==> Input File <==

--------------------------------------------------------------------------
set {
	reference rhf
	basis cc-pvtz
}

set_num_threads( 4 )
memory 2 gb

molecule MOL {
0 1

H	 2.596584	 2.081646	 0.237872
O	 3.344016	 1.710166	 -0.192451
C	 3.562584	 0.399513	 0.258870
C	 2.538978	 -0.599257	 -0.260144
H	 4.547236	 0.125533	 -0.095212
H	 3.592401	 0.372707	 1.346456
C	 1.118515	 -0.363017	 0.248113
H	 2.548514	 -0.571084	 -1.345626
H	 2.864924	 -1.594422	 0.032775
C	 0.125565	 -1.403834	 -0.267239
H	 0.791068	 0.627399	 -0.049977
H	 1.118314	 -0.378323	 1.336714
C	 -1.299537	 -1.258994	 0.269752
H	 0.104727	 -1.369914	 -1.353813
H	 0.493043	 -2.391614	 -0.003194
C	 -2.041121	 -0.006551	 -0.194127
H	 -1.869742	 -2.131459	 -0.037165
H	 -1.276944	 -1.281486	 1.357014
C	 -3.489218	 0.042606	 0.286507
H	 -2.023676	 0.037698	 -1.280960
H	 -1.526197	 0.883416	 0.154893
C	 -4.219984	 1.311773	 -0.139038
H	 -4.022855	 -0.824300	 -0.093339
H	 -3.510372	 -0.038577	 1.370031
H	 -4.244251	 1.405725	 -1.219696
H	 -5.244345	 1.313233	 0.215630
H	 -3.732090	 2.196311	 0.257073

	symmetry c1
}
set optking {
	frozen_dihedral = ("
		20 16 19 22
	")
}

ee,wfn = optimize('scf', return_wfn=True)
oeprop( wfn, 'DIPOLE', 'QUADRUPOLE', 'MULLIKEN_CHARGES')
f=open( 'psi4out.xyz', 'w' )
f.write( "27  " )
f.write( str(ee) + "\n" )
f.write( MOL.save_string_xyz() )
f.close()
--------------------------------------------------------------------------

    Molecular point group: c1
  Charge       = 0
  Multiplicity = 1
  Basis Set: CC-PVTZ
  Basis Set:
  @DF-RHF Final Energy:  -388.42777872188611
    Total Energy =                       -388.4277787218863978
    Molecular point group: c1
  Basis Set: CC-PVTZ
  Basis Set:
  Charge       = 0
  Multiplicity = 1
  Basis Set: CC-PVTZ
  Basis Set:

    Orbital Energies (a.u.)
    -----------------------

    Doubly Occupied:

       1A    -20.545339     2A    -11.264987     3A    -11.216742
       4A    -11.214683     5A    -11.213900     6A    -11.213243
       7A    -11.213217     8A    -11.211874     9A    -11.207265
      10A     -1.363238    11A     -1.096237    12A     -1.062590
      13A     -1.012519    14A     -0.949433    15A     -0.888643
      16A     -0.820518    17A     -0.801943    18A     -0.778264
      19A     -0.696267    20A     -0.652889    21A     -0.639231
      22A     -0.616060    23A     -0.601923    24A     -0.583651
      25A     -0.580949    26A     -0.553449    27A     -0.541235
      28A     -0.532858    29A     -0.505574    30A     -0.495458
      31A     -0.485461    32A     -0.474215    33A     -0.469561
      34A     -0.461334    35A     -0.452664    36A     -0.442626
      37A     -0.425645

  @DF-RHF Final Energy:  -388.42777971807197

   => Energetics <=

    Nuclear Repulsion Energy =            460.2000901794416450
    One-Electron Energy =               -1438.6843678590021227
    Two-Electron Energy =                 590.0564979614880485
    DFT Exchange-Correlation Energy =       0.0000000000000000
    Empirical Dispersion Energy =           0.0000000000000000
    PCM Polarization Energy =               0.0000000000000000
    EFP Energy =                            0.0000000000000000
    Total Energy =                       -388.4277797180724292
    Molecular point group: c1
  Basis Set: CC-PVTZ
  Basis Set:

  -Total Gradient:
     Atom            X                  Y                   Z
    ------   -----------------  -----------------  -----------------
       1        0.000015520557     0.000007304335    -0.000004261934
       2       -0.000026166864     0.000000564924     0.000017518939
       3        0.000033318519    -0.000027850986    -0.000003997493
       4       -0.000003888283    -0.000059896708     0.000059723595
       5        0.000001960168     0.000001954545     0.000004736519
       6        0.000000880029     0.000010877759    -0.000005420934
       7       -0.000018073436     0.000027321282    -0.000070282141
       8        0.000002699416     0.000035176354     0.000030837173
       9        0.000000903017    -0.000025183943    -0.000020984801
      10        0.000024500301     0.000007377373    -0.000027685959
      11       -0.000020608357     0.000002776269    -0.000002407393
      12        0.000002193409     0.000014728643    -0.000059828049
      13       -0.000066639753     0.000007353867    -0.000047588183
      14        0.000008127399     0.000008801069     0.000010390983
      15        0.000041682641     0.000006059555    -0.000010089719
      16        0.000114142680     0.000456689527     0.000274996784
      17       -0.000019509046    -0.000006360565     0.000017669108
      18       -0.000033775510     0.000033138010    -0.000014177927
      19       -0.000129302958    -0.000287027104    -0.000362441615
      20       -0.000010345388    -0.000367951403     0.000016750326
      21        0.000021044204     0.000051007015    -0.000007972222
      22        0.000079444696     0.000123468281     0.000215351094
      23       -0.000051207693    -0.000039000200     0.000024357180
      24        0.000025319556     0.000027543811    -0.000045838616
      25        0.000020813202    -0.000017102911     0.000010685093
      26       -0.000000180449    -0.000007158790    -0.000003452624
      27       -0.000012852055     0.000015389993     0.000003412814

  **** Optimization is complete! (in 2 steps) ****
    Final optimized geometry and variables:
    Molecular point group: c1

    Geometry (in Angstrom), charge = 0, multiplicity = 1:

    H            2.603529025519     2.056308800309     0.234913807008
    O            3.350256648952     1.683298161301    -0.195001556083
    C            3.563800211356     0.370850228899     0.253355316287
    C            2.537608335599    -0.623153483765    -0.269497017708
    H            4.548091277143     0.094448478631    -0.099807158951
    H            3.591796006882     0.341461861327     1.340877609634
    C            1.116068806408    -0.379844039511     0.232251195707
    H            2.552060074342    -0.595296963145    -1.354850659782
    H            2.857512782262    -1.619768897577     0.025096984428
    C            0.123217562668    -1.424655108820    -0.274927586052
    H            0.790418482248     0.608031557976    -0.076092811783
    H            1.113225032612    -0.384606355987     1.320822763334
    C           -1.299332882880    -1.282439394907     0.269596392527
    H            0.096474170130    -1.393780828525    -1.361418647762
    H            0.495122324042    -2.410561795193    -0.010219393331
    C           -2.043369992175    -0.028066957435    -0.184855417862
    H           -1.870989180392    -2.153544302251    -0.038439190078
    H           -1.271713113566    -1.309738477036     1.356556419373
    C           -3.492773918385     0.011582120359     0.292630153059
    H           -2.024257121518     0.022617330992    -1.271304349237
    H           -1.531571434377     0.860571695344     0.171943085181
    C           -4.228600371447     1.279684573880    -0.127128980099
    H           -4.021353391293    -0.856495302356    -0.091501274239
    H           -3.515357822120    -0.073990304086     1.375735793216
    H           -4.247365578042     1.382097674972    -1.207122374711
    H           -5.254907643767     1.272401955611     0.221668917794
    H           -3.748043569284     2.163757675824     0.278703245035

  Mulliken Charges: (a.u.)
   Center  Symbol    Alpha    Beta     Spin     Total
       1     H     0.39229  0.39229  0.00000  0.21541
       2     O     4.20552  4.20552  0.00000 -0.41103
       3     C     2.97998  2.97998  0.00000  0.04004
       4     C     3.08914  3.08914  0.00000 -0.17828
       5     H     0.44858  0.44858  0.00000  0.10285
       6     H     0.46971  0.46971  0.00000  0.06057
       7     C     3.10280  3.10280  0.00000 -0.20561
       8     H     0.45076  0.45076  0.00000  0.09847
       9     H     0.45521  0.45521  0.00000  0.08959
      10     C     3.09853  3.09853  0.00000 -0.19705
      11     H     0.45559  0.45559  0.00000  0.08881
      12     H     0.45379  0.45379  0.00000  0.09241
      13     C     3.09808  3.09808  0.00000 -0.19616
      14     H     0.45162  0.45162  0.00000  0.09676
      15     H     0.44807  0.44807  0.00000  0.10386
      16     C     3.08793  3.08793  0.00000 -0.17586
      17     H     0.44803  0.44803  0.00000  0.10394
      18     H     0.45384  0.45384  0.00000  0.09232
      19     C     3.08407  3.08407  0.00000 -0.16813
      20     H     0.45402  0.45402  0.00000  0.09195
      21     H     0.45548  0.45548  0.00000  0.08905
      22     C     3.14961  3.14961  0.00000 -0.29923
      23     H     0.45356  0.45356  0.00000  0.09289
      24     H     0.45486  0.45486  0.00000  0.09027
      25     H     0.45486  0.45486  0.00000  0.09028
      26     H     0.44830  0.44830  0.00000  0.10340
      27     H     0.45576  0.45576  0.00000  0.08848

   Total alpha = 37.00000, Total beta = 37.00000, Total charge =  0.00000

*** Psi4 exiting successfully. Buy a developer a beer!
