                              Psi4 1.0.54 Driver

  ==> Input File <==

--------------------------------------------------------------------------
set {
	reference rhf
	basis cc-pvtz
}

set_num_threads( 4 )
memory 2 gb

molecule MOL {
0 1

H	 3.721907	 -0.933076	 -0.066039
O	 2.824271	 -1.154299	 0.131461
C	 2.076458	 -0.067370	 -0.038225
C	 0.626018	 -0.337582	 0.258241
O	 2.538288	 0.965419	 -0.381593
C	 -0.267326	 0.883135	 0.076490
H	 0.325620	 -1.161483	 -0.378003
H	 0.574537	 -0.713685	 1.275261
C	 -1.726822	 0.642622	 0.463839
H	 -0.210803	 1.217591	 -0.953497
H	 0.129920	 1.693110	 0.675679
C	 -1.934576	 -0.261181	 1.677931
H	 -2.231784	 0.197366	 -0.388225
H	 -2.217578	 1.597619	 0.638727
C	 -3.406997	 -0.549516	 1.952367
H	 -1.407823	 -1.198332	 1.518828
H	 -1.494690	 0.190719	 2.561245
H	 -3.526584	 -1.193439	 2.815932
H	 -3.873663	 -1.041108	 1.105457
H	 -3.955573	 0.366593	 2.144628

	symmetry c1
}
set optking {
	frozen_dihedral = ("
		12 9 6 10
	")
}

ee,wfn = optimize('scf', return_wfn=True)
oeprop( wfn, 'DIPOLE', 'QUADRUPOLE', 'MULLIKEN_CHARGES')
f=open( 'psi4out.xyz', 'w' )
f.write( "20  " )
f.write( str(ee) + "\n" )
f.write( MOL.save_string_xyz() )
f.close()
--------------------------------------------------------------------------

    Molecular point group: c1
  Charge       = 0
  Multiplicity = 1
  Basis Set: CC-PVTZ
  Basis Set:
  @DF-RHF Final Energy:  -384.09031687481399
    Total Energy =                       -384.0903168748141070
    Molecular point group: c1
  Basis Set: CC-PVTZ
  Basis Set:
  Basis Set: CC-PVTZ
  Basis Set:
  @DF-RHF Final Energy:  -383.23312903437386
    Total Energy =                       -383.2331290343738601
  Basis Set: CC-PVTZ
  Basis Set:
  Basis Set: CC-PVTZ
  Basis Set:
  @DF-RHF Final Energy:  -383.45308415652346
    Total Energy =                       -383.4530841565232890
  Basis Set: CC-PVTZ
  Basis Set:
  Basis Set: CC-PVTZ
  Basis Set:
  @DF-RHF Final Energy:  -383.80369651281745
    Total Energy =                       -383.8036965128173392
  Basis Set: CC-PVTZ
  Basis Set:
  @DF-RHF Final Energy:  -384.00702457997221
    Total Energy =                       -384.0070245799720396
  @DF-RHF Final Energy:  -384.07999675642895
    Total Energy =                       -384.0799967564291819
  @DF-RHF Final Energy:  -384.09157802658262
    Total Energy =                       -384.0915780265831927
  @DF-RHF Final Energy:  -384.09218053442930
    Total Energy =                       -384.0921805344295876
  @DF-RHF Final Energy:  -384.09178058294759
    Total Energy =                       -384.0917805829473650
  @DF-RHF Final Energy:  -384.09229129157285
    Total Energy =                       -384.0922912915727352
  Basis Set: CC-PVTZ
  Basis Set:
  @DF-RHF Final Energy:  -384.09229659838905
    Total Energy =                       -384.0922965983891686
  Basis Set: CC-PVTZ
  Basis Set:
  Basis Set: CC-PVTZ
  Basis Set:
  @DF-RHF Final Energy:  -384.09229924934010
    Total Energy =                       -384.0922992493407264
  Basis Set: CC-PVTZ
  Basis Set:
  Basis Set: CC-PVTZ
  Basis Set:
  @DF-RHF Final Energy:  -384.09230065506085
    Total Energy =                       -384.0923006550606260
  Basis Set: CC-PVTZ
  Basis Set:
  Charge       = 0
  Multiplicity = 1
  Basis Set: CC-PVTZ
  Basis Set:

    Orbital Energies (a.u.)
    -----------------------

    Doubly Occupied:

       1A    -20.603640     2A    -20.540335     3A    -11.373126
       4A    -11.238376     5A    -11.221267     6A    -11.219311
       7A    -11.218472     8A    -11.210834     9A     -1.477275
      10A     -1.368755    11A     -1.096994    12A     -1.041636
      13A     -0.962171    14A     -0.871037    15A     -0.821758
      16A     -0.771714    17A     -0.703529    18A     -0.692068
      19A     -0.669742    20A     -0.639034    21A     -0.600647
      22A     -0.597110    23A     -0.580199    24A     -0.554026
      25A     -0.539614    26A     -0.517278    27A     -0.498075
      28A     -0.484231    29A     -0.471361    30A     -0.464453
      31A     -0.457655    32A     -0.446618

  @DF-RHF Final Energy:  -384.09230126377491

   => Energetics <=

    Nuclear Repulsion Energy =            377.6503716434795592
    One-Electron Energy =               -1271.5806688805027989
    Two-Electron Energy =                 509.8379959732483826
    DFT Exchange-Correlation Energy =       0.0000000000000000
    Empirical Dispersion Energy =           0.0000000000000000
    PCM Polarization Energy =               0.0000000000000000
    EFP Energy =                            0.0000000000000000
    Total Energy =                       -384.0923012637749139
    Molecular point group: c1
  Basis Set: CC-PVTZ
  Basis Set:

  -Total Gradient:
     Atom            X                  Y                   Z
    ------   -----------------  -----------------  -----------------
       1        0.000042952303    -0.000002270550    -0.000076713968
       2       -0.000084199689     0.000069242931     0.000071612064
       3        0.000052797675     0.000001693497    -0.000078747936
       4       -0.000029838808     0.000027828755     0.000026981586
       5        0.000007775231    -0.000067950981     0.000042198621
       6       -0.001124107699     0.004974487766    -0.000015380895
       7       -0.000007501679     0.000002639307    -0.000001367416
       8       -0.000000677769    -0.000013980793     0.000008537686
       9        0.001161030848     0.004505274802     0.001396063101
      10        0.000680753940    -0.005501112282    -0.000371952159
      11       -0.000001865080    -0.000008173339     0.000018203783
      12       -0.000680919197    -0.004004248807    -0.001016057138
      13       -0.000012229635    -0.000020272774    -0.000003480503
      14        0.000005350981     0.000006805627    -0.000000791044
      15       -0.000012885878     0.000036947702    -0.000015789679
      16       -0.000013025602     0.000012572615     0.000007450685
      17        0.000000087771     0.000014610870    -0.000006378434
      18        0.000007899154    -0.000015992356     0.000016569879
      19        0.000002568820    -0.000000624015     0.000004226787
      20        0.000006034317    -0.000017477978    -0.000005185023

  **** Optimization is complete! (in 14 steps) ****
    Final optimized geometry and variables:
    Molecular point group: c1

    Geometry (in Angstrom), charge = 0, multiplicity = 1:

    H            2.423835057729    -1.051888000214    -2.725433174260
    O            2.009477316377    -1.176777628137    -1.884860838714
    C            1.084374762841    -0.233807790806    -1.727901932348
    C            0.374420910514    -0.366503746830    -0.407081543900
    O            0.879387224208     0.588060419581    -2.552818287906
    C           -0.680644565986     0.712455812383    -0.182459935047
    H           -0.063346098315    -1.359739007806    -0.383931967686
    H            1.138695090866    -0.361518189305     0.360256387483
    C           -1.516545430499     0.523924436829     1.091581435183
    H           -1.343083860914     0.682989234462    -1.038148994481
    H           -0.198657722162     1.682377042298    -0.181273316100
    C           -0.761487088556     0.067203962935     2.339326203519
    H           -2.297398940118    -0.206023572912     0.890201540262
    H           -2.029693992810     1.456469406478     1.303245979903
    C           -1.654734736208     0.023171492970     3.575059659747
    H           -0.338585190377    -0.917832196092     2.175999498225
    H            0.076575425350     0.734000807867     2.528584045962
    H           -1.105415546047    -0.319525461717     4.444304127387
    H           -2.492795712939    -0.649933527452     3.427119614453
    H           -2.057031130901     1.004346535261     3.802813638966

  Mulliken Charges: (a.u.)
   Center  Symbol    Alpha    Beta     Spin     Total
       1     H     0.38232  0.38232  0.00000  0.23536
       2     O     4.15987  4.15987  0.00000 -0.31973
       3     C     2.80791  2.80791  0.00000  0.38417
       4     C     3.11478  3.11478  0.00000 -0.22956
       5     O     4.19074  4.19074  0.00000 -0.38147
       6     C     3.09045  3.09045  0.00000 -0.18091
       7     H     0.43703  0.43703  0.00000  0.12594
       8     H     0.43447  0.43447  0.00000  0.13107
       9     C     3.09598  3.09598  0.00000 -0.19196
      10     H     0.44097  0.44097  0.00000  0.11805
      11     H     0.44428  0.44428  0.00000  0.11144
      12     C     3.09124  3.09124  0.00000 -0.18247
      13     H     0.45302  0.45302  0.00000  0.09397
      14     H     0.44679  0.44679  0.00000  0.10643
      15     C     3.15065  3.15065  0.00000 -0.30130
      16     H     0.45118  0.45118  0.00000  0.09763
      17     H     0.45256  0.45256  0.00000  0.09488
      18     H     0.44765  0.44765  0.00000  0.10470
      19     H     0.45477  0.45477  0.00000  0.09045
      20     H     0.45334  0.45334  0.00000  0.09332

   Total alpha = 32.00000, Total beta = 32.00000, Total charge =  0.00000

*** Psi4 exiting successfully. Buy a developer a beer!
