  ==> Input File <==

--------------------------------------------------------------------------
set {
	reference rhf
	basis 6-31G*
}

set_num_threads( 4 )
memory 2 gb

molecule MOL {
0 1

H	 1.316793	 1.740232	 -2.930320
O	 2.162680	 1.367694	 -3.132215
C	 2.781983	 0.930222	 -1.949364
C	 2.153437	 -0.334071	 -1.373846
H	 3.814568	 0.738387	 -2.211363
H	 2.780112	 1.723257	 -1.202456
C	 0.700640	 -0.158125	 -0.925190
H	 2.211546	 -1.119704	 -2.122693
H	 2.756749	 -0.657491	 -0.527217
C	 0.115918	 -1.429151	 -0.302766
H	 0.096971	 0.138964	 -1.778236
H	 0.641274	 0.654241	 -0.200705
C	 -1.309753	 -1.282496	 0.241564
H	 0.139598	 -2.231409	 -1.038067
H	 0.764393	 -1.745669	 0.511481
C	 -2.037799	 -0.007733	 -0.193645
H	 -1.890610	 -2.142323	 -0.085726
H	 -1.285946	 -1.330893	 1.329189
C	 -3.489788	 0.042957	 0.286558
H	 -2.017067	 0.064384	 -1.280144
H	 -1.513726	 0.868678	 0.179924
C	 -4.216917	 1.317354	 -0.141063
H	 -4.025645	 -0.823308	 -0.095450
H	 -3.513059	 -0.038752	 1.371301
H	 -4.239342	 1.411634	 -1.223113
H	 -5.243387	 1.322503	 0.212445
H	 -3.726170	 2.201406	 0.256408

	symmetry c1
}
set optking {
	frozen_dihedral = ("
		14 10 13 16
	")
}

ee = optimize('scf')
oeprop('DIPOLE', 'QUADRUPOLE', 'MULLIKEN_CHARGES')
f=open( 'psi4out.xyz', 'w' )
f.write( "27  " )
f.write( str(ee) + "\n" )
f.write( MOL.save_string_xyz() )
f.close()
--------------------------------------------------------------------------

    Molecular point group: c1
  Charge       = 0
  Multiplicity = 1
  Basis Set: 6-31G*
  Basis Set:
  @DF-RHF Final Energy:  -388.27239540362410
    Total Energy =                       -388.2723954036241594
    Molecular point group: c1
  Basis Set: 6-31G*
  Basis Set:
  Basis Set: 6-31G*
  Basis Set:
  @DF-RHF Final Energy:  -388.27274799961577
    Total Energy =                       -388.2727479996158308
  Basis Set: 6-31G*
  Basis Set:
  Basis Set: 6-31G*
  Basis Set:
  @DF-RHF Final Energy:  -388.27426702156248
    Total Energy =                       -388.2742670215618546
  Basis Set: 6-31G*
  Basis Set:
  Basis Set: 6-31G*
  Basis Set:
  @DF-RHF Final Energy:  -388.27429270496162
    Total Energy =                       -388.2742927049616810
  Basis Set: 6-31G*
  Basis Set:
  @DF-RHF Final Energy:  -388.27434516058389
    Total Energy =                       -388.2743451605841756
  Basis Set: 6-31G*
  Basis Set:
  @DF-RHF Final Energy:  -388.27436283048121
    Total Energy =                       -388.2743628304823460
  Basis Set: 6-31G*
  Basis Set:
  Basis Set: 6-31G*
  Basis Set:
  @DF-RHF Final Energy:  -388.27435704878093
    Total Energy =                       -388.2743570487803026
  Basis Set: 6-31G*
  Basis Set:
  Basis Set: 6-31G*
  Basis Set:
  @DF-RHF Final Energy:  -388.27436379334483
    Total Energy =                       -388.2743637933444916
  Basis Set: 6-31G*
  Basis Set:
  Charge       = 0
  Multiplicity = 1
  Basis Set: 6-31G*
  Basis Set:

    Orbital Energies (a.u.)
    -----------------------

    Doubly Occupied:

       1A    -20.552160     2A    -11.266991     3A    -11.220147
       4A    -11.217529     5A    -11.216395     6A    -11.216081
       7A    -11.215144     8A    -11.215027     9A    -11.209970
      10A     -1.358939    11A     -1.093260    12A     -1.061690
      13A     -1.009304    14A     -0.948530    15A     -0.890391
      16A     -0.820497    17A     -0.807215    18A     -0.769497
      19A     -0.693618    20A     -0.657737    21A     -0.632706
      22A     -0.613589    23A     -0.602785    24A     -0.584933
      25A     -0.576045    26A     -0.553047    27A     -0.539212
      28A     -0.532276    29A     -0.506232    30A     -0.497316
      31A     -0.488117    32A     -0.475038    33A     -0.467545
      34A     -0.455856    35A     -0.446256    36A     -0.442658
      37A     -0.423621

  @DF-RHF Final Energy:  -388.27436386914087

   => Energetics <=

    Nuclear Repulsion Energy =            461.5476079587710956
    One-Electron Energy =               -1441.0892344731591947
    Two-Electron Energy =                 591.2672626452467739
    DFT Exchange-Correlation Energy =       0.0000000000000000
    Empirical Dispersion Energy =           0.0000000000000000
    PCM Polarization Energy =               0.0000000000000000
    EFP Energy =                            0.0000000000000000
    Total Energy =                       -388.2743638691413253
    Molecular point group: c1
  Basis Set: 6-31G*
  Basis Set:

  -Total Gradient:
     Atom            X                  Y                   Z
    ------   -----------------  -----------------  -----------------
       1       -0.000000399709     0.000002031942    -0.000003025272
       2       -0.000007366218     0.000005334784     0.000004127145
       3        0.000009591305    -0.000011351219    -0.000005350588
       4        0.000000979935     0.000002374855     0.000005000439
       5        0.000001578903     0.000000046409     0.000001242787
       6       -0.000001264902    -0.000000609338    -0.000001694094
       7        0.000002830339    -0.000002053471     0.000012836589
       8        0.000006771049     0.000004893556    -0.000003276132
       9       -0.000003711381    -0.000001664890     0.000001728947
      10       -0.000632378792     0.004162761107    -0.002780767095
      11       -0.000004029734    -0.000003952500     0.000000470760
      12       -0.000002637304     0.000000798854    -0.000005848267
      13       -0.001374831306    -0.003007501252    -0.003047952663
      14        0.000913082877    -0.002782590917     0.003207860480
      15        0.000002771309     0.000003156081    -0.000001967982
      16        0.001093398130     0.001627278425     0.002617085216
      17       -0.000001076916     0.000001338494    -0.000000088850
      18       -0.000003407017     0.000001905818     0.000000374699
      19       -0.000002084659    -0.000001975298    -0.000003288243
      20       -0.000000290601    -0.000001736065     0.000001425634
      21        0.000003252472     0.000000719289    -0.000000654120
      22        0.000001049701     0.000001743586     0.000003806977
      23        0.000000524114    -0.000000151939    -0.000001282189
      24       -0.000002058487    -0.000000655529    -0.000000199362
      25       -0.000001599252    -0.000001620294     0.000000012650
      26        0.000000498293     0.000001159237     0.000001494776
      27        0.000000807847     0.000000320273    -0.000002072239

  **** Optimization is complete! (in 9 steps) ****
    Final optimized geometry and variables:
    Molecular point group: c1

    Geometry (in Angstrom), charge = 0, multiplicity = 1:

    H            1.801799890218     1.695895546914    -2.030197430962
    O            2.620959412258     1.275388356919    -2.247666279586
    C            3.219957240622     0.773617752137    -1.080065275500
    C            2.514229460488    -0.458290559523    -0.524048578777
    H            4.235254568297     0.519596702401    -1.356289852809
    H            3.277130945307     1.549419810642    -0.317394580668
    C            1.079172119729    -0.195315682559    -0.060450208491
    H            2.515369717878    -1.230949028862    -1.288427895337
    H            3.101212910345    -0.837197840982     0.310963473731
    C            0.431590216685    -1.444344973053     0.543755389825
    H            0.489071704535     0.152554017494    -0.903312398584
    H            1.083102409489     0.608574019678     0.673976891779
    C           -1.022846960019    -1.313810829297     1.070072875160
    H            0.482010336985    -2.257762923746    -0.175696836741
    H            1.058200027552    -1.775072613655     1.368882798532
    C           -1.817849087501    -0.078565756740     0.632763084306
    H           -1.578617741556    -2.203665249013     0.787976082790
    H           -0.999957934090    -1.315829463680     2.157304256989
    C           -3.235756410937    -0.066979900039     1.208534991254
    H           -1.879110415257    -0.036631386190    -0.453071315318
    H           -1.302982445771     0.825588154836     0.946687715909
    C           -4.040361703135     1.162990335465     0.789457868955
    H           -3.760632795539    -0.965831595461     0.892290890010
    H           -3.183943968983    -0.110819681935     2.294432722002
    H           -4.140750919559     1.216779689371    -0.290957941318
    H           -5.039658734186     1.142738473438     1.213236425619
    H           -3.559219376606     2.078667264888     1.121834055000

  Mulliken Charges: (a.u.)
   Center  Symbol    Alpha    Beta     Spin     Total
       1     H     0.27985  0.27985  0.00000  0.44031
       2     O     4.37100  4.37100  0.00000 -0.74200
       3     C     2.99724  2.99724  0.00000  0.00553
       4     C     3.16120  3.16120  0.00000 -0.32240
       5     H     0.41441  0.41441  0.00000  0.17118
       6     H     0.43214  0.43214  0.00000  0.13572
       7     C     3.16409  3.16409  0.00000 -0.32819
       8     H     0.41495  0.41495  0.00000  0.17010
       9     H     0.42431  0.42431  0.00000  0.15139
      10     C     3.15518  3.15518  0.00000 -0.31036
      11     H     0.42263  0.42263  0.00000  0.15474
      12     H     0.42418  0.42418  0.00000  0.15163
      13     C     3.15527  3.15527  0.00000 -0.31055
      14     H     0.41956  0.41956  0.00000  0.16088
      15     H     0.42122  0.42122  0.00000  0.15756
      16     C     3.15398  3.15398  0.00000 -0.30797
      17     H     0.41990  0.41990  0.00000  0.16020
      18     H     0.42221  0.42221  0.00000  0.15559
      19     C     3.15131  3.15131  0.00000 -0.30262
      20     H     0.42377  0.42377  0.00000  0.15246
      21     H     0.42350  0.42350  0.00000  0.15299
      22     C     3.23918  3.23918  0.00000 -0.47836
      23     H     0.42264  0.42264  0.00000  0.15473
      24     H     0.42309  0.42309  0.00000  0.15383
      25     H     0.42183  0.42183  0.00000  0.15633
      26     H     0.41894  0.41894  0.00000  0.16211
      27     H     0.42242  0.42242  0.00000  0.15517

   Total alpha = 37.00000, Total beta = 37.00000, Total charge =  0.00000
