                              Psi4 1.0.54 Driver

  ==> Input File <==

--------------------------------------------------------------------------
set {
	reference rhf
	basis cc-pvtz
}

set_num_threads( 4 )
memory 2 gb

molecule MOL {
0 1

O	 -2.071633	 -1.227563	 -0.223463
C	 -1.652164	 -0.152425	 0.058082
C	 -0.327811	 0.006324	 0.778296
C	 -2.402515	 1.108629	 -0.298924
C	 0.843231	 -0.001575	 -0.211665
H	 -0.319484	 0.928173	 1.350354
H	 -0.227804	 -0.823091	 1.466705
C	 2.197693	 0.138030	 0.476937
H	 0.722944	 0.805202	 -0.930230
H	 0.813976	 -0.926978	 -0.776588
C	 3.308647	 0.558926	 -0.478987
H	 2.119662	 0.863453	 1.282043
H	 2.460151	 -0.807754	 0.941855
H	 3.091280	 1.519525	 -0.934000
H	 3.431575	 -0.164262	 -1.277897
H	 4.257121	 0.645381	 0.038046
H	 -3.240910	 0.874416	 -0.936711
H	 -1.747554	 1.818823	 -0.790984
H	 -2.760419	 1.579708	 0.610998

	symmetry c1
}
set optking {
	frozen_dihedral = ("
		11 8 5 9
	")
}

ee,wfn = optimize('scf', return_wfn=True)
oeprop( wfn, 'DIPOLE', 'QUADRUPOLE', 'MULLIKEN_CHARGES')
f=open( 'psi4out.xyz', 'w' )
f.write( "19  " )
f.write( str(ee) + "\n" )
f.write( MOL.save_string_xyz() )
f.close()
--------------------------------------------------------------------------

    Molecular point group: c1
  Charge       = 0
  Multiplicity = 1
  Basis Set: CC-PVTZ
  Basis Set:
  @DF-RHF Final Energy:  -309.17611977636318
    Total Energy =                       -309.1761197763631230
    Molecular point group: c1
  Basis Set: CC-PVTZ
  Basis Set:
  Basis Set: CC-PVTZ
  Basis Set:
  @DF-RHF Final Energy:  -309.17613238846678
    Total Energy =                       -309.1761323884667831
  Basis Set: CC-PVTZ
  Basis Set:
  Basis Set: CC-PVTZ
  Basis Set:
  @DF-RHF Final Energy:  -309.17623117836268
    Total Energy =                       -309.1762311783624000
  Basis Set: CC-PVTZ
  Basis Set:
  Basis Set: CC-PVTZ
  Basis Set:
  @DF-RHF Final Energy:  -309.17620463468671
    Total Energy =                       -309.1762046346864850
  Basis Set: CC-PVTZ
  Basis Set:
  Basis Set: CC-PVTZ
  Basis Set:
  @DF-RHF Final Energy:  -309.17625214890205
    Total Energy =                       -309.1762521489022220
  Basis Set: CC-PVTZ
  Basis Set:
  Basis Set: CC-PVTZ
  Basis Set:
  @DF-RHF Final Energy:  -309.17626939369916
    Total Energy =                       -309.1762693936987603
  Basis Set: CC-PVTZ
  Basis Set:
  Charge       = 0
  Multiplicity = 1
  Basis Set: CC-PVTZ
  Basis Set:

    Orbital Energies (a.u.)
    -----------------------

    Doubly Occupied:

       1A    -20.537026     2A    -11.319555     3A    -11.228720
       4A    -11.228095     5A    -11.227039     6A    -11.222959
       7A    -11.213680     8A     -1.397187     9A     -1.092527
      10A     -1.030607    11A     -0.984886    12A     -0.891120
      13A     -0.807723    14A     -0.734971    15A     -0.664860
      16A     -0.646720    17A     -0.625465    18A     -0.615335
      19A     -0.584252    20A     -0.572994    21A     -0.556477
      22A     -0.537233    23A     -0.510959    24A     -0.505536
      25A     -0.483339    26A     -0.474080    27A     -0.470619
      28A     -0.399293

  @DF-RHF Final Energy:  -309.17626987755983

   => Energetics <=

    Nuclear Repulsion Energy =            301.8303372733586798
    One-Electron Energy =               -1016.8866938313562969
    Two-Electron Energy =                 405.8800866804373300
    DFT Exchange-Correlation Energy =       0.0000000000000000
    Empirical Dispersion Energy =           0.0000000000000000
    PCM Polarization Energy =               0.0000000000000000
    EFP Energy =                            0.0000000000000000
    Total Energy =                       -309.1762698775602303
    Molecular point group: c1
  Basis Set: CC-PVTZ
  Basis Set:

  -Total Gradient:
     Atom            X                  Y                   Z
    ------   -----------------  -----------------  -----------------
       1        0.000021392830     0.000038599250     0.000031734357
       2        0.000014004858     0.000004708979    -0.000077708615
       3       -0.000038816191    -0.000012839969     0.000047091577
       4       -0.000024358497    -0.000011278440     0.000023073704
       5       -0.001768843063     0.003434330849     0.003072399169
       6       -0.000007777267    -0.000009446380     0.000001331329
       7        0.000001537078     0.000003905795     0.000007367474
       8        0.000868050630    -0.003829023773    -0.001164860788
       9        0.001299630804    -0.002050877969    -0.002363813399
      10        0.000012320960     0.000014554137    -0.000017947556
      11       -0.000371152312     0.002416560921     0.000422713176
      12        0.000001202307     0.000009167032    -0.000018069281
      13       -0.000008981585     0.000005164948     0.000017892621
      14        0.000008790067     0.000006841313     0.000007523568
      15       -0.000013668167     0.000000163728     0.000003730907
      16       -0.000004477248    -0.000012012050     0.000000913908
      17        0.000010926805     0.000000856138     0.000004027156
      18       -0.000004879578    -0.000017307888     0.000010622426
      19        0.000005097567     0.000007933383    -0.000008021735

  **** Optimization is complete! (in 7 steps) ****
    Final optimized geometry and variables:
    Molecular point group: c1

    Geometry (in Angstrom), charge = 0, multiplicity = 1:

    O           -2.072470403899    -1.281025607025    -0.147446005314
    C           -1.647182646606    -0.197204056642     0.088098660875
    C           -0.310912279672    -0.014264293947     0.780083473611
    C           -2.402235765702     1.051451467912    -0.300963934561
    C            0.843390496044    -0.049691485335    -0.226909241446
    H           -0.294967729048     0.924137678421     1.324090329913
    H           -0.196796967722    -0.822579201185     1.491362688156
    C            2.217748067877     0.054465647306     0.434575757872
    H            0.735187950810     0.741749903760    -0.963721320624
    H            0.785155580188    -0.978073602933    -0.785700623479
    C            3.327147305067     0.409482904239    -0.549567398832
    H            2.186395729909     0.814232613702     1.210990012311
    H            2.447634104366    -0.881088926322     0.934359192129
    H            3.149662495574     1.380059658264    -0.999880259471
    H            3.392317918579    -0.319261264617    -1.350879266896
    H            4.291367422131     0.444012656375    -0.056111734230
    H           -3.251265367117     0.795846430722    -0.916028951253
    H           -1.754883085087     1.742721311340    -0.828639708372
    H           -2.744713658846     1.555025749815     0.597420045921

  Mulliken Charges: (a.u.)
   Center  Symbol    Alpha    Beta     Spin     Total
       1     O     4.17738  4.17738  0.00000 -0.35476
       2     C     2.85833  2.85833  0.00000  0.28335
       3     C     3.09695  3.09695  0.00000 -0.19390
       4     C     3.15542  3.15542  0.00000 -0.31085
       5     C     3.09900  3.09900  0.00000 -0.19801
       6     H     0.44928  0.44928  0.00000  0.10143
       7     H     0.43942  0.43942  0.00000  0.12116
       8     C     3.08521  3.08521  0.00000 -0.17042
       9     H     0.45332  0.45332  0.00000  0.09337
      10     H     0.44091  0.44091  0.00000  0.11818
      11     C     3.14913  3.14913  0.00000 -0.29827
      12     H     0.45580  0.45580  0.00000  0.08839
      13     H     0.44894  0.44894  0.00000  0.10211
      14     H     0.45541  0.45541  0.00000  0.08918
      15     H     0.45294  0.45294  0.00000  0.09411
      16     H     0.44740  0.44740  0.00000  0.10520
      17     H     0.43598  0.43598  0.00000  0.12804
      18     H     0.45077  0.45077  0.00000  0.09845
      19     H     0.44838  0.44838  0.00000  0.10323

   Total alpha = 28.00000, Total beta = 28.00000, Total charge = -0.00000

*** Psi4 exiting successfully. Buy a developer a beer!
