  ==> Input File <==

--------------------------------------------------------------------------
set {
	reference rhf
	basis cc-pvtz
}

set_num_threads( 4 )
memory 2 gb

molecule MOL {
0 1

H	 -0.801147	 1.580879	 -0.418388
O	 0.057669	 1.301365	 -0.158528
C	 0.004145	 -0.005141	 0.363049
C	 1.199168	 -0.827145	 -0.096690
C	 -1.316386	 -0.602081	 -0.083515
H	 0.012026	 0.043363	 1.450619
H	 1.216685	 -0.896776	 -1.178167
H	 2.129940	 -0.372354	 0.228035
H	 1.160783	 -1.829622	 0.314294
H	 -1.357882	 -0.655920	 -1.165207
H	 -2.140147	 0.011735	 0.257253
H	 -1.440790	 -1.601175	 0.317669

	symmetry c1
}
set optking {
	frozen_dihedral = ("
		1 2 3 4
	")
}

ee = optimize('scf')
oeprop('DIPOLE', 'QUADRUPOLE', 'MULLIKEN_CHARGES')
f=open( 'psi4out.xyz', 'w' )
f.write( "12  " )
f.write( str(ee) + "\n" )
f.write( MOL.save_string_xyz() )
f.close()
--------------------------------------------------------------------------

    Molecular point group: c1
  Charge       = 0
  Multiplicity = 1
  Basis Set: CC-PVTZ
  Basis Set:
  @DF-RHF Final Energy:  -193.19262303287638
    Total Energy =                       -193.1926230328764404
    Molecular point group: c1
  Basis Set: CC-PVTZ
  Basis Set:
  Basis Set: CC-PVTZ
  Basis Set:
  @DF-RHF Final Energy:  -193.19402961034592
    Total Energy =                       -193.1940296103458081
  Basis Set: CC-PVTZ
  Basis Set:
  Basis Set: CC-PVTZ
  Basis Set:
  @DF-RHF Final Energy:  -193.19439840659490
    Total Energy =                       -193.1943984065948712
  Basis Set: CC-PVTZ
  Basis Set:
  Charge       = 0
  Multiplicity = 1
  Basis Set: CC-PVTZ
  Basis Set:

    Orbital Energies (a.u.)
    -----------------------

    Doubly Occupied:

       1A    -20.542551     2A    -11.274032     3A    -11.217227
       4A    -11.204831     5A     -1.363345     6A     -1.044250
       7A     -0.943440     8A     -0.810756     9A     -0.681623
      10A     -0.644924    11A     -0.608610    12A     -0.549487
      13A     -0.542815    14A     -0.522920    15A     -0.515322
      16A     -0.469154    17A     -0.431415

  @DF-RHF Final Energy:  -193.19440242544931

   => Energetics <=

    Nuclear Repulsion Energy =            135.7565103433137210
    One-Electron Energy =                -531.1684267545838338
    Two-Electron Energy =                 202.2175139858207444
    DFT Exchange-Correlation Energy =       0.0000000000000000
    Empirical Dispersion Energy =           0.0000000000000000
    PCM Polarization Energy =               0.0000000000000000
    EFP Energy =                            0.0000000000000000
    Total Energy =                       -193.1944024254493684
    Molecular point group: c1
  Basis Set: CC-PVTZ
  Basis Set:

  -Total Gradient:
     Atom            X                  Y                   Z
    ------   -----------------  -----------------  -----------------
       1        0.000279214597    -0.000681754736    -0.001504835413
       2       -0.000421309192     0.000556679296     0.001694324656
       3        0.000728477369     0.000270000355     0.000707594840
       4       -0.000510043976    -0.000129141742    -0.000867777031
       5       -0.000137451439    -0.000063809865    -0.000014809457
       6        0.000010282828     0.000048647625    -0.000078739196
       7        0.000003820662     0.000005447425     0.000023473464
       8        0.000046564893    -0.000031903371    -0.000017515242
       9       -0.000028101148    -0.000009005246     0.000022648893
      10        0.000044088521     0.000029465750     0.000030121109
      11       -0.000043061205    -0.000011891445    -0.000004697125
      12        0.000027518090     0.000017265957     0.000010210502

  **** Optimization is complete! (in 4 steps) ****
    Final optimized geometry and variables:
    Molecular point group: c1

    Geometry (in Angstrom), charge = 0, multiplicity = 1:

    H           -0.678324339321     1.644570787782    -0.423088069147
    O            0.147420726183     1.308752487305    -0.129698544508
    C            0.003316973395    -0.003167326555     0.365849553737
    C            1.203246769123    -0.809483501224    -0.096675151579
    C           -1.311800872067    -0.623049176403    -0.080663568285
    H            0.010714619825     0.043249359816     1.451990178935
    H            1.205791371111    -0.898274255889    -1.176988072406
    H            2.120853177004    -0.319805880156     0.203864639362
    H            1.188575629536    -1.804359530553     0.334546680037
    H           -1.357363598507    -0.683951318346    -1.163135511254
    H           -2.155449880717    -0.034316398209     0.266385095050
    H           -1.421430411324    -1.623330485271     0.320268876732

  Mulliken Charges: (a.u.)
   Center  Symbol    Alpha    Beta     Spin     Total
       1     H     0.39200  0.39200  0.00000  0.21600
       2     O     4.20976  4.20976  0.00000 -0.41952
       3     C     2.91917  2.91917  0.00000  0.16166
       4     C     3.13796  3.13796  0.00000 -0.27593
       5     C     3.15743  3.15743  0.00000 -0.31485
       6     H     0.46431  0.46431  0.00000  0.07138
       7     H     0.45693  0.45693  0.00000  0.08613
       8     H     0.44633  0.44633  0.00000  0.10733
       9     H     0.45997  0.45997  0.00000  0.08007
      10     H     0.45149  0.45149  0.00000  0.09702
      11     H     0.45283  0.45283  0.00000  0.09434
      12     H     0.45182  0.45182  0.00000  0.09636

   Total alpha = 17.00000, Total beta = 17.00000, Total charge = -0.00000
