  ==> Input File <==

--------------------------------------------------------------------------
set {
	reference rhf
	basis cc-pvtz
}

set_num_threads( 4 )
memory 2 gb

molecule MOL {
0 1

H	 2.867672	 -0.456275	 0.875795
C	 2.403497	 -0.020426	 0.000000
N	 0.989899	 -0.304564	 0.000000
H	 2.867672	 -0.456275	 -0.875795
H	 2.620366	 1.051270	 0.000000
C	 0.245327	 0.591562	 0.860313
C	 0.702965	 -1.685205	 0.330257
H	 0.570993	 0.508270	 1.901826
H	 0.416632	 1.613946	 0.543906
C	 -1.236854	 0.281023	 0.776978
H	 1.210054	 -2.333359	 -0.375069
H	 1.063052	 -1.939743	 1.331902
C	 -0.790975	 -1.937244	 0.260541
H	 -1.790791	 0.882657	 1.483955
H	 -1.599349	 0.504135	 -0.224480
O	 -1.490529	 -1.056673	 1.089012
H	 -1.022614	 -2.939058	 0.594218
H	 -1.130397	 -1.828921	 -0.767641

	symmetry c1
}
set optking {
	frozen_dihedral = ("
		6 3 2 5
	")
}

ee = optimize('scf')
oeprop('DIPOLE', 'QUADRUPOLE', 'MULLIKEN_CHARGES')
f=open( 'psi4out.xyz', 'w' )
f.write( "18  " )
f.write( str(ee) + "\n" )
f.write( MOL.save_string_xyz() )
f.close()
--------------------------------------------------------------------------

    Molecular point group: c1
  Charge       = 0
  Multiplicity = 1
  Basis Set: CC-PVTZ
  Basis Set:
  @DF-RHF Final Energy:  -325.14394432430464
    Total Energy =                       -325.1439443243045844
    Molecular point group: c1
  Basis Set: CC-PVTZ
  Basis Set:
  Basis Set: CC-PVTZ
  Basis Set:
  @DF-RHF Final Energy:  -325.14467871312945
    Total Energy =                       -325.1446787131298493
  Basis Set: CC-PVTZ
  Basis Set:
  Basis Set: CC-PVTZ
  Basis Set:
  @DF-RHF Final Energy:  -325.14476407952833
    Total Energy =                       -325.1447640795284428
  Basis Set: CC-PVTZ
  Basis Set:
  Basis Set: CC-PVTZ
  Basis Set:
  @DF-RHF Final Energy:  -325.14476698083098
    Total Energy =                       -325.1447669808308092
  Basis Set: CC-PVTZ
  Basis Set:
  Charge       = 0
  Multiplicity = 1
  Basis Set: CC-PVTZ
  Basis Set:

    Orbital Energies (a.u.)
    -----------------------

    Doubly Occupied:

       1A    -20.547574     2A    -15.543068     3A    -11.264298
       4A    -11.264261     5A    -11.242765     6A    -11.242525
       7A    -11.239257     8A     -1.386432     9A     -1.233295
      10A     -1.039444    11A     -0.982056    12A     -0.884498
      13A     -0.869666    14A     -0.773923    15A     -0.685106
      16A     -0.646850    17A     -0.645493    18A     -0.635497
      19A     -0.629896    20A     -0.573900    21A     -0.557957
      22A     -0.541455    23A     -0.527619    24A     -0.501302
      25A     -0.486586    26A     -0.454107    27A     -0.410814
      28A     -0.352205

  @DF-RHF Final Energy:  -325.14476740235335

   => Energetics <=

    Nuclear Repulsion Energy =            341.8282459196972809
    One-Electron Energy =               -1119.6223235393567847
    Two-Electron Energy =                 452.6493102173056968
    DFT Exchange-Correlation Energy =       0.0000000000000000
    Empirical Dispersion Energy =           0.0000000000000000
    PCM Polarization Energy =               0.0000000000000000
    EFP Energy =                            0.0000000000000000
    Total Energy =                       -325.1447674023537502
    Molecular point group: c1
  Basis Set: CC-PVTZ
  Basis Set:

  -Total Gradient:
     Atom            X                  Y                   Z
    ------   -----------------  -----------------  -----------------
       1        0.000006278575    -0.000006520967     0.000001544825
       2       -0.000186525386     0.000560044475    -0.005026538154
       3        0.000493816515    -0.002207970141     0.003641189485
       4       -0.000022755006    -0.000007979345     0.000021283624
       5        0.000050554734     0.000070786201     0.003361872988
       6       -0.000352433640     0.001595718681    -0.001973160691
       7        0.000013047254    -0.000017077432    -0.000008347756
       8        0.000006954019    -0.000007475760    -0.000015701892
       9       -0.000004353585    -0.000000780615    -0.000000932497
      10       -0.000008588427     0.000002399505    -0.000014204999
      11        0.000004942286     0.000001508459     0.000000001186
      12       -0.000007272586     0.000011491135    -0.000010797461
      13        0.000006979896     0.000000223118     0.000017126719
      14       -0.000004807559    -0.000003100781     0.000002786369
      15        0.000001826601     0.000006578244    -0.000000059215
      16        0.000005222599     0.000005732567    -0.000002199870
      17       -0.000006931126    -0.000007608339    -0.000001135342
      18        0.000004044838     0.000004030993     0.000007272679

  **** Optimization is complete! (in 5 steps) ****
    Final optimized geometry and variables:
    Molecular point group: c1

    Geometry (in Angstrom), charge = 0, multiplicity = 1:

    H            2.809706724431     0.180975874737     0.394651329463
    C            2.289995102359     0.562505636836    -0.488807594509
    N            0.874869292256     0.285221238726    -0.459117176648
    H            2.745999096800     0.116473115621    -1.364049344186
    H            2.456634395220     1.631444272145    -0.512917288125
    C            0.126143742554     1.187728352130     0.388483723906
    C            0.581201131522    -1.096674485559    -0.151614685685
    H            0.439077166180     1.114943340168     1.435149409882
    H            0.298471720779     2.207084329198     0.064233812168
    C           -1.355406131299     0.875627306836     0.292339423589
    H            1.090043775164    -1.736934877587    -0.863621393656
    H            0.937066331096    -1.366824888901     0.847600880147
    C           -0.913389940899    -1.342230156036    -0.230325681059
    H           -1.916026475751     1.476502116017     0.994787820567
    H           -1.708473448178     1.099853870510    -0.712352561707
    O           -1.612018728234    -0.462552592316     0.599824685237
    H           -1.151185282729    -2.344846578593     0.096797375326
    H           -1.247794814680    -1.226649914863    -1.259395989887

  Mulliken Charges: (a.u.)
   Center  Symbol    Alpha    Beta     Spin     Total
       1     H     0.46928  0.46928  0.00000  0.06143
       2     C     3.09421  3.09421  0.00000 -0.18841
       3     N     3.61699  3.61699  0.00000 -0.23399
       4     H     0.44984  0.44984  0.00000  0.10031
       5     H     0.45326  0.45326  0.00000  0.09349
       6     C     3.03927  3.03927  0.00000 -0.07855
       7     C     3.04092  3.04092  0.00000 -0.08185
       8     H     0.47017  0.47017  0.00000  0.05966
       9     H     0.45403  0.45403  0.00000  0.09195
      10     C     2.98392  2.98392  0.00000  0.03216
      11     H     0.45447  0.45447  0.00000  0.09105
      12     H     0.46841  0.46841  0.00000  0.06318
      13     C     2.98339  2.98339  0.00000  0.03322
      14     H     0.44982  0.44982  0.00000  0.10037
      15     H     0.46788  0.46788  0.00000  0.06425
      16     O     4.18649  4.18649  0.00000 -0.37298
      17     H     0.44989  0.44989  0.00000  0.10022
      18     H     0.46775  0.46775  0.00000  0.06449

   Total alpha = 28.00000, Total beta = 28.00000, Total charge =  0.00000
