  ==> Input File <==

--------------------------------------------------------------------------
set {
	reference rhf
	basis 6-31G*
}

set_num_threads( 4 )
memory 2 gb

molecule MOL {
0 1

O	 0.391030	 1.298905	 0.000133
C	 0.503002	 0.111612	 0.000005
C	 -0.702327	 -0.811998	 -0.000075
C	 1.863306	 -0.554493	 0.000030
C	 -1.805318	 -0.376502	 0.956954
H	 -1.076805	 -0.872189	 -1.020327
H	 -0.354568	 -1.814847	 0.241013
H	 -2.170738	 0.611327	 0.704204
H	 -2.637996	 -1.070856	 0.914816
H	 -1.442099	 -0.339690	 1.976727
H	 1.974395	 -1.189404	 -0.874166
H	 2.638695	 0.198920	 -0.000196
H	 1.974487	 -1.188655	 0.874727

	symmetry c1
}
set optking {
	frozen_dihedral = ("
		6 3 2 1
	")
}

ee = optimize('scf')
oeprop('DIPOLE', 'QUADRUPOLE', 'MULLIKEN_CHARGES')
f=open( 'psi4out.xyz', 'w' )
f.write( "13  " )
f.write( str(ee) + "\n" )
f.write( MOL.save_string_xyz() )
f.close()
--------------------------------------------------------------------------

    Molecular point group: c1
  Charge       = 0
  Multiplicity = 1
  Basis Set: 6-31G*
  Basis Set:
  @DF-RHF Final Energy:  -230.99568947409759
    Total Energy =                       -230.9956894740973894
    Molecular point group: c1
  Basis Set: 6-31G*
  Basis Set:
  Basis Set: 6-31G*
  Basis Set:
  @DF-RHF Final Energy:  -230.99560482294760
    Total Energy =                       -230.9956048229478824
  Basis Set: 6-31G*
  Basis Set:
  Basis Set: 6-31G*
  Basis Set:
  @DF-RHF Final Energy:  -230.99522497971299
    Total Energy =                       -230.9952249797129298
  Basis Set: 6-31G*
  Basis Set:
  Basis Set: 6-31G*
  Basis Set:
  @DF-RHF Final Energy:  -230.99631645329026
    Total Energy =                       -230.9963164532901772
  Basis Set: 6-31G*
  Basis Set:
  Basis Set: 6-31G*
  Basis Set:
  @DF-RHF Final Energy:  -230.99632251475288
    Total Energy =                       -230.9963225147529329
  Basis Set: 6-31G*
  Basis Set:
  Charge       = 0
  Multiplicity = 1
  Basis Set: 6-31G*
  Basis Set:

    Orbital Energies (a.u.)
    -----------------------

    Doubly Occupied:

       1A    -20.549682     2A    -11.326923     3A    -11.234178
       4A    -11.229517     5A    -11.217978     6A     -1.395758
       7A     -1.061220     8A     -1.000571     9A     -0.878678
      10A     -0.730925    11A     -0.657707    12A     -0.642482
      13A     -0.615015    14A     -0.586637    15A     -0.571140
      16A     -0.527638    17A     -0.519643    18A     -0.504153
      19A     -0.480338    20A     -0.401175

  @DF-RHF Final Energy:  -230.99632346619663

   => Energetics <=

    Nuclear Repulsion Energy =            176.8336608481838823
    One-Electron Energy =                -663.3972555264851962
    Two-Electron Energy =                 255.5672712121047425
    DFT Exchange-Correlation Energy =       0.0000000000000000
    Empirical Dispersion Energy =           0.0000000000000000
    PCM Polarization Energy =               0.0000000000000000
    EFP Energy =                            0.0000000000000000
    Total Energy =                       -230.9963234661965998
    Molecular point group: c1
  Basis Set: 6-31G*
  Basis Set:

  -Total Gradient:
     Atom            X                  Y                   Z
    ------   -----------------  -----------------  -----------------
       1       -0.000003377125     0.000053007233    -0.001582116667
       2       -0.000171814436     0.000140805471     0.002202130857
       3        0.001111563405    -0.001418769693    -0.000981356833
       4       -0.000013039387     0.000010772179     0.000133139241
       5       -0.000003002564     0.000013599983     0.000016104670
       6       -0.000933288282     0.001210302892     0.000295863837
       7        0.000021819676     0.000010842327     0.000004126850
       8        0.000009688429    -0.000009757868    -0.000001940193
       9       -0.000003940624    -0.000010740246     0.000000609197
      10        0.000002298839     0.000000461538    -0.000013378654
      11       -0.000021790674     0.000008194848    -0.000026024074
      12       -0.000003229806     0.000001677436    -0.000010268543
      13        0.000008112551    -0.000010396102    -0.000036889688

  **** Optimization is complete! (in 6 steps) ****
    Final optimized geometry and variables:
    Molecular point group: c1

    Geometry (in Angstrom), charge = 0, multiplicity = 1:

    O            0.322343798320     1.349124510727    -0.147278713337
    C            0.462916572143     0.164808620268    -0.175605841660
    C           -0.736772612228    -0.770739872351    -0.191679665022
    C            1.833348775077    -0.470448025034    -0.240510339869
    C           -1.865640891340    -0.299245788877     0.724826627222
    H           -1.093722273960    -0.791151044409    -1.219875404146
    H           -0.429906762525    -1.781953557377     0.055596370500
    H           -2.167794089338     0.707107739607     0.467268051272
    H           -2.726197630435    -0.953485773108     0.635041160893
    H           -1.552051497053    -0.299063446437     1.763814574990
    H            1.897164470789    -1.147011634671    -1.088218961717
    H            2.592640068287     0.294475635951    -0.324139789349
    H            2.009291365229    -1.061170946535     0.654468599575

  Mulliken Charges: (a.u.)
   Center  Symbol    Alpha    Beta     Spin     Total
       1     O     4.26238  4.26238  0.00000 -0.52476
       2     C     2.73572  2.73572  0.00000  0.52856
       3     C     3.20525  3.20525  0.00000 -0.41049
       4     C     3.28860  3.28860  0.00000 -0.57719
       5     C     3.24092  3.24092  0.00000 -0.48184
       6     H     0.40264  0.40264  0.00000  0.19472
       7     H     0.41455  0.41455  0.00000  0.17090
       8     H     0.40161  0.40161  0.00000  0.19678
       9     H     0.41746  0.41746  0.00000  0.16508
      10     H     0.41774  0.41774  0.00000  0.16453
      11     H     0.40886  0.40886  0.00000  0.18228
      12     H     0.39687  0.39687  0.00000  0.20626
      13     H     0.40741  0.40741  0.00000  0.18517

   Total alpha = 20.00000, Total beta = 20.00000, Total charge =  0.00000
