  ==> Input File <==

--------------------------------------------------------------------------
set {
	reference rhf
	basis 6-31G*
}

set_num_threads( 4 )
memory 2 gb

molecule MOL {
0 1

H	 -1.853510	 1.025046	 0.440067
N	 -1.852125	 0.165761	 -0.074816
C	 -0.563778	 -0.502042	 0.037919
H	 -2.043832	 0.400326	 -1.030318
C	 0.575259	 0.508231	 -0.048326
H	 -0.482092	 -1.204004	 -0.786564
H	 -0.460411	 -1.085169	 0.956626
C	 1.954651	 -0.143624	 0.035137
H	 0.475158	 1.060484	 -0.977307
H	 0.469181	 1.234488	 0.755973
H	 2.103292	 -0.853109	 -0.774172
H	 2.742821	 0.599562	 -0.030094
H	 2.083613	 -0.679371	 0.971560

	symmetry c1
}
set optking {
	frozen_dihedral = ("
		1 2 3 6
	")
}

ee = optimize('scf')
oeprop('DIPOLE', 'QUADRUPOLE', 'MULLIKEN_CHARGES')
f=open( 'psi4out.xyz', 'w' )
f.write( "13  " )
f.write( str(ee) + "\n" )
f.write( MOL.save_string_xyz() )
f.close()
--------------------------------------------------------------------------

    Molecular point group: c1
  Charge       = 0
  Multiplicity = 1
  Basis Set: 6-31G*
  Basis Set:
  @DF-RHF Final Energy:  -173.27949502865485
    Total Energy =                       -173.2794950286548783
    Molecular point group: c1
  Basis Set: 6-31G*
  Basis Set:
  Basis Set: 6-31G*
  Basis Set:
  @DF-RHF Final Energy:  -173.28104059038242
    Total Energy =                       -173.2810405903824744
  Basis Set: 6-31G*
  Basis Set:
  Basis Set: 6-31G*
  Basis Set:
  @DF-RHF Final Energy:  -173.28127330098209
    Total Energy =                       -173.2812733009821784
  Basis Set: 6-31G*
  Basis Set:
  Basis Set: 6-31G*
  Basis Set:
  @DF-RHF Final Energy:  -173.28127603256999
    Total Energy =                       -173.2812760325701049
  Basis Set: 6-31G*
  Basis Set:
  Charge       = 0
  Multiplicity = 1
  Basis Set: 6-31G*
  Basis Set:

    Orbital Energies (a.u.)
    -----------------------

    Doubly Occupied:

       1A    -15.533267     2A    -11.240477     3A    -11.217424
       4A    -11.212860     5A     -1.177613     6A     -1.037808
       7A     -0.899898     8A     -0.807870     9A     -0.675065
      10A     -0.609279    11A     -0.606012    12A     -0.560153
      13A     -0.529826    14A     -0.511735    15A     -0.486816
      16A     -0.472171    17A     -0.378489

  @DF-RHF Final Energy:  -173.28127625531883

   => Energetics <=

    Nuclear Repulsion Energy =            131.6001634608691404
    One-Electron Energy =                -493.8493525527896395
    Two-Electron Energy =                 188.9679128366016130
    DFT Exchange-Correlation Energy =       0.0000000000000000
    Empirical Dispersion Energy =           0.0000000000000000
    PCM Polarization Energy =               0.0000000000000000
    EFP Energy =                            0.0000000000000000
    Total Energy =                       -173.2812762553188577
    Molecular point group: c1
  Basis Set: 6-31G*
  Basis Set:

  -Total Gradient:
     Atom            X                  Y                   Z
    ------   -----------------  -----------------  -----------------
       1        0.000830686451     0.001533107830    -0.002561388843
       2       -0.000773730848    -0.001445358324     0.002803051116
       3       -0.001087038816    -0.002113277551     0.001414371990
       4       -0.000001724757    -0.000000143844    -0.000010579611
       5       -0.000055636090    -0.000032649947     0.000005049442
       6        0.001020970464     0.002039765751    -0.001656494612
       7        0.000009228143    -0.000000916792     0.000010340098
       8        0.000021201355     0.000016375374    -0.000017292619
       9        0.000005073529     0.000008859898     0.000015252471
      10        0.000000957521    -0.000001450311    -0.000000581322
      11       -0.000002292418    -0.000000436552     0.000011293569
      12        0.000034647638    -0.000011097108    -0.000004935449
      13       -0.000002342173     0.000007221575    -0.000008086231

  **** Optimization is complete! (in 5 steps) ****
    Final optimized geometry and variables:
    Molecular point group: c1

    Geometry (in Angstrom), charge = 0, multiplicity = 1:

    H           -1.931341489010     0.975335206190     0.465244072962
    N           -1.901182474180     0.108161272470    -0.037627088227
    C           -0.572943861935    -0.486482801376     0.044329048193
    H           -2.118130127305     0.336099952643    -0.989027115994
    C            0.590441788582     0.505924355997    -0.033172102265
    H           -0.479127200339    -1.196456377959    -0.771858387965
    H           -0.503250110517    -1.053344009170     0.968119379176
    C            1.957136833839    -0.172343713647     0.056290912131
    H            0.519056584980     1.066891284685    -0.963229724735
    H            0.493100993005     1.232252619903     0.772293027550
    H            2.098319459250    -0.879567510541    -0.756240081897
    H            2.761690577985     0.554129511790     0.004660978169
    H            2.063738726246    -0.717591469808     0.989751705139

  Mulliken Charges: (a.u.)
   Center  Symbol    Alpha    Beta     Spin     Total
       1     H     0.33529  0.33529  0.00000  0.32942
       2     N     3.91837  3.91837  0.00000 -0.83674
       3     C     3.05814  3.05814  0.00000 -0.11628
       4     H     0.33494  0.33494  0.00000  0.33011
       5     C     3.16025  3.16025  0.00000 -0.32050
       6     H     0.42168  0.42168  0.00000  0.15665
       7     H     0.41866  0.41866  0.00000  0.16268
       8     C     3.24348  3.24348  0.00000 -0.48695
       9     H     0.42554  0.42554  0.00000  0.14891
      10     H     0.42545  0.42545  0.00000  0.14910
      11     H     0.42084  0.42084  0.00000  0.15832
      12     H     0.41754  0.41754  0.00000  0.16491
      13     H     0.41981  0.41981  0.00000  0.16038

   Total alpha = 17.00000, Total beta = 17.00000, Total charge = -0.00000
