  ==> Input File <==

--------------------------------------------------------------------------
set {
	reference rhf
	basis 6-31G*
}

set_num_threads( 4 )
memory 2 gb

molecule MOL {
0 1

H	 2.332609	 0.878551	 -1.051851
C	 2.357710	 0.000000	 -0.417167
C	 1.175432	 0.000000	 0.532082
H	 3.291263	 0.000000	 0.136880
H	 2.332609	 -0.878551	 -1.051851
O	 0.000000	 0.000000	 -0.221444
H	 1.206604	 0.877321	 1.177902
H	 1.206604	 -0.877321	 1.177902
C	 -1.175432	 0.000000	 0.532082
C	 -2.260372	 0.697061	 -0.265330
H	 -1.012643	 0.511685	 1.480462
H	 -1.471931	 -1.022762	 0.764015
H	 -1.970035	 1.717941	 -0.486269
H	 -3.191393	 0.715198	 0.292668
H	 -2.429967	 0.181343	 -1.203721

	symmetry c1
}
set optking {
	frozen_dihedral = ("
		11 9 6 3
	")
}

ee = optimize('scf')
oeprop('DIPOLE', 'QUADRUPOLE', 'MULLIKEN_CHARGES')
f=open( 'psi4out.xyz', 'w' )
f.write( "15  " )
f.write( str(ee) + "\n" )
f.write( MOL.save_string_xyz() )
f.close()
--------------------------------------------------------------------------

    Molecular point group: c1
  Charge       = 0
  Multiplicity = 1
  Basis Set: 6-31G*
  Basis Set:
  @DF-RHF Final Energy:  -232.14286529875821
    Total Energy =                       -232.1428652987581245
    Molecular point group: c1
  Basis Set: 6-31G*
  Basis Set:
  Basis Set: 6-31G*
  Basis Set:
  @DF-RHF Final Energy:  -232.14296462171586
    Total Energy =                       -232.1429646217159757
  Basis Set: 6-31G*
  Basis Set:
  Basis Set: 6-31G*
  Basis Set:
  @DF-RHF Final Energy:  -232.14300161292903
    Total Energy =                       -232.1430016129288560
  Basis Set: 6-31G*
  Basis Set:
  Charge       = 0
  Multiplicity = 1
  Basis Set: 6-31G*
  Basis Set:

    Orbital Energies (a.u.)
    -----------------------

    Doubly Occupied:

       1A    -20.549649     2A    -11.268526     3A    -11.267870
       4A    -11.208929     5A    -11.208679     6A     -1.375507
       7A     -1.043653     8A     -0.982553     9A     -0.847586
      10A     -0.825728    11A     -0.674200    12A     -0.666086
      13A     -0.615853    14A     -0.588455    15A     -0.549360
      16A     -0.532419    17A     -0.522597    18A     -0.496141
      19A     -0.486205    20A     -0.464543    21A     -0.407768

  @DF-RHF Final Energy:  -232.14300191440282

   => Energetics <=

    Nuclear Repulsion Energy =            191.0720042631855904
    One-Electron Energy =                -693.2653999058759382
    Two-Electron Energy =                 270.0503937282874745
    DFT Exchange-Correlation Energy =       0.0000000000000000
    Empirical Dispersion Energy =           0.0000000000000000
    PCM Polarization Energy =               0.0000000000000000
    EFP Energy =                            0.0000000000000000
    Total Energy =                       -232.1430019144028734
    Molecular point group: c1
  Basis Set: 6-31G*
  Basis Set:

  -Total Gradient:
     Atom            X                  Y                   Z
    ------   -----------------  -----------------  -----------------
       1        0.000000206915    -0.000003958785     0.000000838790
       2        0.000018092940     0.000009950392     0.000013801623
       3        0.000036522141     0.002329610837     0.000005286651
       4        0.000025740907     0.000002566524    -0.000005503352
       5       -0.000009139289     0.000007016874     0.000013038962
       6        0.000124505265    -0.004063023240     0.000308589544
       7       -0.000007339472    -0.000006266565    -0.000010610625
       8       -0.000001871467     0.000006766420     0.000001014809
       9       -0.000923604413     0.004272005160    -0.001555745419
      10       -0.000010161835    -0.000016256487    -0.000003353350
      11        0.000749684230    -0.002527751305     0.001226310484
      12       -0.000008863106     0.000001433981    -0.000011638452
      13        0.000012554647    -0.000013700493     0.000010497458
      14       -0.000005647893    -0.000003109287     0.000006553215
      15       -0.000000679568     0.000004715976     0.000000919665

  **** Optimization is complete! (in 4 steps) ****
    Final optimized geometry and variables:
    Molecular point group: c1

    Geometry (in Angstrom), charge = 0, multiplicity = 1:

    H            2.314045761176     0.722674373403    -1.091137452306
    C            2.340169599245    -0.154088161379    -0.453906258658
    C            1.164601294331    -0.145220296178     0.503473849617
    H            3.277830751685    -0.156632616153     0.093444538246
    H            2.306597132348    -1.034396534885    -1.085730994413
    O           -0.015585281445    -0.130993552891    -0.243509551293
    H            1.206960112692     0.730755055325     1.149594708452
    H            1.195741865403    -1.023804169753     1.147686191983
    C           -1.200019112693    -0.129603200560     0.501632615524
    C           -2.290783698896     0.551622319456    -0.301339404354
    H           -1.047043778206     0.371335470150     1.455754666403
    H           -1.485018345741    -1.155173380990     0.733510032057
    H           -2.027595968209     1.584618229913    -0.499843691177
    H           -3.232920400939     0.530435527153     0.238085116956
    H           -2.427562962964     0.048055967662    -1.251739592372

  Mulliken Charges: (a.u.)
   Center  Symbol    Alpha    Beta     Spin     Total
       1     H     0.41348  0.41348  0.00000  0.17305
       2     C     3.24442  3.24442  0.00000 -0.48884
       3     C     2.98796  2.98796  0.00000  0.02408
       4     H     0.42265  0.42265  0.00000  0.15471
       5     H     0.41334  0.41334  0.00000  0.17333
       6     O     4.31052  4.31052  0.00000 -0.62104
       7     H     0.43163  0.43163  0.00000  0.13674
       8     H     0.43262  0.43262  0.00000  0.13476
       9     C     2.98713  2.98713  0.00000  0.02575
      10     C     3.24341  3.24341  0.00000 -0.48682
      11     H     0.43249  0.43249  0.00000  0.13503
      12     H     0.42925  0.42925  0.00000  0.14151
      13     H     0.41563  0.41563  0.00000  0.16873
      14     H     0.42311  0.42311  0.00000  0.15377
      15     H     0.41238  0.41238  0.00000  0.17524

   Total alpha = 21.00000, Total beta = 21.00000, Total charge =  0.00000
