  ==> Input File <==

--------------------------------------------------------------------------
set {
	reference rhf
	basis cc-pvtz
}

set_num_threads( 4 )
memory 2 gb

molecule MOL {
0 1

H	 1.255363	 1.794454	 2.933264
O	 1.863449	 1.706729	 2.221044
C	 1.289328	 1.127518	 1.151707
C	 2.078151	 0.937117	 0.026262
C	 -0.030014	 0.727954	 1.145001
H	 3.101526	 1.255164	 0.052815
C	 1.544651	 0.349369	 -1.097696
H	 -0.661176	 0.862514	 1.998714
C	 -0.532034	 0.141680	 0.000000
H	 2.161802	 0.206265	 -1.962793
C	 0.222109	 -0.060355	 -1.128597
N	 -1.937041	 -0.281114	 0.000000
H	 -0.205548	 -0.517885	 -1.993754
O	 -2.159542	 -1.446261	 0.000000
O	 -2.764978	 0.565773	 0.000000

	symmetry c1
}
set optking {
	frozen_dihedral = ("
		11 9 12 14
	")
}

ee = optimize('scf')
oeprop('DIPOLE', 'QUADRUPOLE', 'MULLIKEN_CHARGES')
f=open( 'psi4out.xyz', 'w' )
f.write( "15  " )
f.write( str(ee) + "\n" )
f.write( MOL.save_string_xyz() )
f.close()
--------------------------------------------------------------------------

    Molecular point group: c1
  Charge       = 0
  Multiplicity = 1
  Basis Set: CC-PVTZ
  Basis Set:
  @DF-RHF Final Energy:  -509.21074936755588
    Total Energy =                       -509.2107493675556498
    Molecular point group: c1
  Basis Set: CC-PVTZ
  Basis Set:
  Basis Set: CC-PVTZ
  Basis Set:
  @DF-RHF Final Energy:  -509.20434493868720
    Total Energy =                       -509.2043449386871998
  Basis Set: CC-PVTZ
  Basis Set:
  Basis Set: CC-PVTZ
  Basis Set:
  @DF-RHF Final Energy:  -509.21084299017571
    Total Energy =                       -509.2108429901757063
  Basis Set: CC-PVTZ
  Basis Set:
  Basis Set: CC-PVTZ
  Basis Set:
  @DF-RHF Final Energy:  -509.21116009267610
    Total Energy =                       -509.2111600926764368
  Basis Set: CC-PVTZ
  Basis Set:
  Charge       = 0
  Multiplicity = 1
  Basis Set: CC-PVTZ
  Basis Set:

    Orbital Energies (a.u.)
    -----------------------

    Doubly Occupied:

       1A    -20.610411     2A    -20.600463     3A    -20.599980
       4A    -15.850826     5A    -11.330525     6A    -11.314114
       7A    -11.265101     8A    -11.263915     9A    -11.258080
      10A    -11.250957    11A     -1.647782    12A     -1.443350
      13A     -1.431086    14A     -1.204529    15A     -1.096665
      16A     -1.049922    17A     -0.966868    18A     -0.886665
      19A     -0.833861    20A     -0.794001    21A     -0.767702
      22A     -0.741071    23A     -0.724508    24A     -0.712859
      25A     -0.673057    26A     -0.636210    27A     -0.623682
      28A     -0.596576    29A     -0.565443    30A     -0.550156
      31A     -0.536750    32A     -0.495537    33A     -0.488327
      34A     -0.461171    35A     -0.376708    36A     -0.346474

  @DF-RHF Final Energy:  -509.21116103393769

   => Energetics <=

    Nuclear Repulsion Energy =            504.0257208196179022
    One-Electron Energy =               -1694.4830978521299585
    Two-Electron Energy =                 681.2462159985742574
    DFT Exchange-Correlation Energy =       0.0000000000000000
    Empirical Dispersion Energy =           0.0000000000000000
    PCM Polarization Energy =               0.0000000000000000
    EFP Energy =                            0.0000000000000000
    Total Energy =                       -509.2111610339378558
    Molecular point group: c1
  Basis Set: CC-PVTZ
  Basis Set:

  -Total Gradient:
     Atom            X                  Y                   Z
    ------   -----------------  -----------------  -----------------
       1       -0.000001053553    -0.000006098996     0.000003200129
       2        0.000020556520     0.000026018062     0.000040152926
       3       -0.000058100740    -0.000014084100    -0.000038513151
       4       -0.000007864006     0.000012297980     0.000004621693
       5        0.000057238416    -0.000035504675     0.000081553392
       6       -0.000005001048     0.000000264312    -0.000002432884
       7        0.000007055418    -0.000050258406    -0.000016825209
       8        0.000015916272    -0.000001918603    -0.000022018304
       9        0.001186928979    -0.004852765237     0.003244974026
      10       -0.000005121700     0.000003164080    -0.000006345088
      11       -0.000905599671     0.003371480779    -0.001237850153
      12       -0.000607823679     0.001787280784    -0.006236330299
      13        0.000013797448     0.000005817341     0.000022913491
      14        0.000135100184    -0.000361909002     0.004198674619
      15        0.000153971147     0.000116215678    -0.000035775188

  **** Optimization is complete! (in 5 steps) ****
    Final optimized geometry and variables:
    Molecular point group: c1

    Geometry (in Angstrom), charge = 0, multiplicity = 1:

    H            1.356299767521     1.422579221853     2.659068555258
    O            1.965249899051     1.331606028316     1.948075455616
    C            1.395461431938     0.751629390702     0.879185139564
    C            2.184595488583     0.567776999416    -0.247302716562
    C            0.073631403068     0.352133142531     0.870046219438
    H            3.205217598935     0.893568798878    -0.221727334088
    C            1.652192815205    -0.019125460417    -1.371639938541
    H           -0.564932143793     0.508017984566     1.717774757923
    C           -0.411269127888    -0.253096135609    -0.267485724555
    H            2.267160427470    -0.149165411969    -2.240567131423
    C            0.333714618805    -0.445784807248    -1.399375780540
    N           -1.821983338553    -0.649232329868    -0.277226463411
    H           -0.088923191860    -0.915263850847    -2.263841679510
    O           -2.056711267443    -1.809557573413    -0.302806440633
    O           -2.625007816144     0.220078588093    -0.227760832145

  Mulliken Charges: (a.u.)
   Center  Symbol    Alpha    Beta     Spin     Total
       1     H     0.38452  0.38452  0.00000  0.23095
       2     O     4.16722  4.16722  0.00000 -0.33444
       3     C     2.84176  2.84176  0.00000  0.31649
       4     C     3.10748  3.10748  0.00000 -0.21496
       5     C     3.13963  3.13963  0.00000 -0.27926
       6     H     0.41420  0.41420  0.00000  0.17160
       7     C     3.04934  3.04934  0.00000 -0.09867
       8     H     0.42173  0.42173  0.00000  0.15654
       9     C     2.92121  2.92121  0.00000  0.15759
      10     H     0.41632  0.41632  0.00000  0.16736
      11     C     3.10800  3.10800  0.00000 -0.21599
      12     N     3.28827  3.28827  0.00000  0.42347
      13     H     0.41318  0.41318  0.00000  0.17364
      14     O     4.16278  4.16278  0.00000 -0.32555
      15     O     4.16437  4.16437  0.00000 -0.32875

   Total alpha = 36.00000, Total beta = 36.00000, Total charge =  0.00000
