  ==> Input File <==

--------------------------------------------------------------------------
set {
	reference rhf
	basis 6-31G*
}

set_num_threads( 1 )
memory 2 gb

molecule MOL {
0 1

O	 0.572374	 1.290832	 -0.384299
C	 0.486307	 0.169203	 0.000779
C	 1.608116	 -0.841643	 0.000302
O	 -0.630760	 -0.351449	 0.489336
C	 2.990107	 -0.200498	 -0.000684
H	 1.468623	 -1.481519	 -0.865924
H	 1.469683	 -1.481289	 0.866878
H	 3.129736	 0.423364	 -0.875135
H	 3.757882	 -0.966877	 -0.001197
H	 3.130964	 0.423383	 0.873533
C	 -1.777440	 0.490490	 0.549878
C	 -2.909742	 -0.326286	 1.135607
H	 -2.010800	 0.840461	 -0.446439
H	 -1.549423	 1.353466	 1.160509
H	 -3.122196	 -1.189670	 0.515454
H	 -3.807639	 0.279768	 1.199868
H	 -2.658417	 -0.673863	 2.131239

	symmetry c1
}
set optking {
	frozen_dihedral = ("
		2 4 11 13,
		11 4 2 3
	")
}

ee = energy('scf')
oeprop('DIPOLE', 'QUADRUPOLE', 'MULLIKEN_CHARGES')
f=open( 'psi4out.xyz', 'w' )
f.write( "17  " )
f.write( str(ee) + "\n" )
f.write( MOL.save_string_xyz() )
f.close()
--------------------------------------------------------------------------

    Molecular point group: c1

    Geometry (in Angstrom), charge = 0, multiplicity = 1:

       Center              X                  Y                   Z               Mass
    ------------   -----------------  -----------------  -----------------  -----------------
           O          0.536699666199     1.251364055213    -0.643979603455    15.994914619560
           C          0.450632666199     0.129735055213    -0.258901603455    12.000000000000
           C          1.572441666199    -0.881110944787    -0.259378603455    12.000000000000
           O         -0.666434333801    -0.390916944787     0.229655396545    15.994914619560
           C          2.954432666199    -0.239965944787    -0.260364603455    12.000000000000
           H          1.432948666199    -1.520986944787    -1.125604603455     1.007825032070
           H          1.434008666199    -1.520756944787     0.607197396545     1.007825032070
           H          3.094061666199     0.383896055213    -1.134815603455     1.007825032070
           H          3.722207666199    -1.006344944787    -0.260877603455     1.007825032070
           H          3.095289666199     0.383915055213     0.613852396545     1.007825032070
           C         -1.813114333801     0.451022055213     0.290197396545    12.000000000000
           C         -2.945416333801    -0.365753944787     0.875926396545    12.000000000000
           H         -2.046474333801     0.800993055213    -0.706119603455     1.007825032070
           H         -1.585097333801     1.313998055213     0.900828396545     1.007825032070
           H         -3.157870333801    -1.229137944787     0.255773396545     1.007825032070
           H         -3.843313333801     0.240300055213     0.940187396545     1.007825032070
           H         -2.694091333801    -0.713330944787     1.871558396545     1.007825032070

  Charge       = 0
  Multiplicity = 1
  Basis Set: 6-31G*
  Basis Set:

    Orbital Energies (a.u.)
    -----------------------

    Doubly Occupied:

       1A    -20.601491     2A    -20.543715     3A    -11.371255
       4A    -11.284710     5A    -11.237062     6A    -11.222352
       7A    -11.217205     8A     -1.467620     9A     -1.361742
      10A     -1.070269    11A     -1.031911    12A     -0.910888
      13A     -0.847924    14A     -0.773439    15A     -0.695025
      16A     -0.688983    17A     -0.664778    18A     -0.627610
      19A     -0.584581    20A     -0.572996    21A     -0.557783
      22A     -0.525019    23A     -0.523093    24A     -0.511833
      25A     -0.504436    26A     -0.491776    27A     -0.452586
      28A     -0.435244

  @DF-RHF Final Energy:  -344.91137982350722

   => Energetics <=

    Nuclear Repulsion Energy =            314.7237279564293431
    One-Electron Energy =               -1093.7156440902069789
    Two-Electron Energy =                 434.0805363102714978
    DFT Exchange-Correlation Energy =       0.0000000000000000
    Empirical Dispersion Energy =           0.0000000000000000
    PCM Polarization Energy =               0.0000000000000000
    EFP Energy =                            0.0000000000000000
    Total Energy =                       -344.9113798235061381

  Mulliken Charges: (a.u.)
   Center  Symbol    Alpha    Beta     Spin     Total
       1     O     4.28636  4.28636  0.00000 -0.57273
       2     C     2.60460  2.60460  0.00000  0.79080
       3     C     3.20639  3.20639  0.00000 -0.41278
       4     O     4.31288  4.31288  0.00000 -0.62576
       5     C     3.24083  3.24083  0.00000 -0.48165
       6     H     0.39964  0.39964  0.00000  0.20071
       7     H     0.40132  0.40132  0.00000  0.19735
       8     H     0.40573  0.40573  0.00000  0.18853
       9     H     0.41724  0.41724  0.00000  0.16553
      10     H     0.41358  0.41358  0.00000  0.17284
      11     C     3.00254  3.00254  0.00000 -0.00509
      12     C     3.24844  3.24844  0.00000 -0.49689
      13     H     0.41029  0.41029  0.00000  0.17942
      14     H     0.41013  0.41013  0.00000  0.17974
      15     H     0.41183  0.41183  0.00000  0.17634
      16     H     0.41628  0.41628  0.00000  0.16745
      17     H     0.41191  0.41191  0.00000  0.17617

   Total alpha = 28.00000, Total beta = 28.00000, Total charge = -0.00000
