  ==> Input File <==

--------------------------------------------------------------------------
set {
	reference rhf
	basis 6-31G*
}

set_num_threads( 4 )
memory 2 gb

molecule MOL {
0 1

H	 -3.420663	 1.227371	 -1.044276
O	 -3.452007	 0.283848	 -0.965577
C	 -3.181085	 -0.079926	 0.364119
C	 -1.765924	 0.277073	 0.805136
H	 -3.327791	 -1.152017	 0.410903
H	 -3.905698	 0.375695	 1.036898
C	 -0.677594	 -0.417312	 -0.014550
H	 -1.637766	 1.358238	 0.744969
H	 -1.659588	 0.017670	 1.857098
C	 0.738335	 -0.034840	 0.421385
H	 -0.814977	 -0.178223	 -1.064632
H	 -0.802730	 -1.495410	 0.071702
C	 1.822265	 -0.738362	 -0.399735
H	 0.853533	 1.043532	 0.342250
H	 0.871597	 -0.279636	 1.474438
C	 3.258060	 -0.455774	 0.057203
H	 1.718003	 -0.459167	 -1.447053
H	 1.651028	 -1.811884	 -0.354513
C	 3.529753	 1.001368	 0.435787
H	 3.936328	 -0.739454	 -0.743901
H	 3.500189	 -1.099204	 0.900752
H	 3.284507	 1.669842	 -0.385270
H	 4.578005	 1.147753	 0.677811
H	 2.950869	 1.311753	 1.299338

	symmetry c1
}
set optking {
	frozen_dihedral = ("
		20 16 13 17
	")
}

ee = optimize('scf')
oeprop('DIPOLE', 'QUADRUPOLE', 'MULLIKEN_CHARGES')
f=open( 'psi4out.xyz', 'w' )
f.write( "24  " )
f.write( str(ee) + "\n" )
f.write( MOL.save_string_xyz() )
f.close()
--------------------------------------------------------------------------

    Molecular point group: c1
  Charge       = 0
  Multiplicity = 1
  Basis Set: 6-31G*
  Basis Set:
  @DF-RHF Final Energy:  -349.24514932250241
    Total Energy =                       -349.2451493225024137
    Molecular point group: c1
  Basis Set: 6-31G*
  Basis Set:
  Basis Set: 6-31G*
  Basis Set:
  @DF-RHF Final Energy:  -349.24532013342531
    Total Energy =                       -349.2453201334254800
  Basis Set: 6-31G*
  Basis Set:
  Basis Set: 6-31G*
  Basis Set:
  @DF-RHF Final Energy:  -349.24561074825971
    Total Energy =                       -349.2456107482596508
  Basis Set: 6-31G*
  Basis Set:
  Basis Set: 6-31G*
  Basis Set:
  @DF-RHF Final Energy:  -349.24561154232316
    Total Energy =                       -349.2456115423227629
  Basis Set: 6-31G*
  Basis Set:
  Basis Set: 6-31G*
  Basis Set:
  @DF-RHF Final Energy:  -349.24562733217266
    Total Energy =                       -349.2456273321729441
  Basis Set: 6-31G*
  Basis Set:
  Charge       = 0
  Multiplicity = 1
  Basis Set: 6-31G*
  Basis Set:

    Orbital Energies (a.u.)
    -----------------------

    Doubly Occupied:

       1A    -20.553586     2A    -11.267736     3A    -11.217497
       4A    -11.214289     5A    -11.212681     6A    -11.211603
       7A    -11.211184     8A    -11.206949     9A     -1.360187
      10A     -1.088340    11A     -1.047704    12A     -0.985111
      13A     -0.915149    14A     -0.852835    15A     -0.801672
      16A     -0.771886    17A     -0.679162    18A     -0.654501
      19A     -0.628193    20A     -0.618532    21A     -0.594092
      22A     -0.585983    23A     -0.555542    24A     -0.543711
      25A     -0.514014    26A     -0.505759    27A     -0.503318
      28A     -0.472480    29A     -0.467786    30A     -0.458373
      31A     -0.452633    32A     -0.451332    33A     -0.419388

  @DF-RHF Final Energy:  -349.24562770583236

   => Energetics <=

    Nuclear Repulsion Energy =            385.1347427550502971
    One-Electron Energy =               -1236.7143228181107588
    Two-Electron Energy =                 502.3339523572283269
    DFT Exchange-Correlation Energy =       0.0000000000000000
    Empirical Dispersion Energy =           0.0000000000000000
    PCM Polarization Energy =               0.0000000000000000
    EFP Energy =                            0.0000000000000000
    Total Energy =                       -349.2456277058321348
    Molecular point group: c1
  Basis Set: 6-31G*
  Basis Set:

  -Total Gradient:
     Atom            X                  Y                   Z
    ------   -----------------  -----------------  -----------------
       1       -0.000000700832     0.000003155640    -0.000001734958
       2       -0.000008079642     0.000008299063     0.000003756219
       3        0.000003895598    -0.000020342585     0.000004645323
       4       -0.000016818577    -0.000006317647     0.000003511404
       5       -0.000001504799    -0.000003628063    -0.000000265729
       6       -0.000000563180    -0.000000223895    -0.000001035275
       7       -0.000020469669     0.000019863846     0.000022279945
       8        0.000004075428    -0.000002030367    -0.000007711619
       9       -0.000001150603     0.000006396371     0.000002203638
      10        0.000051140179    -0.000018357453    -0.000063212456
      11        0.000010310248     0.000016037095     0.000021709707
      12        0.000010608525    -0.000000825127    -0.000008799142
      13       -0.001418449432     0.006403560665     0.001251241911
      14        0.000007164720    -0.000012044681    -0.000013747865
      15       -0.000000889838     0.000013882933     0.000003031427
      16        0.000373880847    -0.006407041716     0.001860588553
      17        0.001129029949    -0.004398818343    -0.001335885563
      18       -0.000064054802    -0.000011446100     0.000034998308
      19        0.000031873430     0.000018433075    -0.000018075278
      20       -0.000130374950     0.004412116266    -0.001741006414
      21        0.000066092222    -0.000034344607    -0.000028036052
      22        0.000030166299     0.000004113460    -0.000014756775
      23       -0.000011586272     0.000028942529     0.000046770416
      24       -0.000043594850    -0.000019380359    -0.000020469722

  **** Optimization is complete! (in 6 steps) ****
    Final optimized geometry and variables:
    Molecular point group: c1

    Geometry (in Angstrom), charge = 0, multiplicity = 1:

    H           -3.420632684796     1.205159837884    -1.119124040174
    O           -3.441223067998     0.261105105100    -1.043723055673
    C           -3.171104384383    -0.103948732274     0.285796188381
    C           -1.761857184538     0.268085575285     0.733335922323
    H           -3.305331096086    -1.177761149904     0.328338636831
    H           -3.903529123353     0.340756904470     0.957348120348
    C           -0.662490753339    -0.410094737549    -0.085182555603
    H           -1.646393755687     1.350901432724     0.677829931372
    H           -1.656180322960     0.005771396216     1.784668623630
    C            0.747114378469    -0.012806342869     0.357848989331
    H           -0.798285925912    -0.167629635975    -1.134710733860
    H           -0.775621841271    -1.489848711682    -0.004455527641
    C            1.838150858390    -0.693756300019    -0.469757596118
    H            0.848244878923     1.067332497387     0.289996311986
    H            0.880811385438    -0.266557973849     1.408939485595
    C            3.282273569862    -0.463032014562     0.004511095046
    H            1.751933526222    -0.409023439690    -1.516824448499
    H            1.655069547435    -1.767183528929    -0.460570986326
    C            3.623556133901     0.990340115064     0.347742462886
    H            3.952854397447    -0.770000643237    -0.793803694705
    H            3.493364808497    -1.092684457067     0.864903349316
    H            3.407202336316     1.652274313176    -0.486836862156
    H            4.679664618359     1.089144415394     0.579739368375
    H            3.066787304859     1.348352886475     1.207081260522

  Mulliken Charges: (a.u.)
   Center  Symbol    Alpha    Beta     Spin     Total
       1     H     0.28338  0.28338  0.00000  0.43323
       2     O     4.36830  4.36830  0.00000 -0.73661
       3     C     2.99616  2.99616  0.00000  0.00769
       4     C     3.16904  3.16904  0.00000 -0.33809
       5     H     0.41631  0.41631  0.00000  0.16737
       6     H     0.42815  0.42815  0.00000  0.14370
       7     C     3.15193  3.15193  0.00000 -0.30386
       8     H     0.42827  0.42827  0.00000  0.14346
       9     H     0.42241  0.42241  0.00000  0.15518
      10     C     3.15442  3.15442  0.00000 -0.30885
      11     H     0.41203  0.41203  0.00000  0.17595
      12     H     0.42347  0.42347  0.00000  0.15306
      13     C     3.15338  3.15338  0.00000 -0.30676
      14     H     0.42192  0.42192  0.00000  0.15616
      15     H     0.42528  0.42528  0.00000  0.14944
      16     C     3.15127  3.15127  0.00000 -0.30254
      17     H     0.42277  0.42277  0.00000  0.15446
      18     H     0.42249  0.42249  0.00000  0.15503
      19     C     3.24252  3.24252  0.00000 -0.48504
      20     H     0.42115  0.42115  0.00000  0.15771
      21     H     0.42264  0.42264  0.00000  0.15473
      22     H     0.42273  0.42273  0.00000  0.15454
      23     H     0.41983  0.41983  0.00000  0.16034
      24     H     0.42016  0.42016  0.00000  0.15969

   Total alpha = 33.00000, Total beta = 33.00000, Total charge =  0.00000
