  ==> Input File <==

--------------------------------------------------------------------------
set {
	reference rhf
	basis 6-31G*
}

set_num_threads( 4 )
memory 2 gb

molecule MOL {
0 1

H	 -0.385718	 -1.361608	 0.668928
N	 -0.626943	 -0.667432	 -0.000092
C	 -1.979713	 -0.158776	 0.000050
C	 0.328335	 -0.245528	 -0.863578
H	 -2.520245	 -0.492427	 -0.879443
H	 -1.934741	 0.918111	 -0.004428
H	 -2.517790	 -0.485056	 0.883818
C	 1.677041	 -0.913627	 -0.685750
O	 0.132770	 0.588031	 -1.704499
H	 1.594214	 -1.986699	 -0.827207
H	 2.365409	 -0.509745	 -1.412884
H	 2.064161	 -0.735899	 0.312693

	symmetry c1
}
set optking {
	frozen_dihedral = ("
		4 2 3 5
	")
}

ee = optimize('scf')
oeprop('DIPOLE', 'QUADRUPOLE', 'MULLIKEN_CHARGES')
f=open( 'psi4out.xyz', 'w' )
f.write( "12  " )
f.write( str(ee) + "\n" )
f.write( MOL.save_string_xyz() )
f.close()
--------------------------------------------------------------------------

    Molecular point group: c1
  Charge       = 0
  Multiplicity = 1
  Basis Set: 6-31G*
  Basis Set:
  @DF-RHF Final Energy:  -247.00504077950805
    Total Energy =                       -247.0050407795081924
    Molecular point group: c1
  Basis Set: 6-31G*
  Basis Set:
  Basis Set: 6-31G*
  Basis Set:
  @DF-RHF Final Energy:  -247.00559035448626
    Total Energy =                       -247.0055903544862872
  Basis Set: 6-31G*
  Basis Set:
  Basis Set: 6-31G*
  Basis Set:
  @DF-RHF Final Energy:  -247.00564236790137
    Total Energy =                       -247.0056423679014870
  Basis Set: 6-31G*
  Basis Set:
  Basis Set: 6-31G*
  Basis Set:
  @DF-RHF Final Energy:  -247.00566544405748
    Total Energy =                       -247.0056654440572856
  Basis Set: 6-31G*
  Basis Set:
  @DF-RHF Final Energy:  -247.00567152198369
    Total Energy =                       -247.0056715219837429
  @DF-RHF Final Energy:  -247.00567314327250
    Total Energy =                       -247.0056731432724746
  @DF-RHF Final Energy:  -247.00567457600192
    Total Energy =                       -247.0056745760019794
  @DF-RHF Final Energy:  -247.00567864860790
    Total Energy =                       -247.0056786486079545
  @DF-RHF Final Energy:  -247.00568946212150
    Total Energy =                       -247.0056894621214383
  @DF-RHF Final Energy:  -247.00569774912796
    Total Energy =                       -247.0056977491279326
  @DF-RHF Final Energy:  -247.00570324867391
    Total Energy =                       -247.0057032486739672
  @DF-RHF Final Energy:  -247.00570663329296
    Total Energy =                       -247.0057066332929594
  @DF-RHF Final Energy:  -247.00571049334494
    Total Energy =                       -247.0057104933449068
  @DF-RHF Final Energy:  -247.00571709165419
    Total Energy =                       -247.0057170916539917
  @DF-RHF Final Energy:  -247.00573223580122
    Total Energy =                       -247.0057322358013039
  @DF-RHF Final Energy:  -247.00575764139728
    Total Energy =                       -247.0057576413975085
  @DF-RHF Final Energy:  -247.00578219526847
    Total Energy =                       -247.0057821952683526
  @DF-RHF Final Energy:  -247.00533108053415
    Total Energy =                       -247.0053310805341766
  @DF-RHF Final Energy:  -247.00580103047591
    Total Energy =                       -247.0058010304760501
  @DF-RHF Final Energy:  -247.00581760485224
    Total Energy =                       -247.0058176048521545
  @DF-RHF Final Energy:  -247.00582780098233
    Total Energy =                       -247.0058278009821606
  Basis Set: 6-31G*
  Basis Set:
  @DF-RHF Final Energy:  -247.00575234123806
    Total Energy =                       -247.0057523412381215
  Basis Set: 6-31G*
  Basis Set:
  Basis Set: 6-31G*
  Basis Set:
  @DF-RHF Final Energy:  -247.00583106585677
    Total Energy =                       -247.0058310658567962
  Basis Set: 6-31G*
  Basis Set:
  Basis Set: 6-31G*
  Basis Set:
  @DF-RHF Final Energy:  -247.00583244220306
    Total Energy =                       -247.0058324422030864
  Basis Set: 6-31G*
  Basis Set:
  Charge       = 0
  Multiplicity = 1
  Basis Set: 6-31G*
  Basis Set:

    Orbital Energies (a.u.)
    -----------------------

    Doubly Occupied:

       1A    -20.514370     2A    -15.582376     3A    -11.341516
       4A    -11.255178     5A    -11.230104     6A     -1.383704
       7A     -1.228194     8A     -1.015053     9A     -0.932455
      10A     -0.787987    11A     -0.688964    12A     -0.647872
      13A     -0.632891    14A     -0.584328    15A     -0.579445
      16A     -0.555691    17A     -0.546778    18A     -0.502273
      19A     -0.412442    20A     -0.385719

  @DF-RHF Final Energy:  -247.00583264210294

   => Energetics <=

    Nuclear Repulsion Energy =            181.5262750507563680
    One-Electron Energy =                -695.4495301013379276
    Two-Electron Energy =                 266.9174224084787852
    DFT Exchange-Correlation Energy =       0.0000000000000000
    Empirical Dispersion Energy =           0.0000000000000000
    PCM Polarization Energy =               0.0000000000000000
    EFP Energy =                            0.0000000000000000
    Total Energy =                       -247.0058326421028028
    Molecular point group: c1
  Basis Set: 6-31G*
  Basis Set:

  -Total Gradient:
     Atom            X                  Y                   Z
    ------   -----------------  -----------------  -----------------
       1       -0.000002299852     0.000000984789    -0.000002353397
       2        0.000012395282     0.000028401871     0.000004160830
       3       -0.000014194752    -0.000035636000     0.000016962481
       4        0.000003323685    -0.000017920726     0.000001008650
       5        0.000005108269     0.000019516636    -0.000017109525
       6        0.000000904413    -0.000001130951     0.000000522468
       7       -0.000003760049     0.000001923875    -0.000000137166
       8        0.000000623535     0.000004485284    -0.000004224049
       9       -0.000004962387     0.000006830459    -0.000000980459
      10       -0.000000550137    -0.000005433801     0.000005009848
      11       -0.000001487050    -0.000004466046    -0.000004629180
      12        0.000004899046     0.000002444607     0.000001769501

  **** Optimization is complete! (in 25 steps) ****
    Final optimized geometry and variables:
    Molecular point group: c1

    Geometry (in Angstrom), charge = 0, multiplicity = 1:

    H           -0.235326862828    -0.915918672650     1.462566593825
    N           -0.475849586970    -0.267541352243     0.750377447139
    C           -1.847854361462     0.180777503665     0.654276928624
    C            0.427654116766     0.011508676227    -0.216123041706
    H           -2.391324155376    -0.346840214566    -0.122068234009
    H           -1.874891714830     1.237237707355     0.429364020538
    H           -2.337073071104     0.010293698419     1.604309794383
    C            1.793647942142    -0.618806251963    -0.042165642265
    O            0.164204196077     0.702048950048    -1.162457327988
    H            1.838727536370    -1.526080294658    -0.636166293119
    H            2.541979080773     0.064655356052    -0.418416915314
    H            2.016912515808    -0.869559193939     0.988481129503

  Mulliken Charges: (a.u.)
   Center  Symbol    Alpha    Beta     Spin     Total
       1     H     0.30941  0.30941  0.00000  0.38117
       2     N     3.89286  3.89286  0.00000 -0.78572
       3     C     3.13502  3.13502  0.00000 -0.27005
       4     C     2.63027  2.63027  0.00000  0.73946
       5     H     0.41123  0.41123  0.00000  0.17754
       6     H     0.39887  0.39887  0.00000  0.20226
       7     H     0.41778  0.41778  0.00000  0.16443
       8     C     3.29099  3.29099  0.00000 -0.58199
       9     O     4.30298  4.30298  0.00000 -0.60595
      10     H     0.40014  0.40014  0.00000  0.19972
      11     H     0.39399  0.39399  0.00000  0.21202
      12     H     0.41645  0.41645  0.00000  0.16710

   Total alpha = 20.00000, Total beta = 20.00000, Total charge = -0.00000
