  ==> Input File <==

--------------------------------------------------------------------------
set {
	reference rhf
	basis 6-31G*
}

set_num_threads( 1 )
memory 2 gb

molecule MOL {
0 1

O	 2.862325	 1.357334	 0.000267
C	 2.843464	 0.164689	 -0.000222
C	 1.546494	 -0.624492	 -0.000609
C	 4.124123	 -0.644674	 -0.000428
C	 0.291004	 0.242674	 0.000989
H	 1.557904	 -1.283758	 -0.867573
H	 1.558622	 -1.285963	 0.864672
C	 -0.994322	 -0.586602	 0.000262
H	 0.309117	 0.896430	 -0.865270
H	 0.309661	 0.894078	 0.869017
C	 -2.259874	 0.272531	 0.000494
H	 -1.004862	 -1.240012	 -0.870939
H	 -1.005220	 -1.241071	 0.870675
C	 -1.975732	 1.768886	 0.142609
H	 -2.911655	 -0.047856	 0.811390
H	 -2.812981	 0.097928	 -0.920692
C	 -3.244795	 2.620452	 0.142238
H	 -1.423910	 1.944809	 1.063677
H	 -1.325508	 2.090648	 -0.668278
H	 -3.901422	 2.345685	 0.962904
H	 -3.011008	 3.675673	 0.244973
H	 -3.801743	 2.493467	 -0.781791
H	 4.165367	 -1.288615	 -0.874074
H	 4.976217	 0.020734	 -0.001915
H	 4.166763	 -1.286207	 0.874930

	symmetry c1
}
set optking {
	frozen_dihedral = ("
		9 5 8 12,
		15 11 14 18,
		1 2 3 6,
		9 5 3 6
	")
}

ee = energy('scf')
oeprop('DIPOLE', 'QUADRUPOLE', 'MULLIKEN_CHARGES')
f=open( 'psi4out.xyz', 'w' )
f.write( "25  " )
f.write( str(ee) + "\n" )
f.write( MOL.save_string_xyz() )
f.close()
--------------------------------------------------------------------------

    Molecular point group: c1

    Geometry (in Angstrom), charge = 0, multiplicity = 1:

       Center              X                  Y                   Z               Mass
    ------------   -----------------  -----------------  -----------------  -----------------
           O          2.506722606034     0.833520235053    -0.032089681542    15.994914619560
           C          2.487861606034    -0.359124764947    -0.032578681542    12.000000000000
           C          1.190891606034    -1.148305764947    -0.032965681542    12.000000000000
           C          3.768520606034    -1.168487764947    -0.032784681542    12.000000000000
           C         -0.064598393966    -0.281139764947    -0.031367681542    12.000000000000
           H          1.202301606034    -1.807571764947    -0.899929681542     1.007825032070
           H          1.203019606034    -1.809776764947     0.832315318458     1.007825032070
           C         -1.349924393966    -1.110415764947    -0.032094681542    12.000000000000
           H         -0.046485393966     0.372616235053    -0.897626681542     1.007825032070
           H         -0.045941393966     0.370264235053     0.836660318458     1.007825032070
           C         -2.615476393966    -0.251282764947    -0.031862681542    12.000000000000
           H         -1.360464393966    -1.763825764947    -0.903295681542     1.007825032070
           H         -1.360822393966    -1.764884764947     0.838318318458     1.007825032070
           C         -2.331334393966     1.245072235053     0.110252318458    12.000000000000
           H         -3.267257393966    -0.571669764947     0.779033318458     1.007825032070
           H         -3.168583393966    -0.425885764947    -0.953048681542     1.007825032070
           C         -3.600397393966     2.096638235053     0.109881318458    12.000000000000
           H         -1.779512393966     1.420995235053     1.031320318458     1.007825032070
           H         -1.681110393966     1.566834235053    -0.700634681542     1.007825032070
           H         -4.257024393966     1.821871235053     0.930547318458     1.007825032070
           H         -3.366610393966     3.151859235053     0.212616318458     1.007825032070
           H         -4.157345393966     1.969653235053    -0.814147681542     1.007825032070
           H          3.809764606034    -1.812428764947    -0.906430681542     1.007825032070
           H          4.620614606034    -0.503079764947    -0.034271681542     1.007825032070
           H          3.811160606034    -1.810020764947     0.842573318458     1.007825032070

  Charge       = 0
  Multiplicity = 1
  Basis Set: 6-31G*
  Basis Set:

    Orbital Energies (a.u.)
    -----------------------

    Doubly Occupied:

       1A    -20.550111     2A    -11.325837     3A    -11.230609
       4A    -11.228054     5A    -11.215410     6A    -11.214732
       7A    -11.211712     8A    -11.210457     9A    -11.204764
      10A     -1.395427    11A     -1.096541    12A     -1.052214
      13A     -1.010944    14A     -0.968523    15A     -0.886088
      16A     -0.840593    17A     -0.761884    18A     -0.730502
      19A     -0.663084    20A     -0.650859    21A     -0.628822
      22A     -0.625521    23A     -0.592129    24A     -0.580461
      25A     -0.573094    26A     -0.561853    27A     -0.552847
      28A     -0.512442    29A     -0.509151    30A     -0.493032
      31A     -0.487837    32A     -0.485624    33A     -0.461473
      34A     -0.445340    35A     -0.439182    36A     -0.399625

  @DF-RHF Final Energy:  -387.12200811097182

   => Energetics <=

    Nuclear Repulsion Energy =            450.8472526379059673
    One-Electron Energy =               -1418.3450413253015086
    Two-Electron Energy =                 580.3757805764256545
    DFT Exchange-Correlation Energy =       0.0000000000000000
    Empirical Dispersion Energy =           0.0000000000000000
    PCM Polarization Energy =               0.0000000000000000
    EFP Energy =                            0.0000000000000000
    Total Energy =                       -387.1220081109698867

  Mulliken Charges: (a.u.)
   Center  Symbol    Alpha    Beta     Spin     Total
       1     O     4.26171  4.26171  0.00000 -0.52342
       2     C     2.73552  2.73552  0.00000  0.52896
       3     C     3.20800  3.20800  0.00000 -0.41600
       4     C     3.28671  3.28671  0.00000 -0.57341
       5     C     3.15563  3.15563  0.00000 -0.31125
       6     H     0.41060  0.41060  0.00000  0.17880
       7     H     0.41060  0.41060  0.00000  0.17880
       8     C     3.15679  3.15679  0.00000 -0.31357
       9     H     0.41051  0.41051  0.00000  0.17898
      10     H     0.40956  0.40956  0.00000  0.18087
      11     C     3.15378  3.15378  0.00000 -0.30757
      12     H     0.42214  0.42214  0.00000  0.15572
      13     H     0.42253  0.42253  0.00000  0.15493
      14     C     3.15916  3.15916  0.00000 -0.31831
      15     H     0.42125  0.42125  0.00000  0.15751
      16     H     0.42153  0.42153  0.00000  0.15694
      17     C     3.23665  3.23665  0.00000 -0.47331
      18     H     0.42013  0.42013  0.00000  0.15974
      19     H     0.41805  0.41805  0.00000  0.16389
      20     H     0.42318  0.42318  0.00000  0.15363
      21     H     0.41884  0.41884  0.00000  0.16231
      22     H     0.42300  0.42300  0.00000  0.15400
      23     H     0.40876  0.40876  0.00000  0.18247
      24     H     0.39662  0.39662  0.00000  0.20677
      25     H     0.40874  0.40874  0.00000  0.18253

   Total alpha = 36.00000, Total beta = 36.00000, Total charge = -0.00000
