  ==> Input File <==

--------------------------------------------------------------------------
set {
	reference rhf
	basis 6-31G*
}

set_num_threads( 1 )
memory 2 gb

molecule MOL {
0 1

O	 1.228169	 1.284723	 -0.222456
C	 1.122059	 0.121804	 -0.000188
C	 -0.170150	 -0.657997	 -0.000612
O	 2.155378	 -0.660505	 0.284803
C	 -1.412532	 0.227344	 -0.000452
H	 -0.153702	 -1.313099	 -0.867402
H	 -0.153924	 -1.313811	 0.865644
C	 -2.706999	 -0.587347	 -0.000541
H	 -1.388000	 0.879466	 -0.868000
H	 -1.387972	 0.879138	 0.867341
C	 -3.956778	 0.291888	 0.000910
H	 -2.726114	 -1.239230	 -0.871609
H	 -2.725217	 -1.240844	 0.869333
H	 -3.985213	 0.933254	 -0.875158
H	 -4.860123	 -0.309979	 0.000519
H	 -3.984618	 0.931166	 0.878514
C	 3.433066	 -0.050942	 0.317804
H	 3.674929	 0.376971	 -0.644422
H	 4.129242	 -0.837895	 0.562739
H	 3.464829	 0.724572	 1.069519

	symmetry c1
}
set optking {
	frozen_dihedral = ("
		9 5 8 12,
		9 5 3 6,
		1 2 4 17
	")
}

ee = energy('scf')
oeprop('DIPOLE', 'QUADRUPOLE', 'MULLIKEN_CHARGES')
f=open( 'psi4out.xyz', 'w' )
f.write( "20  " )
f.write( str(ee) + "\n" )
f.write( MOL.save_string_xyz() )
f.close()
--------------------------------------------------------------------------

    Molecular point group: c1

    Geometry (in Angstrom), charge = 0, multiplicity = 1:

       Center              X                  Y                   Z               Mass
    ------------   -----------------  -----------------  -----------------  -----------------
           O          1.231195662161     1.279734807083    -0.272377107877    15.994914619560
           C          1.125085662161     0.116815807083    -0.050109107877    12.000000000000
           C         -0.167123337839    -0.662985192917    -0.050533107877    12.000000000000
           O          2.158404662161    -0.665493192917     0.234881892123    15.994914619560
           C         -1.409505337839     0.222355807083    -0.050373107877    12.000000000000
           H         -0.150675337839    -1.318087192917    -0.917323107877     1.007825032070
           H         -0.150897337839    -1.318799192917     0.815722892123     1.007825032070
           C         -2.703972337839    -0.592335192917    -0.050462107877    12.000000000000
           H         -1.384973337839     0.874477807083    -0.917921107877     1.007825032070
           H         -1.384945337839     0.874149807083     0.817419892123     1.007825032070
           C         -3.953751337839     0.286899807083    -0.049011107877    12.000000000000
           H         -2.723087337839    -1.244218192917    -0.921530107877     1.007825032070
           H         -2.722190337839    -1.245832192917     0.819411892123     1.007825032070
           H         -3.982186337839     0.928265807083    -0.925079107877     1.007825032070
           H         -4.857096337839    -0.314967192917    -0.049402107877     1.007825032070
           H         -3.981591337839     0.926177807083     0.828592892123     1.007825032070
           C          3.436092662161    -0.055930192917     0.267882892123    12.000000000000
           H          3.677955662161     0.371982807083    -0.694343107877     1.007825032070
           H          4.132268662161    -0.842883192917     0.512817892123     1.007825032070
           H          3.467855662161     0.719583807083     1.019597892123     1.007825032070

  Charge       = 0
  Multiplicity = 1
  Basis Set: 6-31G*
  Basis Set:

    Orbital Energies (a.u.)
    -----------------------

    Doubly Occupied:

       1A    -20.603986     2A    -20.545336     3A    -11.372387
       4A    -11.280928     5A    -11.235549     6A    -11.220561
       7A    -11.219784     8A    -11.210824     9A     -1.469493
      10A     -1.362853    11A     -1.088944    12A     -1.024493
      13A     -0.969185    14A     -0.886033    15A     -0.804213
      16A     -0.767959    17A     -0.696632    18A     -0.683631
      19A     -0.672012    20A     -0.646174    21A     -0.597640
      22A     -0.592121    23A     -0.578559    24A     -0.540968
      25A     -0.536601    26A     -0.522960    27A     -0.500607
      28A     -0.478413    29A     -0.474164    30A     -0.470355
      31A     -0.455942    32A     -0.436608

  @DF-RHF Final Energy:  -383.94140495746740

   => Energetics <=

    Nuclear Repulsion Energy =            381.0805012616766589
    One-Electron Energy =               -1278.1522092394354786
    Two-Electron Energy =                 513.1303030202905120
    DFT Exchange-Correlation Energy =       0.0000000000000000
    Empirical Dispersion Energy =           0.0000000000000000
    PCM Polarization Energy =               0.0000000000000000
    EFP Energy =                            0.0000000000000000
    Total Energy =                       -383.9414049574683077

  Mulliken Charges: (a.u.)
   Center  Symbol    Alpha    Beta     Spin     Total
       1     O     4.28599  4.28599  0.00000 -0.57199
       2     C     2.60487  2.60487  0.00000  0.79026
       3     C     3.20866  3.20866  0.00000 -0.41733
       4     O     4.30705  4.30705  0.00000 -0.61411
       5     C     3.15186  3.15186  0.00000 -0.30373
       6     H     0.39994  0.39994  0.00000  0.20012
       7     H     0.40118  0.40118  0.00000  0.19763
       8     C     3.15417  3.15417  0.00000 -0.30834
       9     H     0.40925  0.40925  0.00000  0.18150
      10     H     0.41440  0.41440  0.00000  0.17120
      11     C     3.23937  3.23937  0.00000 -0.47874
      12     H     0.42274  0.42274  0.00000  0.15452
      13     H     0.42289  0.42289  0.00000  0.15422
      14     H     0.41971  0.41971  0.00000  0.16057
      15     H     0.41868  0.41868  0.00000  0.16264
      16     H     0.42019  0.42019  0.00000  0.15963
      17     C     3.09261  3.09261  0.00000 -0.18521
      18     H     0.40909  0.40909  0.00000  0.18182
      19     H     0.40840  0.40840  0.00000  0.18320
      20     H     0.40893  0.40893  0.00000  0.18213

   Total alpha = 32.00000, Total beta = 32.00000, Total charge =  0.00000
