                              Psi4 1.0.54 Driver

  ==> Input File <==

--------------------------------------------------------------------------
set {
	reference rhf
	basis cc-pvtz
}

set_num_threads( 4 )
memory 2 gb

molecule MOL {
0 1

H	 -3.162190	 0.493205	 -0.000107
C	 -2.363908	 -0.234727	 0.000005
O	 -1.158738	 0.454634	 -0.000087
H	 -2.464314	 -0.863616	 -0.882153
H	 -2.464327	 -0.863359	 0.882345
C	 -0.028611	 -0.359694	 0.000037
C	 1.212847	 0.509314	 -0.000053
H	 -0.034155	 -1.007047	 -0.877198
H	 -0.034195	 -1.006836	 0.877430
C	 1.924170	 0.508696	 1.348416
H	 1.882530	 0.154875	 -0.775826
H	 0.927185	 1.519678	 -0.271184
H	 2.240594	 -0.490685	 1.628061
H	 2.806292	 1.136453	 1.320092
H	 1.278977	 0.883514	 2.136011

	symmetry c1
}
set optking {
	frozen_dihedral = ("
		11 7 6 8
	")
}

ee,wfn = optimize('scf', return_wfn=True)
oeprop( wfn, 'DIPOLE', 'QUADRUPOLE', 'MULLIKEN_CHARGES')
f=open( 'psi4out.xyz', 'w' )
f.write( "15  " )
f.write( str(ee) + "\n" )
f.write( MOL.save_string_xyz() )
f.close()
--------------------------------------------------------------------------

    Molecular point group: c1
  Charge       = 0
  Multiplicity = 1
  Basis Set: CC-PVTZ
  Basis Set:
  @DF-RHF Final Energy:  -232.22275037687032
    Total Energy =                       -232.2227503768701808
    Molecular point group: c1
  Basis Set: CC-PVTZ
  Basis Set:
  Basis Set: CC-PVTZ
  Basis Set:
  @DF-RHF Final Energy:  -232.22202964055884
    Total Energy =                       -232.2220296405587305
  Basis Set: CC-PVTZ
  Basis Set:
  Basis Set: CC-PVTZ
  Basis Set:
  @DF-RHF Final Energy:  -232.22327534168247
    Total Energy =                       -232.2232753416826654
  Basis Set: CC-PVTZ
  Basis Set:
  Basis Set: CC-PVTZ
  Basis Set:
  @DF-RHF Final Energy:  -232.22331257529140
    Total Energy =                       -232.2233125752913452
  Basis Set: CC-PVTZ
  Basis Set:
  Basis Set: CC-PVTZ
  Basis Set:
  @DF-RHF Final Energy:  -232.22331363591528
    Total Energy =                       -232.2233136359152468
  Basis Set: CC-PVTZ
  Basis Set:
  Charge       = 0
  Multiplicity = 1
  Basis Set: CC-PVTZ
  Basis Set:

    Orbital Energies (a.u.)
    -----------------------

    Doubly Occupied:

       1A    -20.548351     2A    -11.264620     3A    -11.261780
       4A    -11.212553     5A    -11.207378     6A     -1.381935
       7A     -1.054337     8A     -0.954319     9A     -0.881175
      10A     -0.807656    11A     -0.670243    12A     -0.662221
      13A     -0.633502    14A     -0.587702    15A     -0.578237
      16A     -0.545977    17A     -0.492821    18A     -0.489343
      19A     -0.481878    20A     -0.462216    21A     -0.414033

  @DF-RHF Final Energy:  -232.22331376657277

   => Energetics <=

    Nuclear Repulsion Energy =            190.9568745045413891
    One-Electron Energy =                -693.1758213228517889
    Two-Electron Energy =                 269.9956330517378547
    DFT Exchange-Correlation Energy =       0.0000000000000000
    Empirical Dispersion Energy =           0.0000000000000000
    PCM Polarization Energy =               0.0000000000000000
    EFP Energy =                            0.0000000000000000
    Total Energy =                       -232.2233137665725735
    Molecular point group: c1
  Basis Set: CC-PVTZ
  Basis Set:

  -Total Gradient:
     Atom            X                  Y                   Z
    ------   -----------------  -----------------  -----------------
       1       -0.000007593801     0.000003092807     0.000000042891
       2        0.000007849263    -0.000000757905     0.000001383642
       3       -0.000008094282    -0.000002219087     0.000005595796
       4       -0.000005806319    -0.000002356293    -0.000005360621
       5       -0.000003715335    -0.000002095605     0.000003470095
       6       -0.002606349313     0.003915421462    -0.002138291283
       7        0.002456892379    -0.003712034648     0.002677145738
       8        0.001806195739    -0.002664822525     0.001338531455
       9       -0.000015727151     0.000008978140     0.000005210735
      10       -0.000006433406    -0.000008095467     0.000000762693
      11       -0.001616219890     0.002449673496    -0.001870773878
      12       -0.000000307378     0.000012401523    -0.000000409449
      13       -0.000005705883     0.000002815099    -0.000000843431
      14        0.000001329722    -0.000001090530    -0.000003994521
      15        0.000003685657     0.000001089532    -0.000012469863

  **** Optimization is complete! (in 6 steps) ****
    Final optimized geometry and variables:
    Molecular point group: c1

    Geometry (in Angstrom), charge = 0, multiplicity = 1:

    H           -3.063031187973     0.247169089772    -0.071279819581
    C           -2.245602546038    -0.442941033008    -0.222764916853
    O           -1.063041853229     0.283526062439    -0.191389503981
    H           -2.382236136098    -0.941817608122    -1.180098059304
    H           -2.273231511405    -1.195617664555     0.562458562766
    C            0.086900599422    -0.482148217358    -0.381140728780
    C            1.323269239064     0.411481177231    -0.274257731204
    H            0.054430234381    -0.987047098349    -1.345038824880
    H            0.127425746291    -1.269747980559     0.371451469958
    C            2.066959855417     0.282483756746     1.049769455810
    H            1.989731274159     0.215178776680    -1.107017714952
    H            0.986785925727     1.433251769814    -0.403790315258
    H            2.454807116799    -0.721276271453     1.188334891309
    H            2.904118839396     0.969285911180     1.096121124703
    H            1.408862570984     0.502814354773     1.883064817955

  Mulliken Charges: (a.u.)
   Center  Symbol    Alpha    Beta     Spin     Total
       1     H     0.44710  0.44710  0.00000  0.10579
       2     C     3.03048  3.03048  0.00000 -0.06096
       3     O     4.17280  4.17280  0.00000 -0.34561
       4     H     0.47198  0.47198  0.00000  0.05605
       5     H     0.47236  0.47236  0.00000  0.05527
       6     C     2.96354  2.96354  0.00000  0.07292
       7     C     3.08534  3.08534  0.00000 -0.17068
       8     H     0.47079  0.47079  0.00000  0.05842
       9     H     0.47736  0.47736  0.00000  0.04527
      10     C     3.15003  3.15003  0.00000 -0.30006
      11     H     0.45268  0.45268  0.00000  0.09465
      12     H     0.44776  0.44776  0.00000  0.10448
      13     H     0.45734  0.45734  0.00000  0.08533
      14     H     0.44969  0.44969  0.00000  0.10062
      15     H     0.45075  0.45075  0.00000  0.09850

   Total alpha = 21.00000, Total beta = 21.00000, Total charge =  0.00000

*** Psi4 exiting successfully. Buy a developer a beer!
