  ==> Input File <==

--------------------------------------------------------------------------
set {
	reference rhf
	basis 6-31G*
}

set_num_threads( 4 )
memory 2 gb

molecule MOL {
0 1

H	 3.087633	 -0.993770	 0.598079
N	 3.092854	 -0.246221	 -0.068770
C	 1.865559	 0.531981	 0.018834
H	 3.177799	 -0.667054	 -0.974592
C	 0.645745	 -0.382037	 -0.029944
H	 1.841966	 1.207024	 -0.831236
H	 1.815756	 1.155410	 0.915079
C	 -0.679275	 0.379305	 0.025956
H	 0.698998	 -0.976915	 -0.937203
H	 0.693479	 -1.083846	 0.802235
C	 -1.903357	 -0.536963	 -0.023547
H	 -0.726309	 1.082987	 -0.803784
H	 -0.717680	 0.977832	 0.934877
C	 -3.225172	 0.228290	 0.028445
H	 -1.867824	 -1.134999	 -0.931459
H	 -1.860449	 -1.239604	 0.805977
H	 -3.313397	 0.915643	 -0.808262
H	 -4.073500	 -0.448134	 -0.008893
H	 -3.306061	 0.809945	 0.942516

	symmetry c1
}
set optking {
	frozen_dihedral = ("
		1 2 3 6
	")
}

ee = optimize('scf')
oeprop('DIPOLE', 'QUADRUPOLE', 'MULLIKEN_CHARGES')
f=open( 'psi4out.xyz', 'w' )
f.write( "19  " )
f.write( str(ee) + "\n" )
f.write( MOL.save_string_xyz() )
f.close()
--------------------------------------------------------------------------

    Molecular point group: c1
  Charge       = 0
  Multiplicity = 1
  Basis Set: 6-31G*
  Basis Set:
  @DF-RHF Final Energy:  -251.34933305197853
    Total Energy =                       -251.3493330519784763
    Molecular point group: c1
  Basis Set: 6-31G*
  Basis Set:
  Basis Set: 6-31G*
  Basis Set:
  @DF-RHF Final Energy:  -251.35112397391651
    Total Energy =                       -251.3511239739165148
  Basis Set: 6-31G*
  Basis Set:
  Basis Set: 6-31G*
  Basis Set:
  @DF-RHF Final Energy:  -251.35137811879920
    Total Energy =                       -251.3513781187991754
  Basis Set: 6-31G*
  Basis Set:
  Basis Set: 6-31G*
  Basis Set:
  @DF-RHF Final Energy:  -251.35138116105574
    Total Energy =                       -251.3513811610557696
  Basis Set: 6-31G*
  Basis Set:
  Charge       = 0
  Multiplicity = 1
  Basis Set: 6-31G*
  Basis Set:

    Orbital Energies (a.u.)
    -----------------------

    Doubly Occupied:

       1A    -15.533010     2A    -11.239876     3A    -11.217217
       4A    -11.216180     5A    -11.214277     6A    -11.209805
       7A     -1.177552     8A     -1.075880     9A     -1.000172
      10A     -0.901530    11A     -0.819636    12A     -0.793144
      13A     -0.678257    14A     -0.638319    15A     -0.600256
      16A     -0.583949    17A     -0.576293    18A     -0.557126
      19A     -0.520038    20A     -0.505899    21A     -0.479596
      22A     -0.473428    23A     -0.467520    24A     -0.464320
      25A     -0.376040

  @DF-RHF Final Energy:  -251.35138157476524

   => Energetics <=

    Nuclear Repulsion Energy =            245.4198152997500983
    One-Electron Energy =                -824.9037550882211463
    Two-Electron Energy =                 328.1325582137056927
    DFT Exchange-Correlation Energy =       0.0000000000000000
    Empirical Dispersion Energy =           0.0000000000000000
    PCM Polarization Energy =               0.0000000000000000
    EFP Energy =                            0.0000000000000000
    Total Energy =                       -251.3513815747653553
    Molecular point group: c1
  Basis Set: 6-31G*
  Basis Set:

  -Total Gradient:
     Atom            X                  Y                   Z
    ------   -----------------  -----------------  -----------------
       1       -0.000680311281    -0.001161049873    -0.001323021357
       2        0.000631397864     0.001195726943     0.001406831131
       3        0.000723847389     0.001187168344     0.000872966842
       4       -0.000013871529     0.000008403497     0.000001499716
       5        0.000071437937     0.000004174901     0.000000172791
       6       -0.000682046158    -0.001227117924    -0.000979973761
       7        0.000005504087     0.000001042305     0.000013797373
       8        0.000033656903    -0.000013026874    -0.000003607588
       9       -0.000009988056    -0.000008303817     0.000025673361
      10        0.000003854772     0.000004104342    -0.000000048808
      11       -0.000036046682     0.000024595873    -0.000024293349
      12        0.000001591089    -0.000001738912     0.000013051180
      13       -0.000010127611    -0.000006941914    -0.000003166942
      14       -0.000030625560    -0.000025789643     0.000004563654
      15        0.000000834807     0.000003096423    -0.000000666811
      16        0.000003300244     0.000011100696    -0.000005989216
      17        0.000001398292    -0.000005862312    -0.000001455205
      18       -0.000016327625     0.000008332539     0.000004320479
      19        0.000002521114     0.000002085403    -0.000000653489

  **** Optimization is complete! (in 5 steps) ****
    Final optimized geometry and variables:
    Molecular point group: c1

    Geometry (in Angstrom), charge = 0, multiplicity = 1:

    H            3.173859902148    -0.939457784260     0.615250490341
    N            3.154424547030    -0.178043159794    -0.037149729143
    C            1.872040409417     0.509306135266     0.017687125409
    H            3.291335658986    -0.583470956620    -0.943629676593
    C            0.638304547160    -0.396677505178    -0.025775578783
    H            1.835523100680     1.199739591549    -0.819581062765
    H            1.849218956276     1.111510706980     0.921110888734
    C           -0.679782328232     0.377596035795     0.029634580250
    H            0.670332324134    -0.998168028145    -0.933472403627
    H            0.682087935384    -1.097449067159     0.807526600266
    C           -1.915667500818    -0.523258854668    -0.011214192121
    H           -0.720867597200     1.079149963452    -0.802133301371
    H           -0.705868398940     0.980101638021     0.936178218769
    C           -3.227473031492     0.258818825956     0.044663522497
    H           -1.892568604037    -1.124694265353    -0.917477253164
    H           -1.877627268572    -1.223618250514     0.820398629100
    H           -3.311652516105     0.943685345694    -0.794427050820
    H           -4.084391471294    -0.407077047205     0.014958420196
    H           -3.295763969007     0.845163184409     0.956647362137

  Mulliken Charges: (a.u.)
   Center  Symbol    Alpha    Beta     Spin     Total
       1     H     0.33571  0.33571  0.00000  0.32859
       2     N     3.91697  3.91697  0.00000 -0.83394
       3     C     3.06071  3.06071  0.00000 -0.12143
       4     H     0.33548  0.33548  0.00000  0.32904
       5     C     3.15953  3.15953  0.00000 -0.31906
       6     H     0.42026  0.42026  0.00000  0.15948
       7     H     0.41857  0.41857  0.00000  0.16286
       8     C     3.15482  3.15482  0.00000 -0.30963
       9     H     0.42680  0.42680  0.00000  0.14640
      10     H     0.42690  0.42690  0.00000  0.14620
      11     C     3.15077  3.15077  0.00000 -0.30155
      12     H     0.42329  0.42329  0.00000  0.15342
      13     H     0.42271  0.42271  0.00000  0.15458
      14     C     3.23940  3.23940  0.00000 -0.47881
      15     H     0.42304  0.42304  0.00000  0.15391
      16     H     0.42291  0.42291  0.00000  0.15418
      17     H     0.42157  0.42157  0.00000  0.15686
      18     H     0.41911  0.41911  0.00000  0.16179
      19     H     0.42145  0.42145  0.00000  0.15711

   Total alpha = 25.00000, Total beta = 25.00000, Total charge =  0.00000
