  ==> Input File <==

--------------------------------------------------------------------------
set {
	reference rhf
	basis 6-31G*
}

set_num_threads( 1 )
memory 2 gb

molecule MOL {
0 1

H	 -1.832329	 -0.692901	 0.778650
O	 -2.035884	 -0.060112	 0.102722
C	 -0.955155	 0.788182	 -0.092531
C	 0.353668	 0.040312	 -0.004810
H	 -0.985057	 1.290372	 -1.054184
H	 -0.974469	 1.533190	 0.688632
F	 0.394464	 -0.937475	 -0.903053
F	 1.368604	 0.853376	 -0.249821
F	 0.546173	 -0.502608	 1.179981

	symmetry c1
}
set optking {
	frozen_dihedral = ("
		7 4 3 5
	")
}

ee = energy('scf')
oeprop('DIPOLE', 'QUADRUPOLE', 'MULLIKEN_CHARGES')
f=open( 'psi4out.xyz', 'w' )
f.write( "9  " )
f.write( str(ee) + "\n" )
f.write( MOL.save_string_xyz() )
f.close()
--------------------------------------------------------------------------

    Molecular point group: c1

    Geometry (in Angstrom), charge = 0, multiplicity = 1:

       Center              X                  Y                   Z               Mass
    ------------   -----------------  -----------------  -----------------  -----------------
           H         -1.835015939763    -0.692713815683     0.764589333756     1.007825032070
           O         -2.038570939763    -0.059924815683     0.088661333756    15.994914619560
           C         -0.957841939763     0.788369184317    -0.106591666244    12.000000000000
           C          0.350981060237     0.040499184317    -0.018870666244    12.000000000000
           H         -0.987743939763     1.290559184317    -1.068244666244     1.007825032070
           H         -0.977155939763     1.533377184317     0.674571333756     1.007825032070
           F          0.391777060237    -0.937287815683    -0.917113666244    18.998403224000
           F          1.365917060237     0.853563184317    -0.263881666244    18.998403224000
           F          0.543486060237    -0.502420815683     1.165920333756    18.998403224000

  Charge       = 0
  Multiplicity = 1
  Basis Set: 6-31G*
  Basis Set:

    Orbital Energies (a.u.)
    -----------------------

    Doubly Occupied:

       1A    -26.354774     2A    -26.346647     3A    -26.339932
       4A    -20.587611     5A    -11.505404     6A    -11.309760
       7A     -1.745896     8A     -1.647750     9A     -1.637550
      10A     -1.401890    11A     -1.049601    12A     -0.927621
      13A     -0.835901    14A     -0.832994    15A     -0.812593
      16A     -0.722355    17A     -0.717380    18A     -0.691242
      19A     -0.670941    20A     -0.664116    21A     -0.646967
      22A     -0.637691    23A     -0.621482    24A     -0.526593
      25A     -0.476734

  @DF-RHF Final Energy:  -450.65913364870704

   => Energetics <=

    Nuclear Repulsion Energy =            277.5149716029101796
    One-Electron Energy =               -1176.9253614498884417
    Two-Electron Energy =                 448.7512561982713351
    DFT Exchange-Correlation Energy =       0.0000000000000000
    Empirical Dispersion Energy =           0.0000000000000000
    PCM Polarization Energy =               0.0000000000000000
    EFP Energy =                            0.0000000000000000
    Total Energy =                       -450.6591336487068702

  Mulliken Charges: (a.u.)
   Center  Symbol    Alpha    Beta     Spin     Total
       1     H     0.27214  0.27214  0.00000  0.45572
       2     O     4.36568  4.36568  0.00000 -0.73135
       3     C     3.03729  3.03729  0.00000 -0.07458
       4     C     2.47911  2.47911  0.00000  1.04177
       5     H     0.39640  0.39640  0.00000  0.20720
       6     H     0.40973  0.40973  0.00000  0.18054
       7     F     4.67985  4.67985  0.00000 -0.35970
       8     F     4.68068  4.68068  0.00000 -0.36136
       9     F     4.67912  4.67912  0.00000 -0.35824

   Total alpha = 25.00000, Total beta = 25.00000, Total charge =  0.00000
