  ==> Input File <==

--------------------------------------------------------------------------
set {
	reference rhf
	basis cc-pvtz
}

set_num_threads( 4 )
memory 2 gb

molecule MOL {
0 1

H	 -2.571453	 0.205215	 0.730439
C	 -1.583567	 -0.235632	 0.756984
C	 -0.600949	 0.658697	 -0.000002
H	 -1.634659	 -1.219038	 0.309339
H	 -1.285890	 -0.348283	 1.790805
C	 0.763408	 0.112229	 -0.000006
H	 -0.906875	 0.779603	 -1.030887
H	 -0.560070	 1.645455	 0.442234
N	 1.806008	 -0.317179	 0.000007

	symmetry c1
}
set optking {
	frozen_dihedral = ("
		7 3 6 9
	")
}

ee = optimize('scf')
oeprop('DIPOLE', 'QUADRUPOLE', 'MULLIKEN_CHARGES')
f=open( 'psi4out.xyz', 'w' )
f.write( "9  " )
f.write( str(ee) + "\n" )
f.write( MOL.save_string_xyz() )
f.close()
--------------------------------------------------------------------------

    Molecular point group: c1
  Charge       = 0
  Multiplicity = 1
  Basis Set: CC-PVTZ
  Basis Set:
  @DF-RHF Final Energy:  -171.02346026910811
    Total Energy =                       -171.0234602691081989
    Molecular point group: c1
  Basis Set: CC-PVTZ
  Basis Set:
  Basis Set: CC-PVTZ
  Basis Set:
  @DF-RHF Final Energy:  -170.74516854907637
    Total Energy =                       -170.7451685490764817
  Basis Set: CC-PVTZ
  Basis Set:
  Basis Set: CC-PVTZ
  Basis Set:
  @DF-RHF Final Energy:  -170.82773215294799
    Total Energy =                       -170.8277321529480162
  Basis Set: CC-PVTZ
  Basis Set:
  Basis Set: CC-PVTZ
  Basis Set:
  @DF-RHF Final Energy:  -171.00218405037410
    Total Energy =                       -171.0021840503740975
  Basis Set: CC-PVTZ
  Basis Set:
  @DF-RHF Final Energy:  -170.81510309485617
    Total Energy =                       -170.8151030948562266
  @DF-RHF Final Energy:  -170.98947197076217
    Total Energy =                       -170.9894719707622244
  @DF-RHF Final Energy:  -170.80391779197680
    Total Energy =                       -170.8039177919767440
  @DF-RHF Final Energy:  -171.00620787321895
    Total Energy =                       -171.0062078732189264
  @DF-RHF Final Energy:  -170.73115995372788
    Total Energy =                       -170.7311599537279676
  @DF-RHF Final Energy:  -170.79503483892995
    Total Energy =                       -170.7950348389300075
  @DF-RHF Final Energy:  -170.98025291060608
    Total Energy =                       -170.9802529106060547
  @DF-RHF Final Energy:  -170.88174966592391
    Total Energy =                       -170.8817496659239623
  @DF-RHF Final Energy:  -170.95208897379439
    Total Energy =                       -170.9520889737944742
  @DF-RHF Final Energy:  -170.56174211019220
    Total Energy =                       -170.5617421101921138
  @DF-RHF Final Energy:  -170.84338301381183
    Total Energy =                       -170.8433830138117742
  @DF-RHF Final Energy:  -170.95490562246067
    Total Energy =                       -170.9549056224605863
  @DF-RHF Final Energy:  -170.86829684921560
    Total Energy =                       -170.8682968492157102
  @DF-RHF Final Energy:  -170.96647332705197
    Total Energy =                       -170.9664733270518866
  @DF-RHF Final Energy:  -171.00666026157995
    Total Energy =                       -171.0066602615798956
  @DF-RHF Final Energy:  -171.01987703395542
    Total Energy =                       -171.0198770339553960
  @DF-RHF Final Energy:  -171.01790225593220
    Total Energy =                       -171.0179022559321709
  @DF-RHF Final Energy:  -171.02089028113281
    Total Energy =                       -171.0208902811328358
  @DF-RHF Final Energy:  -171.02291468969935
    Total Energy =                       -171.0229146896994052
  @DF-RHF Final Energy:  -171.02300975680680
    Total Energy =                       -171.0230097568067436
  @DF-RHF Final Energy:  -171.02325923255734
    Total Energy =                       -171.0232592325573364
  @DF-RHF Final Energy:  -171.02324901322578
    Total Energy =                       -171.0232490132256942
  @DF-RHF Final Energy:  -171.02345079406243
    Total Energy =                       -171.0234507940623132
  @DF-RHF Final Energy:  -171.01426042659824
    Total Energy =                       -171.0142604265982698
  @DF-RHF Final Energy:  -171.02130017471524
    Total Energy =                       -171.0213001747151793
  @DF-RHF Final Energy:  -171.02311534173054
    Total Energy =                       -171.0231153417306302
  @DF-RHF Final Energy:  -171.02249194712255
    Total Energy =                       -171.0224919471225462
  @DF-RHF Final Energy:  -171.02332232719687
    Total Energy =                       -171.0233223271968370
  @DF-RHF Final Energy:  -170.99906437981753
    Total Energy =                       -170.9990643798174403
  @DF-RHF Final Energy:  -171.01713159180559
    Total Energy =                       -171.0171315918055939
  @DF-RHF Final Energy:  -171.02311183965935
    Total Energy =                       -171.0231118396594070
  @DF-RHF Final Energy:  -171.02041924739058
    Total Energy =                       -171.0204192473905209
  Basis Set: CC-PVTZ
  Basis Set:
  @DF-RHF Final Energy:  -171.02061740144848
    Total Energy =                       -171.0206174014485043
  Basis Set: CC-PVTZ
  Basis Set:
  Basis Set: CC-PVTZ
  Basis Set:
  @DF-RHF Final Energy:  -171.02307323874464
    Total Energy =                       -171.0230732387446437
  Basis Set: CC-PVTZ
  Basis Set:
  Basis Set: CC-PVTZ
  Basis Set:
  @DF-RHF Final Energy:  -171.02314958064449
    Total Energy =                       -171.0231495806445992
  Basis Set: CC-PVTZ
  Basis Set:
  Charge       = 0
  Multiplicity = 1
  Basis Set: CC-PVTZ
  Basis Set:

    Orbital Energies (a.u.)
    -----------------------

    Doubly Occupied:

       1A    -15.556663     2A    -11.282648     3A    -11.261291
       4A    -11.244723     5A     -1.228806     6A     -1.084008
       7A     -0.913796     8A     -0.699240     9A     -0.661313
      10A     -0.590134    11A     -0.563099    12A     -0.545549
      13A     -0.539867    14A     -0.463796    15A     -0.463612

  @DF-RHF Final Energy:  -171.02335553726147

   => Energetics <=

    Nuclear Repulsion Energy =            103.7066471353318207
    One-Electron Energy =                -435.2629138826607118
    Two-Electron Energy =                 160.5329112100675388
    DFT Exchange-Correlation Energy =       0.0000000000000000
    Empirical Dispersion Energy =           0.0000000000000000
    PCM Polarization Energy =               0.0000000000000000
    EFP Energy =                            0.0000000000000000
    Total Energy =                       -171.0233555372613523
    Molecular point group: c1
  Basis Set: CC-PVTZ
  Basis Set:

  -Total Gradient:
     Atom            X                  Y                   Z
    ------   -----------------  -----------------  -----------------
       1       -0.000072939997    -0.000195557913     0.000107601733
       2       -0.001161478638     0.000210633652    -0.000361032172
       3       -0.001427001256    -0.001907390629     0.000700952095
       4        0.000023545990     0.000159169622     0.000034433815
       5        0.000036004024     0.000091634206     0.000232837378
       6        0.000927713527     0.004625129610    -0.001051654993
       7        0.000788823186    -0.000525011813     0.000021566227
       8        0.000469404387    -0.000001654072     0.000260812090
       9        0.000415928775    -0.002456952662     0.000054483827

    Molecular point group: c1

    Geometry (in Angstrom), charge = 0, multiplicity = 1:

    H           -2.605330311200     0.246265810811     0.404464184201
    C           -1.633500831120    -0.222389458846     0.487743549485
    C           -0.591064006700     0.625833036893    -0.241457341796
    H           -1.692691969069    -1.214189097485     0.060105613641
    H           -1.387906395461    -0.318801078928     1.536905445825
    C            0.751863050722     0.031274331760    -0.178104436562
    H           -0.848362320163     0.736920790758    -1.286709490029
    H           -0.535310865467     1.618796487801     0.185271280474
    N            1.770849969040    -0.449470789937    -0.123205883630

  Mulliken Charges: (a.u.)
   Center  Symbol    Alpha    Beta     Spin     Total
       1     H     0.44599  0.44599  0.00000  0.10803
       2     C     3.13490  3.13490  0.00000 -0.26979
       3     C     3.07961  3.07961  0.00000 -0.15922
       4     H     0.44459  0.44459  0.00000  0.11082
       5     H     0.44497  0.44497  0.00000  0.11006
       6     C     3.04257  3.04257  0.00000 -0.08513
       7     H     0.43215  0.43215  0.00000  0.13569
       8     H     0.43246  0.43246  0.00000  0.13509
       9     N     3.54277  3.54277  0.00000 -0.08554

   Total alpha = 15.00000, Total beta = 15.00000, Total charge =  0.00000
