  ==> Input File <==

--------------------------------------------------------------------------
set {
	reference rhf
	basis cc-pvtz
}

set_num_threads( 4 )
memory 2 gb

molecule MOL {
0 1

H	 2.342730	 0.877684	 -1.045694
C	 2.360424	 0.000000	 -0.411793
C	 1.173749	 0.000000	 0.526870
H	 3.286567	 0.000000	 0.151574
H	 2.342730	 -0.877684	 -1.045694
O	 -0.000000	 0.000000	 -0.223739
H	 1.203779	 0.876757	 1.172538
H	 1.203779	 -0.876757	 1.172538
C	 -1.173749	 0.000000	 0.526870
C	 -0.861241	 -0.464507	 1.932522
H	 -1.910464	 -0.657797	 0.067473
H	 -1.603618	 1.000643	 0.547298
H	 -0.447296	 -1.464966	 1.918251
H	 -1.761863	 -0.472415	 2.535798
H	 -0.140125	 0.195228	 2.398583

	symmetry c1
}
set optking {
	frozen_dihedral = ("
		11 9 6 3
	")
}

ee = optimize('scf')
oeprop('DIPOLE', 'QUADRUPOLE', 'MULLIKEN_CHARGES')
f=open( 'psi4out.xyz', 'w' )
f.write( "15  " )
f.write( str(ee) + "\n" )
f.write( MOL.save_string_xyz() )
f.close()
--------------------------------------------------------------------------

    Molecular point group: c1
  Charge       = 0
  Multiplicity = 1
  Basis Set: CC-PVTZ
  Basis Set:
  @DF-RHF Final Energy:  -232.21073436928538
    Total Energy =                       -232.2107343692854897
    Molecular point group: c1
  Basis Set: CC-PVTZ
  Basis Set:
  Basis Set: CC-PVTZ
  Basis Set:
  @DF-RHF Final Energy:  -232.21110121916630
    Total Energy =                       -232.2111012191663804
  Basis Set: CC-PVTZ
  Basis Set:
  Basis Set: CC-PVTZ
  Basis Set:
  @DF-RHF Final Energy:  -232.21912641727198
    Total Energy =                       -232.2191264172719798
  Basis Set: CC-PVTZ
  Basis Set:
  Basis Set: CC-PVTZ
  Basis Set:
  @DF-RHF Final Energy:  -232.22275875824707
    Total Energy =                       -232.2227587582470960
  Basis Set: CC-PVTZ
  Basis Set:
  @DF-RHF Final Energy:  -232.22323756145079
    Total Energy =                       -232.2232375614506736
  Basis Set: CC-PVTZ
  Basis Set:
  @DF-RHF Final Energy:  -232.22391623439088
    Total Energy =                       -232.2239162343909129
  Basis Set: CC-PVTZ
  Basis Set:
  Basis Set: CC-PVTZ
  Basis Set:
  @DF-RHF Final Energy:  -232.22404667210776
    Total Energy =                       -232.2240466721078747
  Basis Set: CC-PVTZ
  Basis Set:
  Basis Set: CC-PVTZ
  Basis Set:
  @DF-RHF Final Energy:  -232.22405587336263
    Total Energy =                       -232.2240558733624312
  Basis Set: CC-PVTZ
  Basis Set:
  Charge       = 0
  Multiplicity = 1
  Basis Set: CC-PVTZ
  Basis Set:

    Orbital Energies (a.u.)
    -----------------------

    Doubly Occupied:

       1A    -20.539387     2A    -11.266684     3A    -11.264795
       4A    -11.214559     5A    -11.205004     6A     -1.371087
       7A     -1.040818     8A     -0.991337     9A     -0.872059
      10A     -0.796127    11A     -0.675846    12A     -0.663103
      13A     -0.618342    14A     -0.600049    15A     -0.547781
      16A     -0.535302    17A     -0.522936    18A     -0.502335
      19A     -0.499176    20A     -0.450745    21A     -0.403670

  @DF-RHF Final Energy:  -232.22405640948415

   => Energetics <=

    Nuclear Repulsion Energy =            193.3216369500306087
    One-Electron Energy =                -697.9290985218106016
    Two-Electron Energy =                 272.3834051622959009
    DFT Exchange-Correlation Energy =       0.0000000000000000
    Empirical Dispersion Energy =           0.0000000000000000
    PCM Polarization Energy =               0.0000000000000000
    EFP Energy =                            0.0000000000000000
    Total Energy =                       -232.2240564094840920
    Molecular point group: c1
  Basis Set: CC-PVTZ
  Basis Set:

  -Total Gradient:
     Atom            X                  Y                   Z
    ------   -----------------  -----------------  -----------------
       1        0.000000571545     0.000001653324    -0.000001055554
       2       -0.000027464007    -0.000006213367    -0.000004585159
       3        0.000036051749    -0.003642072405     0.000050304891
       4       -0.000010992093    -0.000001634011     0.000005642785
       5        0.000004369485    -0.000002900133    -0.000006058492
       6        0.000253339769     0.004835745625     0.000431510797
       7        0.000011791693    -0.000002420119     0.000000578610
       8       -0.000004976517    -0.000003135981    -0.000008129461
       9       -0.001708143483     0.002044578141    -0.002801431199
      10       -0.000012535492    -0.000004235014     0.000022408131
      11        0.001447936179    -0.003219286741     0.002325063027
      12        0.000011625821     0.000007112086    -0.000015170737
      13        0.000005473779     0.000001971746     0.000000839073
      14        0.000001837951    -0.000002627710     0.000007470755
      15       -0.000008886377    -0.000006535441    -0.000007387472

  **** Optimization is complete! (in 9 steps) ****
    Final optimized geometry and variables:
    Molecular point group: c1

    Geometry (in Angstrom), charge = 0, multiplicity = 1:

    H            1.985908463211     1.002916686016    -1.650173220993
    C            2.074825999256     0.121369795672    -1.027784707087
    C            0.983780686826     0.099397903855     0.021599431434
    H            3.051062863909     0.128127685626    -0.555746380285
    H            2.005163799355    -0.751820277292    -1.664511569775
    O           -0.245470648135     0.088032399721    -0.637467620829
    H            1.073003795048     0.975200752391     0.661856942883
    H            1.097725965427    -0.777350191866     0.651141294509
    C           -1.447001352022     0.083209880303     0.087870203769
    C           -1.375407135684    -0.383847431570     1.535466516527
    H           -2.110146253599    -0.592998196500    -0.437643342906
    H           -1.879516166886     1.079236414801     0.053625609282
    H           -1.003244882870    -1.398190113204     1.612054269601
    H           -2.378536201153    -0.367952370821     1.946204950061
    H           -0.757995546341     0.256688185397     2.151948665778

  Mulliken Charges: (a.u.)
   Center  Symbol    Alpha    Beta     Spin     Total
       1     H     0.45156  0.45156  0.00000  0.09689
       2     C     3.13587  3.13587  0.00000 -0.27173
       3     C     2.96690  2.96690  0.00000  0.06620
       4     H     0.45959  0.45959  0.00000  0.08081
       5     H     0.45195  0.45195  0.00000  0.09611
       6     O     4.18464  4.18464  0.00000 -0.36927
       7     H     0.47292  0.47292  0.00000  0.05415
       8     H     0.47002  0.47002  0.00000  0.05997
       9     C     2.96979  2.96979  0.00000  0.06041
      10     C     3.16598  3.16598  0.00000 -0.33195
      11     H     0.45970  0.45970  0.00000  0.08059
      12     H     0.46524  0.46524  0.00000  0.06952
      13     H     0.45047  0.45047  0.00000  0.09906
      14     H     0.44507  0.44507  0.00000  0.10986
      15     H     0.45030  0.45030  0.00000  0.09940

   Total alpha = 21.00000, Total beta = 21.00000, Total charge = -0.00000
