                              Psi4 1.0.54 Driver

  ==> Input File <==

--------------------------------------------------------------------------
set {
	reference rhf
	basis cc-pvtz
}

set_num_threads( 4 )
memory 2 gb

molecule MOL {
0 1

H	 2.190573	 -0.629143	 -0.208718
O	 1.355408	 -0.529451	 0.208662
C	 0.700177	 0.619554	 -0.266242
C	 -0.713111	 0.588314	 0.266177
H	 0.678680	 0.627133	 -1.351786
H	 1.199747	 1.521489	 0.077736
O	 -1.421673	 -0.521378	 -0.196983
H	 -1.244794	 1.469161	 -0.069059
H	 -0.685100	 0.604721	 1.352683
H	 -2.328205	 -0.414926	 0.033001

	symmetry c1
}
set optking {
	frozen_dihedral = ("
		10 7 4 3
	")
}

ee,wfn = optimize('scf', return_wfn=True)
oeprop( wfn, 'DIPOLE', 'QUADRUPOLE', 'MULLIKEN_CHARGES')
f=open( 'psi4out.xyz', 'w' )
f.write( "10  " )
f.write( str(ee) + "\n" )
f.write( MOL.save_string_xyz() )
f.close()
--------------------------------------------------------------------------

    Molecular point group: c1
  Charge       = 0
  Multiplicity = 1
  Basis Set: CC-PVTZ
  Basis Set:
  @DF-RHF Final Energy:  -229.02201867144456
    Total Energy =                       -229.0220186714445845
    Molecular point group: c1
  Basis Set: CC-PVTZ
  Basis Set:
  Basis Set: CC-PVTZ
  Basis Set:
  @DF-RHF Final Energy:  -229.02166575487104
    Total Energy =                       -229.0216657548710941
  Basis Set: CC-PVTZ
  Basis Set:
  Basis Set: CC-PVTZ
  Basis Set:
  @DF-RHF Final Energy:  -229.02371356544114
    Total Energy =                       -229.0237135654410849
  Basis Set: CC-PVTZ
  Basis Set:
  Basis Set: CC-PVTZ
  Basis Set:
  @DF-RHF Final Energy:  -229.02378906597318
    Total Energy =                       -229.0237890659732045
  Basis Set: CC-PVTZ
  Basis Set:
  Basis Set: CC-PVTZ
  Basis Set:
  @DF-RHF Final Energy:  -229.02379808555696
    Total Energy =                       -229.0237980855569049
  Basis Set: CC-PVTZ
  Basis Set:
  Basis Set: CC-PVTZ
  Basis Set:
  @DF-RHF Final Energy:  -229.02379991204040
    Total Energy =                       -229.0237999120403742
  Basis Set: CC-PVTZ
  Basis Set:
  Charge       = 0
  Multiplicity = 1
  Basis Set: CC-PVTZ
  Basis Set:

    Orbital Energies (a.u.)
    -----------------------

    Doubly Occupied:

       1A    -20.546158     2A    -20.545560     3A    -11.268597
       4A    -11.267913     5A     -1.375045     6A     -1.355278
       7A     -1.003918     8A     -0.831609     9A     -0.718909
      10A     -0.708460    11A     -0.618764    12A     -0.604195
      13A     -0.588536    14A     -0.527087    15A     -0.477868
      16A     -0.447199    17A     -0.439430

  @DF-RHF Final Energy:  -229.02380054709178

   => Energetics <=

    Nuclear Repulsion Energy =            133.4828020721537598
    One-Electron Energy =                -578.3641563639528158
    Two-Electron Energy =                 215.8575537447073316
    DFT Exchange-Correlation Energy =       0.0000000000000000
    Empirical Dispersion Energy =           0.0000000000000000
    PCM Polarization Energy =               0.0000000000000000
    EFP Energy =                            0.0000000000000000
    Total Energy =                       -229.0238005470917528
    Molecular point group: c1
  Basis Set: CC-PVTZ
  Basis Set:

  -Total Gradient:
     Atom            X                  Y                   Z
    ------   -----------------  -----------------  -----------------
       1        0.000081246019    -0.000008608524    -0.000047382002
       2       -0.000133169019     0.000037969330     0.000021277420
       3       -0.000212209650     0.000328043726    -0.000554718235
       4        0.000276699547    -0.000389110535     0.000558226810
       5       -0.000018789827    -0.000006013350    -0.000014540293
       6        0.000003064571    -0.000015769894    -0.000015448296
       7        0.000352716003    -0.000424151606     0.001111558358
       8        0.000002663070     0.000017764673     0.000011560785
       9        0.000019155072     0.000017393544     0.000007491010
      10       -0.000371375783     0.000442482639    -0.001078025557

  **** Optimization is complete! (in 7 steps) ****
    Final optimized geometry and variables:
    Molecular point group: c1

    Geometry (in Angstrom), charge = 0, multiplicity = 1:

    H            2.249332203353    -0.445759752464    -0.352946503555
    O            1.489075176049    -0.318885309900     0.183320581114
    C            0.604568131111     0.571699716467    -0.434484573785
    C           -0.726233410480     0.525976632242     0.273750219119
    H            0.452936045208     0.314521558873    -1.478362582052
    H            0.987863767000     1.588721181520    -0.384797470189
    O           -1.369509681206    -0.681224057726    -0.021651171350
    H           -1.320016667058     1.372228970843    -0.064515791674
    H           -0.562738020960     0.630471629041     1.342513129996
    H           -2.256320859033    -0.657566396334     0.286134788514

  Mulliken Charges: (a.u.)
   Center  Symbol    Alpha    Beta     Spin     Total
       1     H     0.39470  0.39470  0.00000  0.21061
       2     O     4.19525  4.19525  0.00000 -0.39049
       3     C     2.96143  2.96143  0.00000  0.07714
       4     C     2.96076  2.96076  0.00000  0.07847
       5     H     0.47109  0.47109  0.00000  0.05782
       6     H     0.47777  0.47777  0.00000  0.04447
       7     O     4.19387  4.19387  0.00000 -0.38773
       8     H     0.47835  0.47835  0.00000  0.04329
       9     H     0.47089  0.47089  0.00000  0.05822
      10     H     0.39590  0.39590  0.00000  0.20820

   Total alpha = 17.00000, Total beta = 17.00000, Total charge =  0.00000

*** Psi4 exiting successfully. Buy a developer a beer!
