  ==> Input File <==

--------------------------------------------------------------------------
set {
	reference rhf
	basis 6-31G*
}

set_num_threads( 1 )
memory 2 gb

molecule MOL {
0 1

H	 -1.508307	 -1.251972	 -0.638820
O	 -2.310168	 -0.871793	 -0.309793
C	 -2.026376	 0.340750	 0.341611
C	 -0.673256	 0.843270	 -0.132153
H	 -2.792215	 1.080697	 0.115987
H	 -2.013526	 0.200402	 1.421792
C	 0.486613	 -0.083066	 0.235839
H	 -0.715586	 0.970948	 -1.210718
H	 -0.508072	 1.829858	 0.297090
C	 1.840406	 0.433480	 -0.254303
H	 0.300215	 -1.068318	 -0.178947
H	 0.519509	 -0.203625	 1.318070
C	 3.000220	 -0.489290	 0.118523
H	 1.809207	 0.553576	 -1.335192
H	 2.021860	 1.424500	 0.157276
H	 2.864959	 -1.479103	 -0.307933
H	 3.946603	 -0.099227	 -0.243630
H	 3.080049	 -0.602997	 1.196117

	symmetry c1
}
set optking {
	frozen_dihedral = ("
		14 10 7 11,
		10 7 4 8,
		2 3 4 8
	")
}

ee = energy('scf')
oeprop('DIPOLE', 'QUADRUPOLE', 'MULLIKEN_CHARGES')
f=open( 'psi4out.xyz', 'w' )
f.write( "18  " )
f.write( str(ee) + "\n" )
f.write( MOL.save_string_xyz() )
f.close()
--------------------------------------------------------------------------

    Molecular point group: c1

    Geometry (in Angstrom), charge = 0, multiplicity = 1:

       Center              X                  Y                   Z               Mass
    ------------   -----------------  -----------------  -----------------  -----------------
           H         -1.526922894128    -1.251549849642    -0.631495673173     1.007825032070
           O         -2.328783894128    -0.871370849642    -0.302468673173    15.994914619560
           C         -2.044991894128     0.341172150358     0.348935326827    12.000000000000
           C         -0.691871894128     0.843692150358    -0.124828673173    12.000000000000
           H         -2.810830894128     1.081119150358     0.123311326827     1.007825032070
           H         -2.032141894128     0.200824150358     1.429116326827     1.007825032070
           C          0.467997105872    -0.082643849642     0.243163326827    12.000000000000
           H         -0.734201894128     0.971370150358    -1.203393673173     1.007825032070
           H         -0.526687894128     1.830280150358     0.304414326827     1.007825032070
           C          1.821790105872     0.433902150358    -0.246978673173    12.000000000000
           H          0.281599105872    -1.067895849642    -0.171622673173     1.007825032070
           H          0.500893105872    -0.203202849642     1.325394326827     1.007825032070
           C          2.981604105872    -0.488867849642     0.125847326827    12.000000000000
           H          1.790591105872     0.553998150358    -1.327867673173     1.007825032070
           H          2.003244105872     1.424922150358     0.164600326827     1.007825032070
           H          2.846343105872    -1.478680849642    -0.300608673173     1.007825032070
           H          3.927987105872    -0.098804849642    -0.236305673173     1.007825032070
           H          3.061433105872    -0.602574849642     1.203441326827     1.007825032070

  Charge       = 0
  Multiplicity = 1
  Basis Set: 6-31G*
  Basis Set:

    Orbital Energies (a.u.)
    -----------------------

    Doubly Occupied:

       1A    -20.547251     2A    -11.267373     3A    -11.227642
       4A    -11.224508     5A    -11.221806     6A    -11.215122
       7A     -1.357753     8A     -1.088384     9A     -1.015630
      10A     -0.925454    11A     -0.835273    12A     -0.799211
      13A     -0.670665    14A     -0.662879    15A     -0.627570
      16A     -0.616097    17A     -0.577836    18A     -0.565333
      19A     -0.537960    20A     -0.504644    21A     -0.494316
      22A     -0.481460    23A     -0.474840    24A     -0.449341
      25A     -0.430401

  @DF-RHF Final Energy:  -271.17403774344496

   => Energetics <=

    Nuclear Repulsion Energy =            250.6381449013715894
    One-Electron Energy =                -863.9866800943919998
    Two-Electron Energy =                 342.1744974495761653
    DFT Exchange-Correlation Energy =       0.0000000000000000
    Empirical Dispersion Energy =           0.0000000000000000
    PCM Polarization Energy =               0.0000000000000000
    EFP Energy =                            0.0000000000000000
    Total Energy =                       -271.1740377434442735

  Mulliken Charges: (a.u.)
   Center  Symbol    Alpha    Beta     Spin     Total
       1     H     0.27474  0.27474  0.00000  0.45051
       2     O     4.37977  4.37977  0.00000 -0.75955
       3     C     2.97701  2.97701  0.00000  0.04598
       4     C     3.18597  3.18597  0.00000 -0.37194
       5     H     0.41924  0.41924  0.00000  0.16152
       6     H     0.42943  0.42943  0.00000  0.14113
       7     C     3.15803  3.15803  0.00000 -0.31607
       8     H     0.41602  0.41602  0.00000  0.16796
       9     H     0.41934  0.41934  0.00000  0.16132
      10     C     3.15071  3.15071  0.00000 -0.30141
      11     H     0.43133  0.43133  0.00000  0.13734
      12     H     0.41767  0.41767  0.00000  0.16466
      13     C     3.23992  3.23992  0.00000 -0.47984
      14     H     0.42137  0.42137  0.00000  0.15727
      15     H     0.42028  0.42028  0.00000  0.15943
      16     H     0.42112  0.42112  0.00000  0.15776
      17     H     0.41755  0.41755  0.00000  0.16490
      18     H     0.42049  0.42049  0.00000  0.15903

   Total alpha = 25.00000, Total beta = 25.00000, Total charge =  0.00000
