  ==> Input File <==

--------------------------------------------------------------------------
set {
	reference rhf
	basis 6-31G*
}

set_num_threads( 4 )
memory 2 gb

molecule MOL {
0 1

H	 2.304487	 0.781090	 -1.169969
O	 1.438329	 0.389946	 -1.229665
C	 1.050492	 0.053836	 0.000068
C	 -0.318135	 -0.576402	 0.000164
O	 1.733048	 0.246022	 0.953051
C	 -1.454360	 0.441875	 -0.000474
H	 -0.374042	 -1.230163	 -0.866135
H	 -0.374274	 -1.229227	 0.867154
C	 -2.826123	 -0.230780	 0.000056
H	 -1.357605	 1.085198	 -0.868380
H	 -1.357504	 1.086451	 0.866496
H	 -2.959731	 -0.858053	 -0.876869
H	 -3.619374	 0.509403	 -0.000080
H	 -2.959371	 -0.857318	 0.877556

	symmetry c1
}
set optking {
	frozen_dihedral = ("
		2 3 4 7
	")
}

ee = optimize('scf')
oeprop('DIPOLE', 'QUADRUPOLE', 'MULLIKEN_CHARGES')
f=open( 'psi4out.xyz', 'w' )
f.write( "14  " )
f.write( str(ee) + "\n" )
f.write( MOL.save_string_xyz() )
f.close()
--------------------------------------------------------------------------

    Molecular point group: c1
  Charge       = 0
  Multiplicity = 1
  Basis Set: 6-31G*
  Basis Set:
  @DF-RHF Final Energy:  -305.87871815931987
    Total Energy =                       -305.8787181593198170
    Molecular point group: c1
  Basis Set: 6-31G*
  Basis Set:
  Basis Set: 6-31G*
  Basis Set:
  @DF-RHF Final Energy:  -305.87902776050646
    Total Energy =                       -305.8790277605066876
  Basis Set: 6-31G*
  Basis Set:
  Basis Set: 6-31G*
  Basis Set:
  @DF-RHF Final Energy:  -305.87849235893043
    Total Energy =                       -305.8784923589307709
  Basis Set: 6-31G*
  Basis Set:
  Basis Set: 6-31G*
  Basis Set:
  @DF-RHF Final Energy:  -305.87936390254958
    Total Energy =                       -305.8793639025495850
  Basis Set: 6-31G*
  Basis Set:
  Basis Set: 6-31G*
  Basis Set:
  @DF-RHF Final Energy:  -305.87936711087536
    Total Energy =                       -305.8793671108755916
  Basis Set: 6-31G*
  Basis Set:
  Charge       = 0
  Multiplicity = 1
  Basis Set: 6-31G*
  Basis Set:

    Orbital Energies (a.u.)
    -----------------------

    Doubly Occupied:

       1A    -20.613447     2A    -20.549664     3A    -11.380045
       4A    -11.239423     5A    -11.236203     6A    -11.221430
       7A     -1.474090     8A     -1.364489     9A     -1.086714
      10A     -0.979801    11A     -0.851012    12A     -0.809628
      13A     -0.701980    14A     -0.685418    15A     -0.640614
      16A     -0.636536    17A     -0.593713    18A     -0.566686
      19A     -0.553897    20A     -0.517647    21A     -0.499537
      22A     -0.489231    23A     -0.471855    24A     -0.438241

  @DF-RHF Final Energy:  -305.87936719937204

   => Energetics <=

    Nuclear Repulsion Energy =            240.4206936235074181
    One-Electron Energy =                -893.3975234554579856
    Two-Electron Energy =                 347.0974626325785835
    DFT Exchange-Correlation Energy =       0.0000000000000000
    Empirical Dispersion Energy =           0.0000000000000000
    PCM Polarization Energy =               0.0000000000000000
    EFP Energy =                            0.0000000000000000
    Total Energy =                       -305.8793671993719840
    Molecular point group: c1
  Basis Set: 6-31G*
  Basis Set:

  -Total Gradient:
     Atom            X                  Y                   Z
    ------   -----------------  -----------------  -----------------
       1        0.000001728481     0.000002251878    -0.000003104511
       2        0.000160182699    -0.000311564858    -0.000070196789
       3       -0.000242067249     0.000499237022     0.000067699635
       4        0.000241300152    -0.000488796312     0.000274556438
       5       -0.000008268537    -0.000007710071    -0.000021154255
       6        0.000009104684     0.000006329516    -0.000030487408
       7       -0.000156742374     0.000332647116    -0.000207230628
       8       -0.000002345010    -0.000016648958    -0.000010523247
       9       -0.000008914568    -0.000010525565     0.000013442668
      10       -0.000001984149     0.000001590491    -0.000004799791
      11        0.000009248492    -0.000008798872    -0.000010499264
      12       -0.000001165551     0.000006695953    -0.000000506894
      13       -0.000002505295     0.000001759204     0.000007304485
      14        0.000002428223    -0.000006466545    -0.000004500440

  **** Optimization is complete! (in 6 steps) ****
    Final optimized geometry and variables:
    Molecular point group: c1

    Geometry (in Angstrom), charge = 0, multiplicity = 1:

    H            2.300564197488     0.795489836532    -1.079232759731
    O            1.456186767859     0.361866086238    -1.156382928242
    C            1.076085188725    -0.023536968485     0.061548284918
    C           -0.278642538539    -0.680254137524     0.057438066781
    O            1.745688028466     0.170872280803     1.023676272631
    C           -1.403255779972     0.367833586716     0.044809056030
    H           -0.360690335654    -1.316105895278    -0.816881295616
    H           -0.346188051969    -1.293850545122     0.946525239711
    C           -2.786710865033    -0.278924086935     0.068501370524
    H           -1.303592596094     0.989513758975    -0.839414658349
    H           -1.289180591401     1.019959074274     0.905758221538
    H           -2.936609257235    -0.916808985446    -0.797537110592
    H           -3.566090347219     0.475891487598     0.063340697824
    H           -2.920087567247    -0.887743269064     0.957674650166

  Mulliken Charges: (a.u.)
   Center  Symbol    Alpha    Beta     Spin     Total
       1     H     0.26782  0.26782  0.00000  0.46437
       2     O     4.34764  4.34764  0.00000 -0.69527
       3     C     2.63374  2.63374  0.00000  0.73252
       4     C     3.19622  3.19622  0.00000 -0.39243
       5     O     4.27837  4.27837  0.00000 -0.55674
       6     C     3.16621  3.16621  0.00000 -0.33242
       7     H     0.40256  0.40256  0.00000  0.19487
       8     H     0.39810  0.39810  0.00000  0.20379
       9     C     3.24096  3.24096  0.00000 -0.48192
      10     H     0.40861  0.40861  0.00000  0.18279
      11     H     0.40903  0.40903  0.00000  0.18194
      12     H     0.41865  0.41865  0.00000  0.16269
      13     H     0.41434  0.41434  0.00000  0.17132
      14     H     0.41775  0.41775  0.00000  0.16449

   Total alpha = 24.00000, Total beta = 24.00000, Total charge = -0.00000
