  ==> Input File <==

--------------------------------------------------------------------------
set {
	reference rhf
	basis 6-31G*
}

set_num_threads( 1 )
memory 2 gb

molecule MOL {
0 1

O	 2.862325	 1.357334	 0.000267
C	 2.843464	 0.164689	 -0.000222
C	 1.546494	 -0.624492	 -0.000609
C	 4.124123	 -0.644674	 -0.000428
C	 0.291004	 0.242674	 0.000989
H	 1.557904	 -1.283758	 -0.867573
H	 1.558622	 -1.285963	 0.864672
C	 0.607246	 1.731886	 0.149310
H	 -0.361907	 -0.078164	 0.806532
H	 -0.260386	 0.072054	 -0.918253
C	 -0.644409	 2.611133	 0.153551
H	 1.163213	 1.895365	 1.071384
H	 1.263626	 2.046605	 -0.660743
C	 -0.336335	 4.102158	 0.301702
H	 -1.300973	 2.297874	 0.963373
H	 -1.200527	 2.449184	 -0.768133
C	 -1.591621	 4.973897	 0.305311
H	 0.218519	 4.265447	 1.223275
H	 0.318695	 4.416816	 -0.508104
H	 -2.252298	 4.706289	 1.125091
H	 -1.340961	 6.024814	 0.412289
H	 -2.150819	 4.859632	 -0.619019
H	 4.165367	 -1.288615	 -0.874074
H	 4.976217	 0.020734	 -0.001915
H	 4.166763	 -1.286207	 0.874930

	symmetry c1
}
set optking {
	frozen_dihedral = ("
		9 5 8 12,
		15 11 8 12,
		15 11 14 18,
		1 2 3 6
	")
}

ee = energy('scf')
oeprop('DIPOLE', 'QUADRUPOLE', 'MULLIKEN_CHARGES')
f=open( 'psi4out.xyz', 'w' )
f.write( "25  " )
f.write( str(ee) + "\n" )
f.write( MOL.save_string_xyz() )
f.close()
--------------------------------------------------------------------------

    Molecular point group: c1

    Geometry (in Angstrom), charge = 0, multiplicity = 1:

       Center              X                  Y                   Z               Mass
    ------------   -----------------  -----------------  -----------------  -----------------
           O          1.781576528631    -0.207194625052    -0.101667570537    15.994914619560
           C          1.762715528631    -1.399839625052    -0.102156570537    12.000000000000
           C          0.465745528631    -2.189020625052    -0.102543570537    12.000000000000
           C          3.043374528631    -2.209202625052    -0.102362570537    12.000000000000
           C         -0.789744471369    -1.321854625052    -0.100945570537    12.000000000000
           H          0.477155528631    -2.848286625052    -0.969507570537     1.007825032070
           H          0.477873528631    -2.850491625052     0.762737429463     1.007825032070
           C         -0.473502471369     0.167357374948     0.047375429463    12.000000000000
           H         -1.442655471369    -1.642692625052     0.704597429463     1.007825032070
           H         -1.341134471369    -1.492474625052    -1.020187570537     1.007825032070
           C         -1.725157471369     1.046604374948     0.051616429463    12.000000000000
           H          0.082464528631     0.330836374948     0.969449429463     1.007825032070
           H          0.182877528631     0.482076374948    -0.762677570537     1.007825032070
           C         -1.417083471369     2.537629374948     0.199767429463    12.000000000000
           H         -2.381721471369     0.733345374948     0.861438429463     1.007825032070
           H         -2.281275471369     0.884655374948    -0.870067570537     1.007825032070
           C         -2.672369471369     3.409368374948     0.203376429463    12.000000000000
           H         -0.862229471369     2.700918374948     1.121340429463     1.007825032070
           H         -0.762053471369     2.852287374948    -0.610038570537     1.007825032070
           H         -3.333046471369     3.141760374948     1.023156429463     1.007825032070
           H         -2.421709471369     4.460285374948     0.310354429463     1.007825032070
           H         -3.231567471369     3.295103374948    -0.720953570537     1.007825032070
           H          3.084618528631    -2.853143625052    -0.976008570537     1.007825032070
           H          3.895468528631    -1.543794625052    -0.103849570537     1.007825032070
           H          3.086014528631    -2.850735625052     0.772995429463     1.007825032070

  Charge       = 0
  Multiplicity = 1
  Basis Set: 6-31G*
  Basis Set:

    Orbital Energies (a.u.)
    -----------------------

    Doubly Occupied:

       1A    -20.545467     2A    -11.330346     3A    -11.233070
       4A    -11.230063     5A    -11.214943     6A    -11.201297
       7A    -11.198192     8A    -11.194262     9A    -11.186702
      10A     -1.404214    11A     -1.082854    12A     -1.050337
      13A     -1.014648    14A     -0.959417    15A     -0.883110
      16A     -0.810396    17A     -0.780586    18A     -0.735652
      19A     -0.659429    20A     -0.650710    21A     -0.622278
      22A     -0.619053    23A     -0.590563    24A     -0.579527
      25A     -0.559384    26A     -0.553871    27A     -0.529320
      28A     -0.519419    29A     -0.512543    30A     -0.500788
      31A     -0.496769    32A     -0.457729    33A     -0.455956
      34A     -0.434267    35A     -0.430735    36A     -0.374469

  @DF-RHF Final Energy:  -387.09344244224775

   => Energetics <=

    Nuclear Repulsion Energy =            460.1269853231810316
    One-Electron Energy =               -1437.2362915491783042
    Two-Electron Energy =                 590.0158637837510014
    DFT Exchange-Correlation Energy =       0.0000000000000000
    Empirical Dispersion Energy =           0.0000000000000000
    PCM Polarization Energy =               0.0000000000000000
    EFP Energy =                            0.0000000000000000
    Total Energy =                       -387.0934424422462143

  Mulliken Charges: (a.u.)
   Center  Symbol    Alpha    Beta     Spin     Total
       1     O     4.25861  4.25861  0.00000 -0.51722
       2     C     2.73824  2.73824  0.00000  0.52352
       3     C     3.21541  3.21541  0.00000 -0.43081
       4     C     3.28570  3.28570  0.00000 -0.57140
       5     C     3.15374  3.15374  0.00000 -0.30748
       6     H     0.40558  0.40558  0.00000  0.18884
       7     H     0.40584  0.40584  0.00000  0.18833
       8     C     3.14903  3.14903  0.00000 -0.29805
       9     H     0.41946  0.41946  0.00000  0.16108
      10     H     0.41931  0.41931  0.00000  0.16138
      11     C     3.14607  3.14607  0.00000 -0.29213
      12     H     0.41981  0.41981  0.00000  0.16037
      13     H     0.40268  0.40268  0.00000  0.19464
      14     C     3.14933  3.14933  0.00000 -0.29866
      15     H     0.43237  0.43237  0.00000  0.13526
      16     H     0.43104  0.43104  0.00000  0.13792
      17     C     3.23841  3.23841  0.00000 -0.47681
      18     H     0.42386  0.42386  0.00000  0.15228
      19     H     0.42307  0.42307  0.00000  0.15385
      20     H     0.42370  0.42370  0.00000  0.15260
      21     H     0.42151  0.42151  0.00000  0.15698
      22     H     0.42367  0.42367  0.00000  0.15266
      23     H     0.40860  0.40860  0.00000  0.18279
      24     H     0.39646  0.39646  0.00000  0.20708
      25     H     0.40852  0.40852  0.00000  0.18297

   Total alpha = 36.00000, Total beta = 36.00000, Total charge = -0.00000
