  ==> Input File <==

--------------------------------------------------------------------------
set {
	reference rhf
	basis 6-31G*
}

set_num_threads( 4 )
memory 2 gb

molecule MOL {
0 1

H	 -0.216825	 0.021369	 -3.357402
C	 0.374198	 0.036393	 -2.447010
C	 -0.521757	 -0.028637	 -1.217342
H	 0.969602	 0.942322	 -2.434777
H	 1.053364	 -0.811668	 -2.481329
N	 0.263400	 0.031178	 0.000000
H	 -1.199035	 0.820290	 -1.219355
H	 -1.147901	 -0.924895	 -1.265384
C	 -0.521757	 -0.028637	 1.217342
H	 0.935769	 -0.712709	 0.000000
C	 -0.499760	 -1.430725	 1.811240
H	 -0.089943	 0.670529	 1.927335
H	 -1.557448	 0.288377	 1.060851
H	 0.519277	 -1.741261	 2.012469
H	 -1.063468	 -1.466992	 2.738206
H	 -0.942137	 -2.151650	 1.128437

	symmetry c1
}
set optking {
	frozen_dihedral = ("
		12 9 6 3
	")
}

ee = optimize('scf')
oeprop('DIPOLE', 'QUADRUPOLE', 'MULLIKEN_CHARGES')
f=open( 'psi4out.xyz', 'w' )
f.write( "16  " )
f.write( str(ee) + "\n" )
f.write( MOL.save_string_xyz() )
f.close()
--------------------------------------------------------------------------

    Molecular point group: c1
  Charge       = 0
  Multiplicity = 1
  Basis Set: 6-31G*
  Basis Set:
  @DF-RHF Final Energy:  -212.30768083760478
    Total Energy =                       -212.3076808376047779
    Molecular point group: c1
  Basis Set: 6-31G*
  Basis Set:
  Basis Set: 6-31G*
  Basis Set:
  @DF-RHF Final Energy:  -212.30915249786196
    Total Energy =                       -212.3091524978621010
  Basis Set: 6-31G*
  Basis Set:
  Basis Set: 6-31G*
  Basis Set:
  @DF-RHF Final Energy:  -212.30939120446405
    Total Energy =                       -212.3093912044640206
  Basis Set: 6-31G*
  Basis Set:
  Basis Set: 6-31G*
  Basis Set:
  @DF-RHF Final Energy:  -212.30940731438895
    Total Energy =                       -212.3094073143888636
  Basis Set: 6-31G*
  Basis Set:
  Charge       = 0
  Multiplicity = 1
  Basis Set: 6-31G*
  Basis Set:

    Orbital Energies (a.u.)
    -----------------------

    Doubly Occupied:

       1A    -15.530499     2A    -11.240910     3A    -11.240169
       4A    -11.211254     5A    -11.207948     6A     -1.201025
       7A     -1.026544     8A     -0.963968     9A     -0.841031
      10A     -0.819388    11A     -0.644790    12A     -0.627452
      13A     -0.620330    14A     -0.570542    15A     -0.557462
      16A     -0.526362    17A     -0.508440    18A     -0.494165
      19A     -0.488477    20A     -0.472793    21A     -0.350379

  @DF-RHF Final Energy:  -212.30940918482753

   => Energetics <=

    Nuclear Repulsion Energy =            190.1687230726328153
    One-Electron Energy =                -662.6684121274446397
    Two-Electron Energy =                 260.1902798699842947
    DFT Exchange-Correlation Energy =       0.0000000000000000
    Empirical Dispersion Energy =           0.0000000000000000
    PCM Polarization Energy =               0.0000000000000000
    EFP Energy =                            0.0000000000000000
    Total Energy =                       -212.3094091848275298
    Molecular point group: c1
  Basis Set: 6-31G*
  Basis Set:

  -Total Gradient:
     Atom            X                  Y                   Z
    ------   -----------------  -----------------  -----------------
       1        0.000003458538     0.000001577483     0.000009141038
       2        0.000001088119    -0.000001083310     0.000021983449
       3       -0.000330400203     0.002347459870    -0.000027457003
       4       -0.000000135823     0.000007988570     0.000001243777
       5       -0.000004659162    -0.000009340197     0.000000286366
       6       -0.000049740515    -0.002839497568    -0.000295210817
       7        0.000011381828     0.000007092565     0.000000436497
       8        0.000032014618     0.000013409618     0.000017915317
       9        0.002310344681    -0.001779598314     0.001291814131
      10       -0.000039872315     0.000004925740     0.000041515002
      11        0.000010401907     0.000080131650    -0.000080942588
      12       -0.001901400317     0.002127657571    -0.001001023242
      13       -0.000033304268     0.000015399400    -0.000019115741
      14       -0.000024862682     0.000000234120    -0.000009702271
      15       -0.000016699648     0.000000497344     0.000028590080
      16        0.000032385241     0.000023145459     0.000020526007

  **** Optimization is complete! (in 5 steps) ****
    Final optimized geometry and variables:
    Molecular point group: c1

    Geometry (in Angstrom), charge = 0, multiplicity = 1:

    H           -0.043561018684     0.334157248157    -3.240954066814
    C            0.547093472262     0.355165957892    -2.330457602891
    C           -0.347644954357     0.263343466783    -1.101733864879
    H            1.123089698129     1.273524706900    -2.311238618800
    H            1.243787114050    -0.478374002388    -2.370795045968
    N            0.440302101071     0.345352630930     0.112617068985
    H           -1.044243169911     1.095610751855    -1.103623817629
    H           -0.950560040435    -0.648042308342    -1.160144287257
    C           -0.301464297768     0.258252066877     1.361414953552
    H            1.184618558875    -0.323644556839     0.095754360061
    C           -0.348023211201    -1.139506203242     1.976167619310
    H            0.114981199229     0.965067461590     2.074111371536
    H           -1.314821278566     0.599444680125     1.173086125254
    H            0.652672685616    -1.493882427975     2.209848616361
    H           -0.920266251736    -1.141060045840     2.899326364779
    H           -0.804871945151    -1.852795657839     1.296379899444

  Mulliken Charges: (a.u.)
   Center  Symbol    Alpha    Beta     Spin     Total
       1     H     0.42006  0.42006  0.00000  0.15989
       2     C     3.24358  3.24358  0.00000 -0.48716
       3     C     3.05130  3.05130  0.00000 -0.10260
       4     H     0.41192  0.41192  0.00000  0.17617
       5     H     0.42496  0.42496  0.00000  0.15009
       6     N     3.85547  3.85547  0.00000 -0.71095
       7     H     0.41992  0.41992  0.00000  0.16016
       8     H     0.43624  0.43624  0.00000  0.12752
       9     C     3.05170  3.05170  0.00000 -0.10340
      10     H     0.33376  0.33376  0.00000  0.33248
      11     C     3.24879  3.24879  0.00000 -0.49759
      12     H     0.41779  0.41779  0.00000  0.16442
      13     H     0.42238  0.42238  0.00000  0.15524
      14     H     0.42262  0.42262  0.00000  0.15477
      15     H     0.41970  0.41970  0.00000  0.16061
      16     H     0.41982  0.41982  0.00000  0.16035

   Total alpha = 21.00000, Total beta = 21.00000, Total charge = -0.00000
