                              Psi4 1.0.54 Driver

  ==> Input File <==

--------------------------------------------------------------------------
set {
	reference rhf
	basis cc-pvtz
}

set_num_threads( 4 )
memory 2 gb

molecule MOL {
0 1

H	 2.614283	 2.028610	 0.296620
O	 3.358864	 1.662087	 -0.142800
C	 3.565468	 0.338079	 0.273842
C	 2.533667	 -0.637565	 -0.272227
H	 4.548038	 0.064914	 -0.086598
H	 3.593945	 0.282242	 1.360360
C	 1.114816	 -0.402372	 0.240993
H	 2.544552	 -0.580764	 -1.356576
H	 2.850574	 -1.642962	 -0.005497
C	 0.570186	 -1.587426	 1.037148
H	 0.458765	 -0.199221	 -0.598846
H	 1.102064	 0.486007	 0.870204
C	 -0.820673	 -1.377511	 1.638564
H	 0.556590	 -2.468923	 0.400748
H	 1.263214	 -1.808572	 1.844164
C	 -1.954494	 -1.263036	 0.621172
H	 -1.034647	 -2.211182	 2.301689
H	 -0.809552	 -0.489073	 2.266027
C	 -3.331543	 -1.154689	 1.271101
H	 -1.936064	 -2.131049	 -0.034331
H	 -1.799090	 -0.397472	 -0.015736
C	 -4.465546	 -1.036467	 0.258207
H	 -3.500541	 -2.024106	 1.900489
H	 -3.348934	 -0.292801	 1.932848
H	 -4.495153	 -1.899558	 -0.398629
H	 -5.427812	 -0.964212	 0.752100
H	 -4.345967	 -0.154671	 -0.362670

	symmetry c1
}
set optking {
	frozen_dihedral = ("
		10 7 4 8
	")
}

ee,wfn = optimize('scf', return_wfn=True)
oeprop( wfn, 'DIPOLE', 'QUADRUPOLE', 'MULLIKEN_CHARGES')
f=open( 'psi4out.xyz', 'w' )
f.write( "27  " )
f.write( str(ee) + "\n" )
f.write( MOL.save_string_xyz() )
f.close()
--------------------------------------------------------------------------

    Molecular point group: c1
  Charge       = 0
  Multiplicity = 1
  Basis Set: CC-PVTZ
  Basis Set:
  @DF-RHF Final Energy:  -388.42222683171099
    Total Energy =                       -388.4222268317108728
    Molecular point group: c1
  Basis Set: CC-PVTZ
  Basis Set:
  Basis Set: CC-PVTZ
  Basis Set:
  @DF-RHF Final Energy:  -388.42252587718281
    Total Energy =                       -388.4225258771830340
  Basis Set: CC-PVTZ
  Basis Set:
  Basis Set: CC-PVTZ
  Basis Set:
  @DF-RHF Final Energy:  -388.42261403624553
    Total Energy =                       -388.4226140362461592
  Basis Set: CC-PVTZ
  Basis Set:
  Basis Set: CC-PVTZ
  Basis Set:
  @DF-RHF Final Energy:  -388.42261980642115
    Total Energy =                       -388.4226198064206983
  Basis Set: CC-PVTZ
  Basis Set:
  Basis Set: CC-PVTZ
  Basis Set:
  @DF-RHF Final Energy:  -388.42262403719360
    Total Energy =                       -388.4226240371934864
  Basis Set: CC-PVTZ
  Basis Set:
  Charge       = 0
  Multiplicity = 1
  Basis Set: CC-PVTZ
  Basis Set:

    Orbital Energies (a.u.)
    -----------------------

    Doubly Occupied:

       1A    -20.544626     2A    -11.264891     3A    -11.218523
       4A    -11.216634     5A    -11.214415     6A    -11.214205
       7A    -11.213627     8A    -11.212495     9A    -11.207612
      10A     -1.362834    11A     -1.096509    12A     -1.061793
      13A     -1.012261    14A     -0.949446    15A     -0.889862
      16A     -0.823512    17A     -0.802149    18A     -0.779104
      19A     -0.698204    20A     -0.648560    21A     -0.630067
      22A     -0.621418    23A     -0.608080    24A     -0.585779
      25A     -0.576262    26A     -0.557953    27A     -0.542676
      28A     -0.526019    29A     -0.512666    30A     -0.498093
      31A     -0.485194    32A     -0.475464    33A     -0.469157
      34A     -0.462003    35A     -0.447729    36A     -0.440653
      37A     -0.428513

  @DF-RHF Final Energy:  -388.42262423224184

   => Energetics <=

    Nuclear Repulsion Energy =            459.1627153378887556
    One-Electron Energy =               -1436.5727062301707520
    Two-Electron Energy =                 588.9873666600399247
    DFT Exchange-Correlation Energy =       0.0000000000000000
    Empirical Dispersion Energy =           0.0000000000000000
    PCM Polarization Energy =               0.0000000000000000
    EFP Energy =                            0.0000000000000000
    Total Energy =                       -388.4226242322420148
    Molecular point group: c1
  Basis Set: CC-PVTZ
  Basis Set:

  -Total Gradient:
     Atom            X                  Y                   Z
    ------   -----------------  -----------------  -----------------
       1        0.000018244692    -0.000005318027    -0.000010548748
       2       -0.000027050470     0.000032830576    -0.000014676061
       3       -0.000010158719    -0.000024051470     0.000038987737
       4        0.000011726272    -0.000246659311     0.000005263848
       5       -0.000019835968     0.000011542954     0.000003903320
       6        0.000015540580    -0.000013028101    -0.000013429408
       7       -0.000078609172    -0.000014604779    -0.000132249945
       8        0.000037367839     0.000193888944     0.000009466820
       9       -0.000021847241     0.000007448304     0.000000075218
      10        0.000058143766     0.000069903634     0.000127889850
      11       -0.000020916002     0.000002647273    -0.000018036703
      12        0.000012116198    -0.000003026575     0.000011021072
      13        0.000001855059    -0.000019854456    -0.000004232997
      14        0.000004506678    -0.000004589563     0.000008154004
      15       -0.000005182520     0.000009668566     0.000005258378
      16        0.000008029970    -0.000004630990    -0.000004411332
      17       -0.000003054882    -0.000004089663    -0.000004216819
      18        0.000005142158    -0.000004886254     0.000003691891
      19        0.000001354688     0.000005152642     0.000000921347
      20       -0.000001597197     0.000001282815     0.000001960106
      21        0.000014187477     0.000009382903    -0.000013856026
      22       -0.000000487047     0.000001089787    -0.000001144223
      23        0.000001553613     0.000000205344    -0.000001600204
      24       -0.000001000450    -0.000000019732     0.000000969933
      25        0.000000193327     0.000000248951     0.000000446326
      26       -0.000000235620     0.000000049597     0.000000204504
      27        0.000000012980    -0.000000583362     0.000000188111

  **** Optimization is complete! (in 6 steps) ****
    Final optimized geometry and variables:
    Molecular point group: c1

    Geometry (in Angstrom), charge = 0, multiplicity = 1:

    H            2.472943276732     2.566295642481    -0.369182101978
    O            3.274750213825     2.222365714872    -0.717315434748
    C            3.470960892434     0.905233800891    -0.276094290025
    C            2.439900899019    -0.070209800054    -0.822734186559
    H            4.457596821789     0.624836930691    -0.619315902735
    H            3.483219916704     0.866719219480     0.811787704595
    C            1.009056804279     0.156345009265    -0.291056600856
    H            2.455884436079     0.000034517299    -1.904271458081
    H            2.767468642113    -1.074796390363    -0.572282001691
    C            0.464069357715    -1.037789413808     0.493378887268
    H            0.346078606228     0.387407497713    -1.115009919439
    H            0.986403884018     1.026999414882     0.361720276213
    C           -0.920987272479    -0.831626773082     1.108055790288
    H            0.443405955767    -1.909863289721    -0.155930689700
    H            1.163681495973    -1.273175478003     1.291023637322
    C           -2.061192830524    -0.694058890394     0.100633087303
    H           -1.134561517401    -1.675360803232     1.758411003758
    H           -0.901116747500     0.045863700945     1.750671091708
    C           -3.432938759696    -0.588171244637     0.761941377444
    H           -2.052535131139    -1.551942519797    -0.568248514011
    H           -1.904959454827     0.180266648159    -0.523718571631
    C           -4.573200929050    -0.447243413032    -0.240877400081
    H           -3.602721777563    -1.466388724125     1.378761135784
    H           -3.440604882309     0.263247039390     1.437206519717
    H           -4.613119482385    -1.300077582407    -0.910413959096
    H           -5.531414932367    -0.376342059677     0.260917089966
    H           -4.452149713142     0.443022170185    -0.849134137087

  Mulliken Charges: (a.u.)
   Center  Symbol    Alpha    Beta     Spin     Total
       1     H     0.39203  0.39203  0.00000  0.21594
       2     O     4.20676  4.20676  0.00000 -0.41353
       3     C     2.97469  2.97469  0.00000  0.05063
       4     C     3.09516  3.09516  0.00000 -0.19033
       5     H     0.44909  0.44909  0.00000  0.10183
       6     H     0.47166  0.47166  0.00000  0.05667
       7     C     3.10631  3.10631  0.00000 -0.21263
       8     H     0.44671  0.44671  0.00000  0.10658
       9     H     0.45517  0.45517  0.00000  0.08966
      10     C     3.09974  3.09974  0.00000 -0.19948
      11     H     0.44124  0.44124  0.00000  0.11752
      12     H     0.46478  0.46478  0.00000  0.07044
      13     C     3.09872  3.09872  0.00000 -0.19744
      14     H     0.45103  0.45103  0.00000  0.09795
      15     H     0.44754  0.44754  0.00000  0.10492
      16     C     3.08829  3.08829  0.00000 -0.17658
      17     H     0.44781  0.44781  0.00000  0.10438
      18     H     0.45392  0.45392  0.00000  0.09216
      19     C     3.08416  3.08416  0.00000 -0.16832
      20     H     0.45455  0.45455  0.00000  0.09090
      21     H     0.45370  0.45370  0.00000  0.09260
      22     C     3.14965  3.14965  0.00000 -0.29929
      23     H     0.45390  0.45390  0.00000  0.09219
      24     H     0.45467  0.45467  0.00000  0.09065
      25     H     0.45505  0.45505  0.00000  0.08990
      26     H     0.44827  0.44827  0.00000  0.10345
      27     H     0.45539  0.45539  0.00000  0.08922

   Total alpha = 37.00000, Total beta = 37.00000, Total charge = -0.00000

*** Psi4 exiting successfully. Buy a developer a beer!
