  ==> Input File <==

--------------------------------------------------------------------------
set {
	reference rhf
	basis cc-pvtz
}

set_num_threads( 4 )
memory 2 gb

molecule MOL {
0 1

H	 -3.034039	 -0.667848	 0.004703
O	 -2.240597	 -1.171748	 0.000934
C	 -1.159675	 -0.364500	 0.000370
C	 -1.168837	 0.885199	 0.585674
C	 -0.014131	 -0.838021	 -0.620566
H	 -2.056374	 1.255054	 1.065825
C	 -0.019904	 1.656069	 0.541614
H	 -0.040921	 -1.812768	 -1.067877
C	 1.131397	 -0.068952	 -0.661499
H	 -0.024079	 2.630117	 0.993262
C	 1.120744	 1.192082	 -0.073563
C	 2.384453	 -0.593490	 -1.315987
H	 2.002481	 1.803835	 -0.101112
H	 2.856424	 0.171004	 -1.920648
H	 2.171722	 -1.443217	 -1.950382
H	 3.103262	 -0.908620	 -0.567222

	symmetry c1
}
set optking {
	frozen_dihedral = ("
		5 3 2 1
	")
}

ee = optimize('scf')
oeprop('DIPOLE', 'QUADRUPOLE', 'MULLIKEN_CHARGES')
f=open( 'psi4out.xyz', 'w' )
f.write( "16  " )
f.write( str(ee) + "\n" )
f.write( MOL.save_string_xyz() )
f.close()
--------------------------------------------------------------------------

    Molecular point group: c1
  Charge       = 0
  Multiplicity = 1
  Basis Set: CC-PVTZ
  Basis Set:
  @DF-RHF Final Energy:  -344.71950746297392
    Total Energy =                       -344.7195074629734677
    Molecular point group: c1
  Basis Set: CC-PVTZ
  Basis Set:
  Basis Set: CC-PVTZ
  Basis Set:
  @DF-RHF Final Energy:  -344.71955455423625
    Total Energy =                       -344.7195545542361401
  Basis Set: CC-PVTZ
  Basis Set:
  Basis Set: CC-PVTZ
  Basis Set:
  @DF-RHF Final Energy:  -344.71956254056960
    Total Energy =                       -344.7195625405698820
  Basis Set: CC-PVTZ
  Basis Set:
  Charge       = 0
  Multiplicity = 1
  Basis Set: CC-PVTZ
  Basis Set:

    Orbital Energies (a.u.)
    -----------------------

    Doubly Occupied:

       1A    -20.579299     2A    -11.293004     3A    -11.240479
       4A    -11.232524     5A    -11.219836     6A    -11.219231
       7A    -11.214747     8A    -11.214322     9A     -1.409018
      10A     -1.154319    11A     -1.046358    12A     -1.008380
      13A     -0.938676    14A     -0.827230    15A     -0.824759
      16A     -0.717841    17A     -0.683522    18A     -0.657763
      19A     -0.616251    20A     -0.595335    21A     -0.575879
      22A     -0.571128    23A     -0.560692    24A     -0.530260
      25A     -0.507053    26A     -0.484987    27A     -0.471666
      28A     -0.333317    29A     -0.313344

  @DF-RHF Final Energy:  -344.71956352896484

   => Energetics <=

    Nuclear Repulsion Energy =            346.2669205769720975
    One-Electron Energy =               -1153.8905236221789892
    Two-Electron Energy =                 462.9040395162421646
    DFT Exchange-Correlation Energy =       0.0000000000000000
    Empirical Dispersion Energy =           0.0000000000000000
    PCM Polarization Energy =               0.0000000000000000
    EFP Energy =                            0.0000000000000000
    Total Energy =                       -344.7195635289647271
    Molecular point group: c1
  Basis Set: CC-PVTZ
  Basis Set:

  -Total Gradient:
     Atom            X                  Y                   Z
    ------   -----------------  -----------------  -----------------
       1        0.000014765925     0.000024398364    -0.002583535518
       2       -0.000289922412     0.000254454389     0.002447630795
       3        0.000831296185    -0.000908709750     0.001755141448
       4       -0.000052175498    -0.000130947716    -0.000027558779
       5       -0.000456130042     0.000791032749    -0.001601966949
       6        0.000008458338    -0.000001615665     0.000005025277
       7        0.000170053829     0.000038685837    -0.000019976084
       8       -0.000016222758    -0.000017984184    -0.000023953200
       9       -0.000053532828    -0.000206019348     0.000003444578
      10       -0.000017886792     0.000006816605    -0.000014562688
      11       -0.000120798044     0.000123674362     0.000064813541
      12       -0.000013654218     0.000018098626    -0.000003802667
      13        0.000010213231    -0.000003940014     0.000006269894
      14       -0.000000807990     0.000003848725    -0.000013929001
      15       -0.000000580291    -0.000008186720     0.000005195073
      16       -0.000013076637     0.000016393735     0.000001764280

  **** Optimization is complete! (in 4 steps) ****
    Final optimized geometry and variables:
    Molecular point group: c1

    Geometry (in Angstrom), charge = 0, multiplicity = 1:

    H           -3.003254820746    -0.710090539150     0.221517754661
    O           -2.211585548653    -1.216929060184     0.214396677624
    C           -1.125243111208    -0.408392941733     0.202669313558
    C           -1.136484454349     0.841730253023     0.786873062678
    C            0.017706092739    -0.879245434685    -0.421759393748
    H           -2.022421014019     1.203646340342     1.274873162067
    C            0.010361968085     1.614606660429     0.740701474142
    H           -0.011553963902    -1.850881966837    -0.875729213906
    C            1.167021712705    -0.113289583004    -0.455678235383
    H            0.005872855469     2.589590900534     1.190261435474
    C            1.153334128108     1.147573800258     0.130140079458
    C            2.420688296670    -0.637742149941    -1.109056698972
    H            2.035296280258     1.759317345588     0.104615235800
    H            2.897477894848     0.128217144650    -1.708076882193
    H            2.207223487687    -1.483382290833    -1.748753729557
    H            3.135827579313    -0.959921370246    -0.359763712682

  Mulliken Charges: (a.u.)
   Center  Symbol    Alpha    Beta     Spin     Total
       1     H     0.38590  0.38590  0.00000  0.22819
       2     O     4.18052  4.18052  0.00000 -0.36104
       3     C     2.84495  2.84495  0.00000  0.31011
       4     C     3.14324  3.14324  0.00000 -0.28647
       5     C     3.13984  3.13984  0.00000 -0.27968
       6     H     0.43042  0.43042  0.00000  0.13915
       7     C     3.05810  3.05810  0.00000 -0.11620
       8     H     0.42113  0.42113  0.00000  0.15773
       9     C     2.93725  2.93725  0.00000  0.12550
      10     H     0.42288  0.42288  0.00000  0.15424
      11     C     3.11622  3.11622  0.00000 -0.23243
      12     C     3.14618  3.14618  0.00000 -0.29237
      13     H     0.42768  0.42768  0.00000  0.14464
      14     H     0.44865  0.44865  0.00000  0.10271
      15     H     0.45033  0.45033  0.00000  0.09934
      16     H     0.44671  0.44671  0.00000  0.10658

   Total alpha = 29.00000, Total beta = 29.00000, Total charge = -0.00000
