  ==> Input File <==

--------------------------------------------------------------------------
set {
	reference rhf
	basis 6-31G*
}

set_num_threads( 4 )
memory 2 gb

molecule MOL {
0 1

O	 -0.682937	 1.318834	 -0.186099
C	 -0.860635	 0.152188	 -0.042321
C	 -2.173363	 -0.477127	 0.338347
O	 0.083258	 -0.765189	 -0.202595
H	 -2.477673	 -1.180929	 -0.427595
H	 -2.923125	 0.290956	 0.455536
H	 -2.058825	 -1.029004	 1.264191
C	 1.391937	 -0.334737	 -0.569838
C	 1.634346	 1.109757	 -0.173199
H	 1.528015	 -0.478372	 -1.630966
H	 2.055634	 -0.999549	 -0.035956
H	 2.660784	 1.384441	 -0.396144
H	 0.977971	 1.775297	 -0.719638
H	 1.468306	 1.246417	 0.889896

	symmetry c1
}
set optking {
	frozen_dihedral = ("
		10 8 4 2
	")
}

ee = optimize('scf')
oeprop('DIPOLE', 'QUADRUPOLE', 'MULLIKEN_CHARGES')
f=open( 'psi4out.xyz', 'w' )
f.write( "14  " )
f.write( str(ee) + "\n" )
f.write( MOL.save_string_xyz() )
f.close()
--------------------------------------------------------------------------

    Molecular point group: c1
  Charge       = 0
  Multiplicity = 1
  Basis Set: 6-31G*
  Basis Set:
  @DF-RHF Final Energy:  -305.84148285089447
    Total Energy =                       -305.8414828508944083
    Molecular point group: c1
  Basis Set: 6-31G*
  Basis Set:
  Basis Set: 6-31G*
  Basis Set:
  @DF-RHF Final Energy:  -305.86087293229320
    Total Energy =                       -305.8608729322931481
  Basis Set: 6-31G*
  Basis Set:
  Basis Set: 6-31G*
  Basis Set:
  @DF-RHF Final Energy:  -305.86453095738705
    Total Energy =                       -305.8645309573873874
  Basis Set: 6-31G*
  Basis Set:
  Basis Set: 6-31G*
  Basis Set:
  @DF-RHF Final Energy:  -305.85983723877314
    Total Energy =                       -305.8598372387733662
  Basis Set: 6-31G*
  Basis Set:
  @DF-RHF Final Energy:  -305.86605388934925
    Total Energy =                       -305.8660538893491321
  Basis Set: 6-31G*
  Basis Set:
  @DF-RHF Final Energy:  -305.86626017440040
    Total Energy =                       -305.8662601744004519
  Basis Set: 6-31G*
  Basis Set:
  Basis Set: 6-31G*
  Basis Set:
  @DF-RHF Final Energy:  -305.86628236555111
    Total Energy =                       -305.8662823655509442
  Basis Set: 6-31G*
  Basis Set:
  Basis Set: 6-31G*
  Basis Set:
  @DF-RHF Final Energy:  -305.86628751323462
    Total Energy =                       -305.8662875132347381
  Basis Set: 6-31G*
  Basis Set:
  Charge       = 0
  Multiplicity = 1
  Basis Set: 6-31G*
  Basis Set:

    Orbital Energies (a.u.)
    -----------------------

    Doubly Occupied:

       1A    -20.599622     2A    -20.541375     3A    -11.375748
       4A    -11.291140     5A    -11.230954     6A    -11.216809
       7A     -1.462031     8A     -1.362154     9A     -1.055241
      10A     -0.996850    11A     -0.892858    12A     -0.749542
      13A     -0.691341    14A     -0.680298    15A     -0.666885
      16A     -0.612004    17A     -0.587263    18A     -0.569340
      19A     -0.548371    20A     -0.534694    21A     -0.512867
      22A     -0.496431    23A     -0.445877    24A     -0.430358

  @DF-RHF Final Energy:  -305.86628800170740

   => Energetics <=

    Nuclear Repulsion Energy =            249.0744342256735990
    One-Electron Energy =                -910.7813389362082717
    Two-Electron Energy =                 355.8406167088276106
    DFT Exchange-Correlation Energy =       0.0000000000000000
    Empirical Dispersion Energy =           0.0000000000000000
    PCM Polarization Energy =               0.0000000000000000
    EFP Energy =                            0.0000000000000000
    Total Energy =                       -305.8662880017070620
    Molecular point group: c1
  Basis Set: 6-31G*
  Basis Set:

  -Total Gradient:
     Atom            X                  Y                   Z
    ------   -----------------  -----------------  -----------------
       1       -0.000033026155     0.000019898737    -0.000013831342
       2        0.001001082919     0.000353352081     0.004887391014
       3        0.000030792315     0.000007830083     0.000051032799
       4       -0.001218956964    -0.001653778519    -0.007192587552
       5       -0.000009877370     0.000000054429    -0.000023815394
       6        0.000004834949     0.000004171172    -0.000011351546
       7        0.000000303037    -0.000013475006    -0.000015446251
       8       -0.001537332987     0.006163487045     0.001397952407
       9        0.000015017905    -0.000011344753    -0.000000919137
      10        0.001731098617    -0.004868057149     0.000945138794
      11        0.000009647162     0.000014566742     0.000001935612
      12        0.000016244931     0.000005273290     0.000005297277
      13       -0.000003505393     0.000002330137    -0.000018513050
      14       -0.000006322962    -0.000024308289    -0.000012283630

  **** Optimization is complete! (in 9 steps) ****
    Final optimized geometry and variables:
    Molecular point group: c1

    Geometry (in Angstrom), charge = 0, multiplicity = 1:

    O           -0.826177758615     1.138178180330    -0.193861494809
    C           -0.841042872365    -0.022571748916     0.058394308835
    C           -2.047015634563    -0.762637357403     0.576059527864
    O            0.179393188994    -0.852229926376    -0.095763963668
    H           -2.300098868002    -1.569835878263    -0.101425837994
    H           -2.878760448252    -0.079973431461     0.666212798548
    H           -1.820901065557    -1.202854328356     1.540404092301
    C            1.516715682206    -0.449441038094    -0.403888911379
    C            1.972742466721     0.927172173320     0.050821604706
    H            1.662716941206    -0.601141546021    -1.466103859133
    H            2.113939495979    -1.200405575592     0.095620067856
    H            3.050600133986     0.969433675581    -0.079298544424
    H            1.518760649092     1.726590983682    -0.511405029689
    H            1.757921133717     1.081067328453     1.102141307667

  Mulliken Charges: (a.u.)
   Center  Symbol    Alpha    Beta     Spin     Total
       1     O     4.28274  4.28274  0.00000 -0.56548
       2     C     2.61888  2.61888  0.00000  0.76225
       3     C     3.28067  3.28067  0.00000 -0.56135
       4     O     4.31493  4.31493  0.00000 -0.62987
       5     H     0.40060  0.40060  0.00000  0.19881
       6     H     0.39794  0.39794  0.00000  0.20412
       7     H     0.40213  0.40213  0.00000  0.19574
       8     C     2.99283  2.99283  0.00000  0.01435
       9     C     3.25753  3.25753  0.00000 -0.51506
      10     H     0.41354  0.41354  0.00000  0.17293
      11     H     0.41158  0.41158  0.00000  0.17684
      12     H     0.42017  0.42017  0.00000  0.15965
      13     H     0.39254  0.39254  0.00000  0.21492
      14     H     0.41392  0.41392  0.00000  0.17215

   Total alpha = 24.00000, Total beta = 24.00000, Total charge =  0.00000
