  ==> Input File <==

--------------------------------------------------------------------------
set {
	reference rhf
	basis cc-pvtz
}

set_num_threads( 4 )
memory 2 gb

molecule MOL {
0 1

H	 -2.543956	 -0.781976	 -0.207125
O	 -2.321081	 -0.207601	 0.502326
C	 -1.171029	 0.526351	 0.187947
C	 0.074189	 -0.335341	 0.256591
H	 -1.244471	 0.981778	 -0.794560
H	 -1.097324	 1.323494	 0.913765
O	 1.172093	 0.457955	 -0.054438
H	 -0.008890	 -1.166070	 -0.446178
H	 0.167948	 -0.759829	 1.253884
C	 2.395478	 -0.199028	 -0.000366
H	 2.505946	 -0.901710	 -0.823354
H	 3.174616	 0.545641	 -0.071768
H	 2.513730	 -0.742241	 0.934223

	symmetry c1
}
set optking {
	frozen_dihedral = ("
		4 7 10 13
	")
}

ee = optimize('scf')
oeprop('DIPOLE', 'QUADRUPOLE', 'MULLIKEN_CHARGES')
f=open( 'psi4out.xyz', 'w' )
f.write( "13  " )
f.write( str(ee) + "\n" )
f.write( MOL.save_string_xyz() )
f.close()
--------------------------------------------------------------------------

    Molecular point group: c1
  Charge       = 0
  Multiplicity = 1
  Basis Set: CC-PVTZ
  Basis Set:
  @DF-RHF Final Energy:  -268.06203816612390
    Total Energy =                       -268.0620381661237843
    Molecular point group: c1
  Basis Set: CC-PVTZ
  Basis Set:
  Basis Set: CC-PVTZ
  Basis Set:
  @DF-RHF Final Energy:  -268.06204869794965
    Total Energy =                       -268.0620486979496491
  Basis Set: CC-PVTZ
  Basis Set:
  Charge       = 0
  Multiplicity = 1
  Basis Set: CC-PVTZ
  Basis Set:

    Orbital Energies (a.u.)
    -----------------------

    Doubly Occupied:

       1A    -20.555858     2A    -20.552903     3A    -11.269399
       4A    -11.267828     5A    -11.267501     6A     -1.391813
       7A     -1.369251     8A     -1.019767     9A     -0.914064
      10A     -0.842916    11A     -0.712160    12A     -0.676066
      13A     -0.663014    14A     -0.639824    15A     -0.597197
      16A     -0.571864    17A     -0.546602    18A     -0.492072
      19A     -0.483236    20A     -0.441730    21A     -0.424247

  @DF-RHF Final Energy:  -268.06205063076732

   => Energetics <=

    Nuclear Repulsion Energy =            190.4834142552815592
    One-Electron Energy =                -743.6923102508596912
    Two-Electron Energy =                 285.1468453648109289
    DFT Exchange-Correlation Energy =       0.0000000000000000
    Empirical Dispersion Energy =           0.0000000000000000
    PCM Polarization Energy =               0.0000000000000000
    EFP Energy =                            0.0000000000000000
    Total Energy =                       -268.0620506307672031
    Molecular point group: c1
  Basis Set: CC-PVTZ
  Basis Set:

  -Total Gradient:
     Atom            X                  Y                   Z
    ------   -----------------  -----------------  -----------------
       1       -0.000007431756    -0.000006783278    -0.000001419642
       2        0.000029415881    -0.000009977396    -0.000020614638
       3        0.000019234519     0.000033696127     0.000000314965
       4        0.000091931444     0.000239119390     0.001170086499
       5       -0.000016454620     0.000002066597    -0.000003056993
       6        0.000012682109     0.000002666346    -0.000003174485
       7       -0.000353068817    -0.000694417613    -0.001776963083
       8       -0.000002653968     0.000006717910    -0.000006387884
       9        0.000006546339     0.000002139388    -0.000009004021
      10        0.000798214214     0.001565440902     0.001263625899
      11        0.000007716010     0.000008477772     0.000032571826
      12        0.000005562816     0.000026160643    -0.000009867641
      13       -0.000591694168    -0.001175306788    -0.000636110801

  **** Optimization is complete! (in 3 steps) ****
    Final optimized geometry and variables:
    Molecular point group: c1

    Geometry (in Angstrom), charge = 0, multiplicity = 1:

    H           -2.552327417952    -0.815477100991    -0.383265891820
    O           -2.330888918568    -0.239280642949     0.325182885994
    C           -1.180511287546     0.494210202170     0.010958271391
    C            0.064515490757    -0.367445710330     0.082752745151
    H           -1.252989344289     0.948142017899    -0.972298607250
    H           -1.107283429449     1.292414560702     0.735679211891
    O            1.163009827754     0.427017595410    -0.222823231794
    H           -0.017420023046    -1.197646961427    -0.621104148135
    H            0.156052291040    -0.792581704044     1.079701545741
    C            2.387676906623    -0.228974333746    -0.175008431961
    H            2.491156488974    -0.932125754062    -0.998763371436
    H            3.167744187616     0.514088424819    -0.251189873333
    H            2.508466812207    -0.779340078431     0.754713539450

  Mulliken Charges: (a.u.)
   Center  Symbol    Alpha    Beta     Spin     Total
       1     H     0.39411  0.39411  0.00000  0.21178
       2     O     4.20211  4.20211  0.00000 -0.40421
       3     C     2.97352  2.97352  0.00000  0.05296
       4     C     2.96527  2.96527  0.00000  0.06946
       5     H     0.46666  0.46666  0.00000  0.06668
       6     H     0.45276  0.45276  0.00000  0.09447
       7     O     4.17578  4.17578  0.00000 -0.35155
       8     H     0.48288  0.48288  0.00000  0.03424
       9     H     0.46860  0.46860  0.00000  0.06279
      10     C     3.03160  3.03160  0.00000 -0.06320
      11     H     0.46918  0.46918  0.00000  0.06164
      12     H     0.44609  0.44609  0.00000  0.10782
      13     H     0.47144  0.47144  0.00000  0.05711

   Total alpha = 21.00000, Total beta = 21.00000, Total charge =  0.00000
