  ==> Input File <==

--------------------------------------------------------------------------
set {
	reference rhf
	basis 6-31G*
}

set_num_threads( 4 )
memory 2 gb

molecule MOL {
0 1

H	 1.892397	 -0.630110	 -2.422138
C	 1.165716	 -0.850436	 -1.648627
C	 1.322923	 0.120767	 -0.479465
H	 0.177548	 -0.779529	 -2.092327
H	 1.319592	 -1.877538	 -1.332435
C	 0.306652	 -0.176050	 0.621399
H	 1.182551	 1.141180	 -0.820757
H	 2.320741	 0.049926	 -0.062809
N	 -1.068537	 -0.011044	 0.085269
H	 0.372515	 -1.192590	 0.973735
H	 0.391664	 0.520566	 1.441230
O	 -1.656956	 -0.997225	 -0.235017
O	 -1.478635	 1.104830	 -0.018026

	symmetry c1
}
set optking {
	frozen_dihedral = ("
		7 3 6 9
	")
}

ee = optimize('scf')
oeprop('DIPOLE', 'QUADRUPOLE', 'MULLIKEN_CHARGES')
f=open( 'psi4out.xyz', 'w' )
f.write( "13  " )
f.write( str(ee) + "\n" )
f.write( MOL.save_string_xyz() )
f.close()
--------------------------------------------------------------------------

    Molecular point group: c1
  Charge       = 0
  Multiplicity = 1
  Basis Set: 6-31G*
  Basis Set:
  @DF-RHF Final Energy:  -321.73457676107716
    Total Energy =                       -321.7345767610770508
    Molecular point group: c1
  Basis Set: 6-31G*
  Basis Set:
  Basis Set: 6-31G*
  Basis Set:
  @DF-RHF Final Energy:  -321.73346113245702
    Total Energy =                       -321.7334611324570233
  Basis Set: 6-31G*
  Basis Set:
  Basis Set: 6-31G*
  Basis Set:
  @DF-RHF Final Energy:  -321.73221759054917
    Total Energy =                       -321.7322175905492827
  Basis Set: 6-31G*
  Basis Set:
  Basis Set: 6-31G*
  Basis Set:
  @DF-RHF Final Energy:  -321.73446329370984
    Total Energy =                       -321.7344632937098368
  Basis Set: 6-31G*
  Basis Set:
  @DF-RHF Final Energy:  -321.73432897586633
    Total Energy =                       -321.7343289758661058
  @DF-RHF Final Energy:  -321.73556507307302
    Total Energy =                       -321.7355650730728485
  @DF-RHF Final Energy:  -321.73560520657747
    Total Energy =                       -321.7356052065775884
  @DF-RHF Final Energy:  -321.73562976764487
    Total Energy =                       -321.7356297676450367
  Basis Set: 6-31G*
  Basis Set:
  @DF-RHF Final Energy:  -321.73565611597365
    Total Energy =                       -321.7356561159737112
  Basis Set: 6-31G*
  Basis Set:
  Basis Set: 6-31G*
  Basis Set:
  @DF-RHF Final Energy:  -321.73566295126443
    Total Energy =                       -321.7356629512643735
  Basis Set: 6-31G*
  Basis Set:
  Basis Set: 6-31G*
  Basis Set:
  @DF-RHF Final Energy:  -321.73566406936379
    Total Energy =                       -321.7356640693637928
  Basis Set: 6-31G*
  Basis Set:
  Charge       = 0
  Multiplicity = 1
  Basis Set: 6-31G*
  Basis Set:

    Orbital Energies (a.u.)
    -----------------------

    Doubly Occupied:

       1A    -20.603628     2A    -20.599193     3A    -15.847302
       4A    -11.299547     5A    -11.255074     6A    -11.232026
       7A     -1.631223     8A     -1.416613     9A     -1.134139
      10A     -1.021943    11A     -0.894229    12A     -0.822008
      13A     -0.757961    14A     -0.737857    15A     -0.724716
      16A     -0.651131    17A     -0.618934    18A     -0.595188
      19A     -0.532243    20A     -0.518596    21A     -0.513434
      22A     -0.484281    23A     -0.474033    24A     -0.449011

  @DF-RHF Final Energy:  -321.73566422361290

   => Energetics <=

    Nuclear Repulsion Energy =            252.8573680676403796
    One-Electron Energy =                -939.5574444890316954
    Two-Electron Energy =                 364.9644121977784152
    DFT Exchange-Correlation Energy =       0.0000000000000000
    Empirical Dispersion Energy =           0.0000000000000000
    PCM Polarization Energy =               0.0000000000000000
    EFP Energy =                            0.0000000000000000
    Total Energy =                       -321.7356642236128437
    Molecular point group: c1
  Basis Set: 6-31G*
  Basis Set:

  -Total Gradient:
     Atom            X                  Y                   Z
    ------   -----------------  -----------------  -----------------
       1        0.000003464222     0.000003584209    -0.000000302603
       2       -0.000004387201    -0.000002067570     0.000006387051
       3        0.000209946095     0.000174584632     0.000239911897
       4       -0.000000809969     0.000000195026     0.000002764729
       5       -0.000000328358    -0.000000282190     0.000000459500
       6       -0.000038887723    -0.000271682430    -0.000101505415
       7       -0.000174467243    -0.000075108065    -0.000190106912
       8       -0.000008981854    -0.000005596915    -0.000001157553
       9        0.000019817123     0.000115712163     0.000068277151
      10       -0.000005744255    -0.000002165577    -0.000001220785
      11        0.000003196896     0.000001588384    -0.000003749018
      12        0.000007306070     0.000030174971    -0.000006974815
      13       -0.000010123803     0.000031063362    -0.000012783225

  **** Optimization is complete! (in 12 steps) ****
    Final optimized geometry and variables:
    Molecular point group: c1

    Geometry (in Angstrom), charge = 0, multiplicity = 1:

    H            2.255310552089    -0.452306225269    -2.155773363042
    C            1.489406718307    -0.692560027932    -1.426893676241
    C            1.586424199884     0.250063799782    -0.227548502078
    H            0.527959748986    -0.610306945766    -1.922400729033
    H            1.624808441006    -1.727314294930    -1.128121477427
    C            0.580879167489    -0.062921739027     0.876452880850
    H            1.452248300193     1.277838806306    -0.540988469541
    H            2.572487827078     0.177962785807     0.221080344693
    N           -0.812721694656     0.121096628129     0.387434920214
    H            0.642260740670    -1.082446521328     1.220001000154
    H            0.682684408711     0.621140787397     1.706637137162
    O           -1.525466733140    -0.833647658904     0.370606559105
    O           -1.121251602240     1.219943655186     0.037679393402

  Mulliken Charges: (a.u.)
   Center  Symbol    Alpha    Beta     Spin     Total
       1     H     0.41012  0.41012  0.00000  0.17977
       2     C     3.24864  3.24864  0.00000 -0.49727
       3     C     3.17306  3.17306  0.00000 -0.34613
       4     H     0.40618  0.40618  0.00000  0.18764
       5     H     0.41505  0.41505  0.00000  0.16989
       6     C     3.09255  3.09255  0.00000 -0.18510
       7     H     0.39484  0.39484  0.00000  0.21031
       8     H     0.40788  0.40788  0.00000  0.18424
       9     N     3.22159  3.22159  0.00000  0.55683
      10     H     0.38665  0.38665  0.00000  0.22670
      11     H     0.38624  0.38624  0.00000  0.22752
      12     O     4.22694  4.22694  0.00000 -0.45388
      13     O     4.23027  4.23027  0.00000 -0.46054

   Total alpha = 24.00000, Total beta = 24.00000, Total charge =  0.00000
