                              Psi4 1.0.54 Driver

  ==> Input File <==

--------------------------------------------------------------------------
set {
	reference rhf
	basis cc-pvtz
}

set_num_threads( 4 )
memory 2 gb

molecule MOL {
0 1

H	 2.614283	 2.028610	 0.296620
O	 3.358864	 1.662087	 -0.142800
C	 3.565468	 0.338079	 0.273842
C	 2.533667	 -0.637565	 -0.272227
H	 4.548038	 0.064914	 -0.086598
H	 3.593945	 0.282242	 1.360360
C	 1.114816	 -0.402372	 0.240993
H	 2.544552	 -0.580764	 -1.356576
H	 2.850574	 -1.642962	 -0.005497
C	 0.113298	 -1.420414	 -0.302504
H	 0.796373	 0.598427	 -0.031033
H	 1.113377	 -0.446476	 1.328807
C	 0.735675	 -2.683193	 -0.901077
H	 -0.575962	 -1.701202	 0.490154
H	 -0.487862	 -0.938004	 -1.068242
C	 1.443794	 -3.592709	 0.101465
H	 -0.050857	 -3.252765	 -1.388399
H	 1.433683	 -2.401275	 -1.686228
C	 1.960486	 -4.885029	 -0.525709
H	 0.757726	 -3.837118	 0.909576
H	 2.277333	 -3.067826	 0.558318
C	 2.671327	 -5.793741	 0.471708
H	 1.129906	 -5.423198	 -0.974140
H	 2.639546	 -4.642521	 -1.338808
H	 2.008336	 -6.080562	 1.281285
H	 3.022597	 -6.701800	 -0.004889
H	 3.530641	 -5.297409	 0.910555

	symmetry c1
}
set optking {
	frozen_dihedral = ("
		14 10 7 4
	")
}

ee,wfn = optimize('scf', return_wfn=True)
oeprop( wfn, 'DIPOLE', 'QUADRUPOLE', 'MULLIKEN_CHARGES')
f=open( 'psi4out.xyz', 'w' )
f.write( "27  " )
f.write( str(ee) + "\n" )
f.write( MOL.save_string_xyz() )
f.close()
--------------------------------------------------------------------------

    Molecular point group: c1
  Charge       = 0
  Multiplicity = 1
  Basis Set: CC-PVTZ
  Basis Set:
  @DF-RHF Final Energy:  -388.40965847801726
    Total Energy =                       -388.4096584780177182
    Molecular point group: c1
  Basis Set: CC-PVTZ
  Basis Set:
  Basis Set: CC-PVTZ
  Basis Set:
  @DF-RHF Final Energy:  -388.41701959947062
    Total Energy =                       -388.4170195994714732
  Basis Set: CC-PVTZ
  Basis Set:
  Basis Set: CC-PVTZ
  Basis Set:
  @DF-RHF Final Energy:  -388.41771560116752
    Total Energy =                       -388.4177156011672878
  Basis Set: CC-PVTZ
  Basis Set:
  Basis Set: CC-PVTZ
  Basis Set:
  @DF-RHF Final Energy:  -388.41854982136346
    Total Energy =                       -388.4185498213628307
  Basis Set: CC-PVTZ
  Basis Set:
  Basis Set: CC-PVTZ
  Basis Set:
  @DF-RHF Final Energy:  -388.41858609917438
    Total Energy =                       -388.4185860991742629
  Basis Set: CC-PVTZ
  Basis Set:
  Basis Set: CC-PVTZ
  Basis Set:
  @DF-RHF Final Energy:  -388.41859315872085
    Total Energy =                       -388.4185931587209097
  Basis Set: CC-PVTZ
  Basis Set:
  Basis Set: CC-PVTZ
  Basis Set:
  @DF-RHF Final Energy:  -388.41859639669690
    Total Energy =                       -388.4185963966968984
  Basis Set: CC-PVTZ
  Basis Set:
  Charge       = 0
  Multiplicity = 1
  Basis Set: CC-PVTZ
  Basis Set:

    Orbital Energies (a.u.)
    -----------------------

    Doubly Occupied:

       1A    -20.545348     2A    -11.265185     3A    -11.218065
       4A    -11.215372     5A    -11.213861     6A    -11.213041
       7A    -11.212166     8A    -11.211537     9A    -11.207486
      10A     -1.363351    11A     -1.094443    12A     -1.059777
      13A     -1.010422    14A     -0.951250    15A     -0.888096
      16A     -0.834338    17A     -0.798382    18A     -0.764260
      19A     -0.697760    20A     -0.656249    21A     -0.637800
      22A     -0.615797    23A     -0.604423    24A     -0.585474
      25A     -0.570005    26A     -0.555669    27A     -0.549452
      28A     -0.523284    29A     -0.516911    30A     -0.490925
      31A     -0.487581    32A     -0.477857    33A     -0.468044
      34A     -0.456275    35A     -0.446900    36A     -0.437458
      37A     -0.428249

  @DF-RHF Final Energy:  -388.41859676642054

   => Energetics <=

    Nuclear Repulsion Energy =            469.1092804842396049
    One-Electron Energy =               -1456.5107688920415967
    Two-Electron Energy =                 598.9828916413816842
    DFT Exchange-Correlation Energy =       0.0000000000000000
    Empirical Dispersion Energy =           0.0000000000000000
    PCM Polarization Energy =               0.0000000000000000
    EFP Energy =                            0.0000000000000000
    Total Energy =                       -388.4185967664202508
    Molecular point group: c1
  Basis Set: CC-PVTZ
  Basis Set:

  -Total Gradient:
     Atom            X                  Y                   Z
    ------   -----------------  -----------------  -----------------
       1        0.000008761307    -0.000000070458    -0.000003000619
       2        0.000007718148     0.000018986480     0.000001351719
       3       -0.000024759569    -0.000024114780     0.000007626442
       4        0.001388341623    -0.003347610681     0.004068668839
       5        0.000003457993     0.000002320669     0.000005580433
       6        0.000007211530     0.000016816459     0.000007996735
       7       -0.001055272878     0.003633040554    -0.005611420497
       8        0.000001658459     0.000016003965     0.000004619285
       9       -0.000028650616     0.000043115999    -0.000023992814
      10       -0.004891356844     0.004962847114     0.000118790933
      11        0.000012875556    -0.000007821470    -0.000007156915
      12        0.000013826806     0.000013171178     0.000000973977
      13       -0.000029187145    -0.000021292988     0.000012076456
      14        0.004547466719    -0.005307728521     0.001428484155
      15       -0.000015247836     0.000028474764    -0.000002205189
      16        0.000065708317     0.000037442970    -0.000036195234
      17        0.000016862353    -0.000012886915    -0.000005247978
      18        0.000001067271    -0.000006654338     0.000035478911
      19        0.000013433987     0.000050441276     0.000051721507
      20       -0.000007852891     0.000017709407    -0.000006147364
      21       -0.000043332954    -0.000049793591    -0.000042965381
      22       -0.000003611382    -0.000046877952    -0.000013104389
      23        0.000005074202     0.000001339912     0.000002741698
      24        0.000003429631    -0.000007255021     0.000011717961
      25        0.000000543547     0.000007978557    -0.000002842472
      26        0.000003591031    -0.000024611469     0.000012124616
      27       -0.000001756359     0.000007028883    -0.000015674817

  **** Optimization is complete! (in 8 steps) ****
    Final optimized geometry and variables:
    Molecular point group: c1

    Geometry (in Angstrom), charge = 0, multiplicity = 1:

    H            0.624416752163     4.039989711670     0.358314249957
    O            1.374106346107     3.736847762422    -0.118622821369
    C            1.700220138544     2.428081019592     0.267639036580
    C            0.738313070577     1.375792688658    -0.266614480076
    H            2.690460762227     2.242477833754    -0.126160306779
    H            1.766448085471     2.357737247254     1.351708777023
    C           -0.670734954679     1.499144315181     0.314124511391
    H            0.712507965804     1.460510503295    -1.348699042190
    H            1.157012035357     0.403678920090    -0.035307744955
    C           -1.730332187337     0.468202428429    -0.152203337841
    H           -1.057248460731     2.490329310833     0.104032680068
    H           -0.580098636426     1.439076050676     1.395999258890
    C           -1.222777876242    -0.850923948181    -0.751800049925
    H           -2.329676275061     0.188395902153     0.708133864165
    H           -2.390169727598     0.938564307888    -0.871233226910
    C           -0.678211948577    -1.840183506017     0.278351291064
    H           -2.055821418907    -1.324061185881    -1.264080399729
    H           -0.475415684766    -0.663169818299    -1.514876131513
    C           -0.148502286688    -3.128936136526    -0.344266152583
    H           -1.470852046677    -2.083924454238     0.982186122697
    H            0.110726843978    -1.380129401311     0.865933344899
    C            0.358015615496    -4.131356441925     0.687527494884
    H           -0.934004535286    -3.589077538787    -0.937575745435
    H            0.653712874154    -2.889441543895    -1.036991776708
    H           -0.431238381047    -4.418612995219     1.374349547554
    H            0.726348027572    -5.033164904304     0.212042563638
    H            1.168845760686    -3.712981563385     1.274806596174

  Mulliken Charges: (a.u.)
   Center  Symbol    Alpha    Beta     Spin     Total
       1     H     0.39262  0.39262  0.00000  0.21476
       2     O     4.20570  4.20570  0.00000 -0.41140
       3     C     2.97832  2.97832  0.00000  0.04337
       4     C     3.09419  3.09419  0.00000 -0.18839
       5     H     0.44833  0.44833  0.00000  0.10333
       6     H     0.46977  0.46977  0.00000  0.06046
       7     C     3.11396  3.11396  0.00000 -0.22792
       8     H     0.44938  0.44938  0.00000  0.10125
       9     H     0.45225  0.45225  0.00000  0.09550
      10     C     3.10053  3.10053  0.00000 -0.20106
      11     H     0.45056  0.45056  0.00000  0.09889
      12     H     0.45068  0.45068  0.00000  0.09864
      13     C     3.11003  3.11003  0.00000 -0.22007
      14     H     0.45148  0.45148  0.00000  0.09704
      15     H     0.44389  0.44389  0.00000  0.11221
      16     C     3.09003  3.09003  0.00000 -0.18006
      17     H     0.44288  0.44288  0.00000  0.11425
      18     H     0.44833  0.44833  0.00000  0.10334
      19     C     3.08440  3.08440  0.00000 -0.16881
      20     H     0.45141  0.45141  0.00000  0.09717
      21     H     0.45478  0.45478  0.00000  0.09044
      22     C     3.14991  3.14991  0.00000 -0.29982
      23     H     0.45386  0.45386  0.00000  0.09228
      24     H     0.45395  0.45395  0.00000  0.09209
      25     H     0.45507  0.45507  0.00000  0.08987
      26     H     0.44814  0.44814  0.00000  0.10373
      27     H     0.45553  0.45553  0.00000  0.08894

   Total alpha = 37.00000, Total beta = 37.00000, Total charge = -0.00000

*** Psi4 exiting successfully. Buy a developer a beer!
