  ==> Input File <==

--------------------------------------------------------------------------
set {
	reference rhf
	basis 6-31G*
}

set_num_threads( 4 )
memory 2 gb

molecule MOL {
0 1

H	 -2.714867	 -0.736094	 1.292299
C	 -2.694279	 -0.735743	 0.204311
O	 -1.398713	 -0.586909	 -0.280143
H	 -3.069082	 -1.684884	 -0.153176
H	 -3.349305	 0.057846	 -0.152879
C	 -0.782442	 0.603790	 0.096280
C	 0.646876	 0.602720	 -0.392857
H	 -1.308844	 1.455324	 -0.336716
H	 -0.791060	 0.718911	 1.178259
O	 1.392611	 -0.295398	 0.366430
H	 0.665373	 0.328232	 -1.445625
H	 1.058150	 1.608695	 -0.300330
C	 2.706965	 -0.449871	 -0.062409
H	 2.756559	 -0.644779	 -1.131878
H	 3.305899	 0.433456	 0.155466
H	 3.125548	 -1.294566	 0.467107

	symmetry c1
}
set optking {
	frozen_dihedral = ("
		7 10 13 14
	")
}

ee = optimize('scf')
oeprop('DIPOLE', 'QUADRUPOLE', 'MULLIKEN_CHARGES')
f=open( 'psi4out.xyz', 'w' )
f.write( "16  " )
f.write( str(ee) + "\n" )
f.write( MOL.save_string_xyz() )
f.close()
--------------------------------------------------------------------------

    Molecular point group: c1
  Charge       = 0
  Multiplicity = 1
  Basis Set: 6-31G*
  Basis Set:
  @DF-RHF Final Energy:  -306.97739756814002
    Total Energy =                       -306.9773975681401907
    Molecular point group: c1
  Basis Set: 6-31G*
  Basis Set:
  Basis Set: 6-31G*
  Basis Set:
  @DF-RHF Final Energy:  -306.97741222542641
    Total Energy =                       -306.9774122254265194
  Basis Set: 6-31G*
  Basis Set:
  Charge       = 0
  Multiplicity = 1
  Basis Set: 6-31G*
  Basis Set:

    Orbital Energies (a.u.)
    -----------------------

    Doubly Occupied:

       1A    -20.553545     2A    -20.553305     3A    -11.269109
       4A    -11.268438     5A    -11.263543     6A    -11.263529
       7A     -1.388096     8A     -1.370436     9A     -1.030839
      10A     -0.936089    11A     -0.891985    12A     -0.824076
      13A     -0.683925    14A     -0.680331    15A     -0.657077
      16A     -0.635809    17A     -0.629453    18A     -0.597378
      19A     -0.550891    20A     -0.534869    21A     -0.509371
      22A     -0.477618    23A     -0.462590    24A     -0.419587
      25A     -0.410122

  @DF-RHF Final Energy:  -306.97741618762308

   => Energetics <=

    Nuclear Repulsion Energy =            258.8150443664009686
    One-Electron Energy =                -931.8609007979857779
    Two-Electron Energy =                 366.0684402439617315
    DFT Exchange-Correlation Energy =       0.0000000000000000
    Empirical Dispersion Energy =           0.0000000000000000
    PCM Polarization Energy =               0.0000000000000000
    EFP Energy =                            0.0000000000000000
    Total Energy =                       -306.9774161876230210
    Molecular point group: c1
  Basis Set: 6-31G*
  Basis Set:

  -Total Gradient:
     Atom            X                  Y                   Z
    ------   -----------------  -----------------  -----------------
       1       -0.000000560773    -0.000000336392    -0.000000827892
       2        0.000003157906     0.000001573789     0.000000566128
       3       -0.000002688986     0.000002881564    -0.000011543715
       4        0.000001909983     0.000001066099    -0.000000531615
       5       -0.000001547653    -0.000000065813     0.000000079952
       6        0.000037990625    -0.000027225133     0.000059155628
       7       -0.000388041524    -0.000952025424    -0.000900463141
       8        0.000025395707    -0.000008535461    -0.000003195961
       9       -0.000021349418     0.000006211276     0.000011363392
      10        0.000510500392     0.001858157954     0.001116171344
      11        0.000010195322    -0.000004534613     0.000007151579
      12       -0.000006238515    -0.000009434312     0.000008947021
      13       -0.000276167860    -0.002480019280    -0.000019282936
      14        0.000130637883     0.001659345612    -0.000272796720
      15       -0.000016054052    -0.000031256810    -0.000022110452
      16       -0.000007139035    -0.000015803056     0.000027317387

  **** Optimization is complete! (in 3 steps) ****
    Final optimized geometry and variables:
    Molecular point group: c1

    Geometry (in Angstrom), charge = 0, multiplicity = 1:

    H           -2.693114622392    -0.585148313658     1.303420924149
    C           -2.673014905619    -0.583949941210     0.215421418253
    O           -1.377696565308    -0.434598320165    -0.269664521900
    H           -3.048114744490    -1.532739448626    -0.142651026730
    H           -3.327870529612     0.210139018954    -0.140798320638
    C           -0.761336283216     0.755971142275     0.107204007111
    C            0.667716769972     0.755636194054    -0.382848702420
    H           -1.288081411632     1.607715303762    -0.324909537950
    H           -0.769785786126     0.870366616786     1.189209539946
    O            1.412764935670    -0.145756807041     0.373162536425
    H            0.685989020629     0.482916120624    -1.435795086281
    H            1.078302616899     1.761913174948    -0.288777093589
    C            2.728805526563    -0.302285986825    -0.051296993506
    H            2.784042051456    -0.494048121895    -1.120791665118
    H            3.322752371676     0.585472870496     0.162596749892
    H            3.149742687380    -1.142120421521     0.483759675474

  Mulliken Charges: (a.u.)
   Center  Symbol    Alpha    Beta     Spin     Total
       1     H     0.42808  0.42808  0.00000  0.14385
       2     C     3.07950  3.07950  0.00000 -0.15899
       3     O     4.30089  4.30089  0.00000 -0.60177
       4     H     0.41129  0.41129  0.00000  0.17742
       5     H     0.43189  0.43189  0.00000  0.13622
       6     C     2.99339  2.99339  0.00000  0.01322
       7     C     2.99331  2.99331  0.00000  0.01339
       8     H     0.43228  0.43228  0.00000  0.13544
       9     H     0.42274  0.42274  0.00000  0.15453
      10     O     4.30131  4.30131  0.00000 -0.60263
      11     H     0.42241  0.42241  0.00000  0.15518
      12     H     0.43255  0.43255  0.00000  0.13491
      13     C     3.07893  3.07893  0.00000 -0.15787
      14     H     0.42936  0.42936  0.00000  0.14127
      15     H     0.43094  0.43094  0.00000  0.13811
      16     H     0.41114  0.41114  0.00000  0.17772

   Total alpha = 25.00000, Total beta = 25.00000, Total charge = -0.00000
