  ==> Input File <==

--------------------------------------------------------------------------
set {
	reference rhf
	basis cc-pvtz
}

set_num_threads( 4 )
memory 2 gb

molecule MOL {
0 1

H	 0.109940	 4.087392	 -1.088255
O	 -0.303355	 3.380782	 -1.549547
C	 -0.227569	 2.202053	 -0.797886
C	 1.174711	 1.626447	 -0.806816
H	 -0.549085	 2.360720	 0.226605
H	 -0.909286	 1.495607	 -1.249415
O	 1.172093	 0.457955	 -0.054438
H	 1.876509	 2.349573	 -0.387931
H	 1.480879	 1.431009	 -1.832311
C	 2.395478	 -0.199028	 -0.000366
H	 2.505946	 -0.901710	 -0.823354
H	 3.174616	 0.545641	 -0.071768
H	 2.513730	 -0.742241	 0.934223

	symmetry c1
}
set optking {
	frozen_dihedral = ("
		4 7 10 13
	")
}

ee = optimize('scf')
oeprop('DIPOLE', 'QUADRUPOLE', 'MULLIKEN_CHARGES')
f=open( 'psi4out.xyz', 'w' )
f.write( "13  " )
f.write( str(ee) + "\n" )
f.write( MOL.save_string_xyz() )
f.close()
--------------------------------------------------------------------------

    Molecular point group: c1
  Charge       = 0
  Multiplicity = 1
  Basis Set: CC-PVTZ
  Basis Set:
  @DF-RHF Final Energy:  -268.05956864021294
    Total Energy =                       -268.0595686402132287
    Molecular point group: c1
  Basis Set: CC-PVTZ
  Basis Set:
  Basis Set: CC-PVTZ
  Basis Set:
  @DF-RHF Final Energy:  -268.06033778363798
    Total Energy =                       -268.0603377836379195
  Basis Set: CC-PVTZ
  Basis Set:
  Basis Set: CC-PVTZ
  Basis Set:
  @DF-RHF Final Energy:  -268.06052652623407
    Total Energy =                       -268.0605265262339003
  Basis Set: CC-PVTZ
  Basis Set:
  Charge       = 0
  Multiplicity = 1
  Basis Set: CC-PVTZ
  Basis Set:

    Orbital Energies (a.u.)
    -----------------------

    Doubly Occupied:

       1A    -20.554312     2A    -20.552689     3A    -11.269499
       4A    -11.267551     5A    -11.267191     6A     -1.389924
       7A     -1.368851     8A     -1.019561     9A     -0.914111
      10A     -0.842743    11A     -0.711423    12A     -0.675437
      13A     -0.662094    14A     -0.638176    15A     -0.599164
      16A     -0.568489    17A     -0.550456    18A     -0.489837
      19A     -0.483903    20A     -0.441450    21A     -0.422320

  @DF-RHF Final Energy:  -268.06052757182442

   => Energetics <=

    Nuclear Repulsion Energy =            190.3560160434840611
    One-Electron Energy =                -743.4547331283147287
    Two-Electron Energy =                 285.0381895130060457
    DFT Exchange-Correlation Energy =       0.0000000000000000
    Empirical Dispersion Energy =           0.0000000000000000
    PCM Polarization Energy =               0.0000000000000000
    EFP Energy =                            0.0000000000000000
    Total Energy =                       -268.0605275718246503
    Molecular point group: c1
  Basis Set: CC-PVTZ
  Basis Set:

  -Total Gradient:
     Atom            X                  Y                   Z
    ------   -----------------  -----------------  -----------------
       1        0.000002263848     0.000006687324    -0.000000174565
       2        0.000053671794    -0.000042498997     0.000024089621
       3       -0.000056065100    -0.000062726255     0.000040483429
       4        0.000695857380     0.001218081648     0.001811018950
       5       -0.000012298326     0.000009134774     0.000002459672
       6       -0.000008003470    -0.000003369010     0.000002724173
       7       -0.000528344800    -0.001228230239    -0.002369005080
       8        0.000010580627    -0.000022056779     0.000017687313
       9        0.000003289918    -0.000013869725     0.000011895771
      10       -0.001225443966    -0.002200357077    -0.000691260033
      11       -0.000052823840     0.000013301428    -0.000002992010
      12        0.000001258038     0.000025836036    -0.000007604545
      13        0.001116057895     0.002300066871     0.001160677305

  **** Optimization is complete! (in 4 steps) ****
    Final optimized geometry and variables:
    Molecular point group: c1

    Geometry (in Angstrom), charge = 0, multiplicity = 1:

    H           -0.754262673419     2.565435852375    -0.429344028251
    O           -1.163902617856     1.858444431826    -0.893310631243
    C           -1.076486047128     0.676029065297    -0.148610856667
    C            0.330095523739     0.111490384124    -0.166349307550
    H           -1.394465449890     0.826488890944     0.878264490157
    H           -1.755111979440    -0.032805348448    -0.601011013241
    O            0.338500566175    -1.055726338748     0.588750391401
    H            1.028319553219     0.838666627156     0.249773318358
    H            0.630153488450    -0.079080176023    -1.194671631037
    C            1.559039082410    -1.723852831406     0.643851074623
    H            1.654041394987    -2.439500877800    -0.167283732912
    H            2.393996254873    -1.030296875271     0.589930026877
    H            1.620991778598    -2.239865578123     1.591886864448

  Mulliken Charges: (a.u.)
   Center  Symbol    Alpha    Beta     Spin     Total
       1     H     0.39411  0.39411  0.00000  0.21179
       2     O     4.20215  4.20215  0.00000 -0.40429
       3     C     2.97439  2.97439  0.00000  0.05122
       4     C     2.96498  2.96498  0.00000  0.07004
       5     H     0.46717  0.46717  0.00000  0.06566
       6     H     0.45257  0.45257  0.00000  0.09486
       7     O     4.17794  4.17794  0.00000 -0.35587
       8     H     0.48083  0.48083  0.00000  0.03833
       9     H     0.47047  0.47047  0.00000  0.05906
      10     C     3.02913  3.02913  0.00000 -0.05826
      11     H     0.46279  0.46279  0.00000  0.07442
      12     H     0.47349  0.47349  0.00000  0.05302
      13     H     0.44999  0.44999  0.00000  0.10001

   Total alpha = 21.00000, Total beta = 21.00000, Total charge = -0.00000
