  ==> Input File <==

--------------------------------------------------------------------------
set {
	reference rhf
	basis cc-pvtz
}

set_num_threads( 4 )
memory 2 gb

molecule MOL {
0 1

H	 2.083200	 -0.928544	 -0.672127
C	 1.273733	 -1.487982	 -1.159409
C	 -0.031158	 -0.750270	 -1.277058
O	 1.464108	 -2.589929	 -1.542950
C	 -0.554654	 -0.292621	 0.086567
H	 -0.744036	 -1.392045	 -1.777824
H	 0.142343	 0.119443	 -1.907435
C	 -1.846385	 0.513195	 -0.016346
H	 -0.721141	 -1.162656	 0.715264
H	 0.203508	 0.306663	 0.584284
C	 -3.089953	 -0.365049	 -0.098564
H	 -1.798267	 1.154820	 -0.891143
H	 -1.925398	 1.173265	 0.842889
H	 -3.055079	 -1.012299	 -0.968245
H	 -3.988403	 0.236438	 -0.170014
H	 -3.183055	 -0.995885	 0.779079

	symmetry c1
}
set optking {
	frozen_dihedral = ("
		9 5 8 12
	")
}

ee = optimize('scf')
oeprop('DIPOLE', 'QUADRUPOLE', 'MULLIKEN_CHARGES')
f=open( 'psi4out.xyz', 'w' )
f.write( "16  " )
f.write( str(ee) + "\n" )
f.write( MOL.save_string_xyz() )
f.close()
--------------------------------------------------------------------------

    Molecular point group: c1
  Charge       = 0
  Multiplicity = 1
  Basis Set: CC-PVTZ
  Basis Set:
  @DF-RHF Final Energy:  -270.11640738961910
    Total Energy =                       -270.1164073896190985
    Molecular point group: c1
  Basis Set: CC-PVTZ
  Basis Set:
  Basis Set: CC-PVTZ
  Basis Set:
  @DF-RHF Final Energy:  -270.11655514692666
    Total Energy =                       -270.1165551469266575
  Basis Set: CC-PVTZ
  Basis Set:
  Basis Set: CC-PVTZ
  Basis Set:
  @DF-RHF Final Energy:  -270.11658762492630
    Total Energy =                       -270.1165876249260691
  Basis Set: CC-PVTZ
  Basis Set:
  Basis Set: CC-PVTZ
  Basis Set:
  @DF-RHF Final Energy:  -270.11643962499352
    Total Energy =                       -270.1164396249935180
  Basis Set: CC-PVTZ
  Basis Set:
  Basis Set: CC-PVTZ
  Basis Set:
  @DF-RHF Final Energy:  -270.11661034744373
    Total Energy =                       -270.1166103474437250
  Basis Set: CC-PVTZ
  Basis Set:
  Basis Set: CC-PVTZ
  Basis Set:
  @DF-RHF Final Energy:  -270.11660924474063
    Total Energy =                       -270.1166092447406299
  Basis Set: CC-PVTZ
  Basis Set:
  Basis Set: CC-PVTZ
  Basis Set:
  @DF-RHF Final Energy:  -270.11661258503159
    Total Energy =                       -270.1166125850314188
  Basis Set: CC-PVTZ
  Basis Set:
  Charge       = 0
  Multiplicity = 1
  Basis Set: CC-PVTZ
  Basis Set:

    Orbital Energies (a.u.)
    -----------------------

    Doubly Occupied:

       1A    -20.552156     2A    -11.321214     3A    -11.234811
       4A    -11.233795     5A    -11.227590     6A    -11.215773
       7A     -1.406852     8A     -1.097126     9A     -1.017112
      10A     -0.910359    11A     -0.810794    12A     -0.792951
      13A     -0.680483    14A     -0.649464    15A     -0.625418
      16A     -0.613403    17A     -0.582100    18A     -0.549211
      19A     -0.539176    20A     -0.508760    21A     -0.487738
      22A     -0.481012    23A     -0.475328    24A     -0.411826

  @DF-RHF Final Energy:  -270.11661263999815

   => Energetics <=

    Nuclear Repulsion Energy =            231.9015716773728570
    One-Electron Energy =                -825.1874634726228805
    Two-Electron Energy =                 323.1692791552520703
    DFT Exchange-Correlation Energy =       0.0000000000000000
    Empirical Dispersion Energy =           0.0000000000000000
    PCM Polarization Energy =               0.0000000000000000
    EFP Energy =                            0.0000000000000000
    Total Energy =                       -270.1166126399979248
    Molecular point group: c1
  Basis Set: CC-PVTZ
  Basis Set:

  -Total Gradient:
     Atom            X                  Y                   Z
    ------   -----------------  -----------------  -----------------
       1       -0.000001808755    -0.000002019131     0.000004495043
       2        0.000002496812    -0.000002893661    -0.000005998002
       3       -0.000009044436     0.000000287364     0.000033452458
       4        0.000002357255     0.000003192017    -0.000007676866
       5        0.000663302293     0.001381923074     0.002455764570
       6        0.000002197351     0.000000498322    -0.000002660974
       7        0.000004033533    -0.000002132542    -0.000010444198
       8        0.001236668438     0.002209062526     0.001411130436
       9       -0.000753113499    -0.001510157326    -0.002296068582
      10       -0.000002672955     0.000000568664    -0.000000717730
      11       -0.000000165655    -0.000001985180     0.000003393301
      12       -0.001143186389    -0.002073749289    -0.001584826426
      13       -0.000000374168    -0.000002676941    -0.000000943320
      14        0.000000128578     0.000001455997     0.000000215106
      15        0.000000202818     0.000000537381     0.000000799703
      16       -0.000001021217    -0.000001911277     0.000000085482

  **** Optimization is complete! (in 8 steps) ****
    Final optimized geometry and variables:
    Molecular point group: c1

    Geometry (in Angstrom), charge = 0, multiplicity = 1:

    H            2.561042370166    -0.101873893783    -0.004943369599
    C            1.744416420084    -0.654074159264    -0.488587980471
    C            0.449235086604     0.099830508977    -0.611957486616
    O            1.920484066011    -1.761337042678    -0.863775533056
    C           -0.067608025307     0.567598446641     0.754012187670
    H           -0.265931040663    -0.535195187945    -1.116493140644
    H            0.636256809299     0.967509654864    -1.240900330456
    C           -1.377065592701     1.359547908781     0.663028962380
    H           -0.219145104010    -0.307769101307     1.378689484062
    H            0.695437454842     1.173739645511     1.231456277888
    C           -2.618319474191     0.474772277145     0.566007940101
    H           -1.344639497401     2.007311117213    -0.208021863206
    H           -1.469210342257     2.001605259479     1.531720364651
    H           -2.580253060461    -0.176653845335    -0.299652708283
    H           -3.515958161355     1.076276076775     0.483158499712
    H           -2.719145206728    -0.151202164534     1.445911869362

  Mulliken Charges: (a.u.)
   Center  Symbol    Alpha    Beta     Spin     Total
       1     H     0.46427  0.46427  0.00000  0.07147
       2     C     2.91027  2.91027  0.00000  0.17946
       3     C     3.07776  3.07776  0.00000 -0.15552
       4     O     4.16384  4.16384  0.00000 -0.32768
       5     C     3.10866  3.10866  0.00000 -0.21732
       6     H     0.44304  0.44304  0.00000  0.11392
       7     H     0.45019  0.45019  0.00000  0.09963
       8     C     3.08973  3.08973  0.00000 -0.17946
       9     H     0.44683  0.44683  0.00000  0.10634
      10     H     0.44486  0.44486  0.00000  0.11028
      11     C     3.14770  3.14770  0.00000 -0.29540
      12     H     0.45486  0.45486  0.00000  0.09028
      13     H     0.44517  0.44517  0.00000  0.10967
      14     H     0.45272  0.45272  0.00000  0.09455
      15     H     0.44663  0.44663  0.00000  0.10675
      16     H     0.45347  0.45347  0.00000  0.09306

   Total alpha = 24.00000, Total beta = 24.00000, Total charge = -0.00000
