  ==> Input File <==

--------------------------------------------------------------------------
set {
	reference rhf
	basis 6-31G*
}

set_num_threads( 1 )
memory 2 gb

molecule MOL {
0 1

O	 3.225979	 0.970355	 -0.599647
C	 2.701189	 0.057885	 -0.047330
C	 1.245376	 -0.013843	 0.345420
O	 3.347903	 -1.046386	 0.304773
C	 0.791771	 1.176876	 1.187172
H	 0.672538	 -0.105663	 -0.571433
H	 1.100870	 -0.948928	 0.880613
C	 -0.654529	 1.067662	 1.681928
H	 0.916138	 2.090093	 0.612989
H	 1.453522	 1.268278	 2.041662
C	 -1.718499	 1.117523	 0.581660
H	 -0.835231	 1.884230	 2.377117
H	 -0.772656	 0.150505	 2.257149
C	 -3.145550	 1.115877	 1.133494
H	 -1.567440	 2.011344	 -0.021735
H	 -1.601422	 0.271198	 -0.091392
C	 -4.217236	 1.160220	 0.042782
H	 -3.275165	 1.968205	 1.798304
H	 -3.293852	 0.227706	 1.745751
C	 -5.639424	 1.162162	 0.602316
H	 -4.069905	 2.046623	 -0.570592
H	 -4.092013	 0.306670	 -0.620206
H	 -6.376043	 1.193925	 -0.194547
H	 -5.807607	 2.023543	 1.242576
H	 -5.829576	 0.270458	 1.193061
C	 4.728119	 -1.109107	 -0.004993
H	 4.882018	 -1.033965	 -1.071845
H	 5.068212	 -2.067527	 0.355250
H	 5.265056	 -0.311663	 0.488280

	symmetry c1
}
set optking {
	frozen_dihedral = ("
		21 17 14 11,
		17 14 11 15,
		15 11 8 5,
		6 3 5 9,
		11 8 5 9,
		2 4 26 27,
		1 2 4 26
	")
}

ee = energy('scf')
oeprop('DIPOLE', 'QUADRUPOLE', 'MULLIKEN_CHARGES')
f=open( 'psi4out.xyz', 'w' )
f.write( "29  " )
f.write( str(ee) + "\n" )
f.write( MOL.save_string_xyz() )
f.close()
--------------------------------------------------------------------------

    Molecular point group: c1

    Geometry (in Angstrom), charge = 0, multiplicity = 1:

       Center              X                  Y                   Z               Mass
    ------------   -----------------  -----------------  -----------------  -----------------
           O          3.125185107604     0.471147790657    -1.064431190535    15.994914619560
           C          2.600395107604    -0.441322209343    -0.512114190535    12.000000000000
           C          1.144582107604    -0.513050209343    -0.119364190535    12.000000000000
           O          3.247109107604    -1.545593209343    -0.160011190535    15.994914619560
           C          0.690977107604     0.677668790657     0.722387809465    12.000000000000
           H          0.571744107604    -0.604870209343    -1.036217190535     1.007825032070
           H          1.000076107604    -1.448135209343     0.415828809465     1.007825032070
           C         -0.755322892396     0.568454790657     1.217143809465    12.000000000000
           H          0.815344107604     1.590885790657     0.148204809465     1.007825032070
           H          1.352728107604     0.769070790657     1.576877809465     1.007825032070
           C         -1.819292892396     0.618315790657     0.116875809465    12.000000000000
           H         -0.936024892396     1.385022790657     1.912332809465     1.007825032070
           H         -0.873449892396    -0.348702209343     1.792364809465     1.007825032070
           C         -3.246343892396     0.616669790657     0.668709809465    12.000000000000
           H         -1.668233892396     1.512136790657    -0.486519190535     1.007825032070
           H         -1.702215892396    -0.228009209343    -0.556176190535     1.007825032070
           C         -4.318029892396     0.661012790657    -0.422002190535    12.000000000000
           H         -3.375958892396     1.468997790657     1.333519809465     1.007825032070
           H         -3.394645892396    -0.271501209343     1.280966809465     1.007825032070
           C         -5.740217892396     0.662954790657     0.137531809465    12.000000000000
           H         -4.170698892396     1.547415790657    -1.035376190535     1.007825032070
           H         -4.192806892396    -0.192537209343    -1.084990190535     1.007825032070
           H         -6.476836892396     0.694717790657    -0.659331190535     1.007825032070
           H         -5.908400892396     1.524335790657     0.777791809465     1.007825032070
           H         -5.930369892396    -0.228749209343     0.728276809465     1.007825032070
           C          4.627325107604    -1.608314209343    -0.469777190535    12.000000000000
           H          4.781224107604    -1.533172209343    -1.536629190535     1.007825032070
           H          4.967418107604    -2.566734209343    -0.109534190535     1.007825032070
           H          5.164262107604    -0.810870209343     0.023495809465     1.007825032070

  Charge       = 0
  Multiplicity = 1
  Basis Set: 6-31G*
  Basis Set:

    Orbital Energies (a.u.)
    -----------------------

    Doubly Occupied:

       1A    -20.604729     2A    -20.542990     3A    -11.371256
       4A    -11.280097     5A    -11.232833     6A    -11.225651
       7A    -11.220322     8A    -11.217010     9A    -11.216214
      10A    -11.215209    11A    -11.209295    12A     -1.468820
      13A     -1.361463    14A     -1.099937    15A     -1.067844
      16A     -1.019766    17A     -0.977048    18A     -0.929433
      19A     -0.863424    20A     -0.800038    21A     -0.791143
      22A     -0.768055    23A     -0.698510    24A     -0.680146
      25A     -0.672051    26A     -0.651960    27A     -0.627198
      28A     -0.604347    29A     -0.593722    30A     -0.580048
      31A     -0.572677    32A     -0.542573    33A     -0.541700
      34A     -0.531222    35A     -0.518753    36A     -0.511402
      37A     -0.496129    38A     -0.479171    39A     -0.470951
      40A     -0.463091    41A     -0.461703    42A     -0.453468
      43A     -0.445885    44A     -0.429710

  @DF-RHF Final Energy:  -501.04211844875158

   => Energetics <=

    Nuclear Repulsion Energy =            609.9864812754797185
    One-Electron Energy =               -1891.0390593300337514
    Two-Electron Energy =                 780.0104596058022253
    DFT Exchange-Correlation Energy =       0.0000000000000000
    Empirical Dispersion Energy =           0.0000000000000000
    PCM Polarization Energy =               0.0000000000000000
    EFP Energy =                            0.0000000000000000
    Total Energy =                       -501.0421184487518076

  Mulliken Charges: (a.u.)
   Center  Symbol    Alpha    Beta     Spin     Total
       1     O     4.28626  4.28626  0.00000 -0.57252
       2     C     2.60743  2.60743  0.00000  0.78514
       3     C     3.20837  3.20837  0.00000 -0.41674
       4     O     4.30401  4.30401  0.00000 -0.60802
       5     C     3.16065  3.16065  0.00000 -0.32130
       6     H     0.39933  0.39933  0.00000  0.20133
       7     H     0.40089  0.40089  0.00000  0.19821
       8     C     3.15559  3.15559  0.00000 -0.31117
       9     H     0.40622  0.40622  0.00000  0.18757
      10     H     0.41477  0.41477  0.00000  0.17047
      11     C     3.15511  3.15511  0.00000 -0.31022
      12     H     0.41816  0.41816  0.00000  0.16368
      13     H     0.42239  0.42239  0.00000  0.15522
      14     C     3.15056  3.15056  0.00000 -0.30111
      15     H     0.42117  0.42117  0.00000  0.15767
      16     H     0.42308  0.42308  0.00000  0.15385
      17     C     3.15157  3.15157  0.00000 -0.30314
      18     H     0.42338  0.42338  0.00000  0.15324
      19     H     0.42391  0.42391  0.00000  0.15218
      20     C     3.23941  3.23941  0.00000 -0.47881
      21     H     0.42237  0.42237  0.00000  0.15526
      22     H     0.42322  0.42322  0.00000  0.15356
      23     H     0.41902  0.41902  0.00000  0.16196
      24     H     0.42157  0.42157  0.00000  0.15686
      25     H     0.42185  0.42185  0.00000  0.15630
      26     C     3.09336  3.09336  0.00000 -0.18673
      27     H     0.40888  0.40888  0.00000  0.18224
      28     H     0.40860  0.40860  0.00000  0.18280
      29     H     0.40889  0.40889  0.00000  0.18222

   Total alpha = 44.00000, Total beta = 44.00000, Total charge = -0.00000
