  ==> Input File <==

--------------------------------------------------------------------------
set {
	reference rhf
	basis 6-31G*
}

set_num_threads( 4 )
memory 2 gb

molecule MOL {
0 1

H	 -2.655730	 -1.448769	 -0.524072
N	 -1.741080	 -1.336640	 -0.131877
C	 -1.431924	 0.069367	 0.059627
H	 -1.088283	 -1.737456	 -0.777099
C	 -0.031964	 0.219645	 0.616999
H	 -1.504292	 0.662940	 -0.852752
H	 -2.134974	 0.484872	 0.775068
O	 0.874168	 -0.245412	 -0.342030
H	 0.171189	 1.265104	 0.848044
H	 0.060307	 -0.357483	 1.534411
C	 2.202317	 -0.244239	 0.074611
H	 2.711377	 -1.041390	 -0.449894
H	 2.692099	 0.699270	 -0.159667
H	 2.283185	 -0.418429	 1.145558

	symmetry c1
}
set optking {
	frozen_dihedral = ("
		5 8 11 13
	")
}

ee = optimize('scf')
oeprop('DIPOLE', 'QUADRUPOLE', 'MULLIKEN_CHARGES')
f=open( 'psi4out.xyz', 'w' )
f.write( "14  " )
f.write( str(ee) + "\n" )
f.write( MOL.save_string_xyz() )
f.close()
--------------------------------------------------------------------------

    Molecular point group: c1
  Charge       = 0
  Multiplicity = 1
  Basis Set: 6-31G*
  Basis Set:
  @DF-RHF Final Energy:  -248.12329758060679
    Total Energy =                       -248.1232975806066747
    Molecular point group: c1
  Basis Set: 6-31G*
  Basis Set:
  Basis Set: 6-31G*
  Basis Set:
  @DF-RHF Final Energy:  -248.12340298075856
    Total Energy =                       -248.1234029807585557
  Basis Set: 6-31G*
  Basis Set:
  Basis Set: 6-31G*
  Basis Set:
  @DF-RHF Final Energy:  -248.12342568673157
    Total Energy =                       -248.1234256867317072
  Basis Set: 6-31G*
  Basis Set:
  Charge       = 0
  Multiplicity = 1
  Basis Set: 6-31G*
  Basis Set:

    Orbital Energies (a.u.)
    -----------------------

    Doubly Occupied:

       1A    -20.555847     2A    -15.528134     3A    -11.265940
       4A    -11.265918     5A    -11.240506     6A     -1.379032
       7A     -1.173289     8A     -0.999152     9A     -0.907333
      10A     -0.814869    11A     -0.682629    12A     -0.672962
      13A     -0.644603    14A     -0.609381    15A     -0.605611
      16A     -0.539718    17A     -0.532557    18A     -0.496725
      19A     -0.472051    20A     -0.415020    21A     -0.379813

  @DF-RHF Final Energy:  -248.12342596909346

   => Energetics <=

    Nuclear Repulsion Energy =            194.5416442100188021
    One-Electron Energy =                -722.9679637133086771
    Two-Electron Energy =                 280.3028935341964143
    DFT Exchange-Correlation Energy =       0.0000000000000000
    Empirical Dispersion Energy =           0.0000000000000000
    PCM Polarization Energy =               0.0000000000000000
    EFP Energy =                            0.0000000000000000
    Total Energy =                       -248.1234259690934323
    Molecular point group: c1
  Basis Set: 6-31G*
  Basis Set:

  -Total Gradient:
     Atom            X                  Y                   Z
    ------   -----------------  -----------------  -----------------
       1        0.000012784617    -0.000006093339    -0.000007205261
       2        0.000000403497     0.000004029622    -0.000020667943
       3       -0.000031285756    -0.000014951510     0.000096864046
       4       -0.000004787386    -0.000002532277    -0.000017315191
       5       -0.000299961225    -0.002158597935     0.000796367789
       6        0.000039733552    -0.000020271679     0.000028476691
       7       -0.000038312631     0.000007102381     0.000004593215
       8        0.000699817347     0.002854544065    -0.001963458451
       9        0.000003051348    -0.000002631427     0.000009106327
      10       -0.000012556040     0.000003352092    -0.000028294820
      11       -0.001161323089     0.000478970647     0.003810803679
      12        0.000014354441    -0.000011257861    -0.000005169743
      13        0.000799175787    -0.001122208501    -0.002698632323
      14       -0.000021094460    -0.000009454278    -0.000005468013

  **** Optimization is complete! (in 4 steps) ****
    Final optimized geometry and variables:
    Molecular point group: c1

    Geometry (in Angstrom), charge = 0, multiplicity = 1:

    H           -2.633232712692    -1.136589293403    -0.578251874227
    N           -1.721989796204    -1.018864273602    -0.179911019665
    C           -1.421895789637     0.389082780170     0.012079099875
    H           -1.062566165508    -1.416429631971    -0.820316260659
    C           -0.025857921569     0.548353959018     0.576857646158
    H           -1.493119199854     0.981368710551    -0.901132172185
    H           -2.130915270168     0.801366712979     0.723539433470
    O            0.885703861560     0.077332054285    -0.374912735341
    H            0.168589700181     1.596357490166     0.804141776866
    H            0.063316630348    -0.023962669535     1.496784907380
    C            2.220535166373     0.067530502914     0.029079824816
    H            2.725760078025    -0.722204467505    -0.512763932684
    H            2.709850538671     1.007741800077    -0.214240182886
    H            2.320106368929    -0.124480162448     1.093504773824

  Mulliken Charges: (a.u.)
   Center  Symbol    Alpha    Beta     Spin     Total
       1     H     0.33290  0.33290  0.00000  0.33420
       2     N     3.92532  3.92532  0.00000 -0.85065
       3     C     3.06906  3.06906  0.00000 -0.13811
       4     H     0.32363  0.32363  0.00000  0.35274
       5     C     2.98986  2.98986  0.00000  0.02027
       6     H     0.42665  0.42665  0.00000  0.14669
       7     H     0.42054  0.42054  0.00000  0.15891
       8     O     4.31214  4.31214  0.00000 -0.62428
       9     H     0.43134  0.43134  0.00000  0.13732
      10     H     0.42196  0.42196  0.00000  0.15608
      11     C     3.07689  3.07689  0.00000 -0.15378
      12     H     0.41492  0.41492  0.00000  0.17016
      13     H     0.42642  0.42642  0.00000  0.14716
      14     H     0.42836  0.42836  0.00000  0.14328

   Total alpha = 21.00000, Total beta = 21.00000, Total charge =  0.00000
