  ==> Input File <==

--------------------------------------------------------------------------
set {
	reference rhf
	basis cc-pvtz
}

set_num_threads( 4 )
memory 2 gb

molecule MOL {
0 1

H	 -2.266619	 1.169943	 0.000098
O	 -1.438073	 1.611259	 0.000041
C	 -0.408657	 0.734701	 0.000005
C	 0.759336	 1.143074	 -0.616787
C	 -0.505035	 -0.521039	 0.588173
H	 0.793948	 2.119397	 -1.058970
C	 1.849571	 0.299895	 -0.654245
C	 0.605848	 -1.347293	 0.535545
C	 -1.780336	 -0.965190	 1.260885
H	 2.752985	 0.623724	 -1.134826
C	 1.778710	 -0.953112	 -0.076851
H	 0.547385	 -2.320989	 0.985508
H	 -2.616879	 -0.982054	 0.567898
H	 -1.673619	 -1.963610	 1.659896
H	 -2.047742	 -0.313669	 2.088133
H	 2.622788	 -1.614370	 -0.102141

	symmetry c1
}
set optking {
	frozen_dihedral = ("
		4 3 2 1
	")
}

ee = optimize('scf')
oeprop('DIPOLE', 'QUADRUPOLE', 'MULLIKEN_CHARGES')
f=open( 'psi4out.xyz', 'w' )
f.write( "16  " )
f.write( str(ee) + "\n" )
f.write( MOL.save_string_xyz() )
f.close()
--------------------------------------------------------------------------

    Molecular point group: c1
  Charge       = 0
  Multiplicity = 1
  Basis Set: CC-PVTZ
  Basis Set:
  @DF-RHF Final Energy:  -344.71840203726487
    Total Energy =                       -344.7184020372646955
    Molecular point group: c1
  Basis Set: CC-PVTZ
  Basis Set:
  Basis Set: CC-PVTZ
  Basis Set:
  @DF-RHF Final Energy:  -344.71850950971458
    Total Energy =                       -344.7185095097151475
  Basis Set: CC-PVTZ
  Basis Set:
  Basis Set: CC-PVTZ
  Basis Set:
  @DF-RHF Final Energy:  -344.71852921076237
    Total Energy =                       -344.7185292107627106
  Basis Set: CC-PVTZ
  Basis Set:
  Basis Set: CC-PVTZ
  Basis Set:
  @DF-RHF Final Energy:  -344.71853184547780
    Total Energy =                       -344.7185318454779122
  Basis Set: CC-PVTZ
  Basis Set:
  Charge       = 0
  Multiplicity = 1
  Basis Set: CC-PVTZ
  Basis Set:

    Orbital Energies (a.u.)
    -----------------------

    Doubly Occupied:

       1A    -20.578818     2A    -11.288970     3A    -11.233780
       4A    -11.230113     5A    -11.228192     6A    -11.227193
       7A    -11.218596     8A    -11.218327     9A     -1.408157
      10A     -1.153579    11A     -1.051311    12A     -1.007808
      13A     -0.942560    14A     -0.828430    15A     -0.821742
      16A     -0.733597    17A     -0.679327    18A     -0.648688
      19A     -0.618957    20A     -0.600165    21A     -0.576941
      22A     -0.572555    23A     -0.554829    24A     -0.546393
      25A     -0.505014    26A     -0.486912    27A     -0.475967
      28A     -0.333585    29A     -0.312509

  @DF-RHF Final Energy:  -344.71853218616326

   => Energetics <=

    Nuclear Repulsion Energy =            350.9369108229961398
    One-Electron Energy =               -1163.1448561872753089
    Two-Electron Energy =                 467.4894131781158535
    DFT Exchange-Correlation Energy =       0.0000000000000000
    Empirical Dispersion Energy =           0.0000000000000000
    PCM Polarization Energy =               0.0000000000000000
    EFP Energy =                            0.0000000000000000
    Total Energy =                       -344.7185321861632588
    Molecular point group: c1
  Basis Set: CC-PVTZ
  Basis Set:

  -Total Gradient:
     Atom            X                  Y                   Z
    ------   -----------------  -----------------  -----------------
       1       -0.000011573683     0.000035937582    -0.001670380877
       2       -0.000227998312    -0.000192902634     0.001598692007
       3        0.000658055095     0.000544678086     0.001125220993
       4       -0.000407819158    -0.000428721867    -0.001058682441
       5       -0.000036666679     0.000033673648    -0.000012342044
       6        0.000002588822     0.000001120068     0.000011168900
       7        0.000000585873     0.000013887016    -0.000006712573
       8        0.000031092232    -0.000014718242    -0.000034592915
       9        0.000019554358     0.000006626841     0.000043041688
      10        0.000002953100    -0.000009470875     0.000004550535
      11       -0.000015622712    -0.000003037349     0.000031162632
      12       -0.000000217567     0.000009050800     0.000001292443
      13       -0.000014967461    -0.000007369672    -0.000014697033
      14       -0.000002651201     0.000009836648    -0.000014311627
      15       -0.000006742084    -0.000001209732     0.000004306068
      16        0.000009429374     0.000002619682    -0.000007715754

  **** Optimization is complete! (in 5 steps) ****
    Final optimized geometry and variables:
    Molecular point group: c1

    Geometry (in Angstrom), charge = 0, multiplicity = 1:

    H           -2.291229314241     1.141271242904    -0.120207510245
    O           -1.463214029654     1.585379662235    -0.118109302719
    C           -0.431491489874     0.704480759815    -0.145271325146
    C            0.734906202903     1.114177999616    -0.760532215716
    C           -0.530778944284    -0.553914026552     0.436997950152
    H            0.769051950256     2.091155166933    -1.201276900846
    C            1.828527322538     0.272913928539    -0.794706964828
    C            0.577173013882    -1.382652639023     0.378951086646
    C           -1.805533384377    -0.991223518788     1.113537806139
    H            2.733745829223     0.598320175427    -1.270687388613
    C            1.752895378909    -0.983038094316    -0.226741919122
    H            0.518174180627    -2.358687162688     0.823609563025
    H           -2.632519969687    -1.064880666282     0.411377575508
    H           -1.684182778670    -1.965778838738     1.564553145607
    H           -2.098061922776    -0.296446331082     1.893087597276
    H            2.596967397789    -1.644514657371    -0.252580571585

  Mulliken Charges: (a.u.)
   Center  Symbol    Alpha    Beta     Spin     Total
       1     H     0.38564  0.38564  0.00000  0.22871
       2     O     4.17841  4.17841  0.00000 -0.35681
       3     C     2.87758  2.87758  0.00000  0.24485
       4     C     3.11135  3.11135  0.00000 -0.22270
       5     C     3.00669  3.00669  0.00000 -0.01337
       6     H     0.41906  0.41906  0.00000  0.16189
       7     C     3.06776  3.06776  0.00000 -0.13552
       8     C     3.08651  3.08651  0.00000 -0.17302
       9     C     3.15916  3.15916  0.00000 -0.31832
      10     H     0.42244  0.42244  0.00000  0.15513
      11     C     3.08839  3.08839  0.00000 -0.17677
      12     H     0.42542  0.42542  0.00000  0.14915
      13     H     0.45719  0.45719  0.00000  0.08561
      14     H     0.44721  0.44721  0.00000  0.10557
      15     H     0.44241  0.44241  0.00000  0.11517
      16     H     0.42478  0.42478  0.00000  0.15043

   Total alpha = 29.00000, Total beta = 29.00000, Total charge = -0.00000
