  ==> Input File <==

--------------------------------------------------------------------------
set {
	reference rhf
	basis 6-31G*
}

set_num_threads( 4 )
memory 2 gb

molecule MOL {
0 1

H	 -3.185554	 0.221371	 4.748917
O	 -2.514362	 0.214660	 5.415646
C	 -1.795774	 -0.991012	 5.352084
C	 -0.864014	 -1.072707	 4.147975
H	 -1.217199	 -1.037308	 6.265748
H	 -2.476819	 -1.841263	 5.357468
C	 -1.587701	 -1.063007	 2.799253
H	 -0.167029	 -0.239974	 4.194169
H	 -0.275390	 -1.984375	 4.236004
C	 -0.629316	 -1.200743	 1.612937
H	 -2.152820	 -0.140017	 2.703878
H	 -2.310991	 -1.878095	 2.770565
C	 -1.309753	 -1.282496	 0.241564
H	 0.069657	 -0.366327	 1.618652
H	 -0.030547	 -2.098093	 1.754144
C	 -2.037799	 -0.007733	 -0.193645
H	 -0.552021	 -1.520024	 -0.502237
H	 -2.009307	 -2.117024	 0.236634
C	 -3.489788	 0.042957	 0.286558
H	 -2.017067	 0.064384	 -1.280144
H	 -1.513726	 0.868678	 0.179924
C	 -4.216917	 1.317354	 -0.141063
H	 -4.025645	 -0.823308	 -0.095450
H	 -3.513059	 -0.038752	 1.371301
H	 -4.239342	 1.411634	 -1.223113
H	 -5.243387	 1.322503	 0.212445
H	 -3.726170	 2.201406	 0.256408

	symmetry c1
}
set optking {
	frozen_dihedral = ("
		10 13 16 20
	")
}

ee = optimize('scf')
oeprop('DIPOLE', 'QUADRUPOLE', 'MULLIKEN_CHARGES')
f=open( 'psi4out.xyz', 'w' )
f.write( "27  " )
f.write( str(ee) + "\n" )
f.write( MOL.save_string_xyz() )
f.close()
--------------------------------------------------------------------------

    Molecular point group: c1
  Charge       = 0
  Multiplicity = 1
  Basis Set: 6-31G*
  Basis Set:
  @DF-RHF Final Energy:  -388.27514843519884
    Total Energy =                       -388.2751484351991849
    Molecular point group: c1
  Basis Set: 6-31G*
  Basis Set:
  Basis Set: 6-31G*
  Basis Set:
  @DF-RHF Final Energy:  -388.27686428470628
    Total Energy =                       -388.2768642847065621
  Basis Set: 6-31G*
  Basis Set:
  Basis Set: 6-31G*
  Basis Set:
  @DF-RHF Final Energy:  -388.27708741159984
    Total Energy =                       -388.2770874115998367
  Basis Set: 6-31G*
  Basis Set:
  Basis Set: 6-31G*
  Basis Set:
  @DF-RHF Final Energy:  -388.27707638895993
    Total Energy =                       -388.2770763889606087
  Basis Set: 6-31G*
  Basis Set:
  Basis Set: 6-31G*
  Basis Set:
  @DF-RHF Final Energy:  -388.27712741262172
    Total Energy =                       -388.2771274126207572
  Basis Set: 6-31G*
  Basis Set:
  Charge       = 0
  Multiplicity = 1
  Basis Set: 6-31G*
  Basis Set:

    Orbital Energies (a.u.)
    -----------------------

    Doubly Occupied:

       1A    -20.552566     2A    -11.267241     3A    -11.219746
       4A    -11.217531     5A    -11.216679     6A    -11.216294
       7A    -11.215236     8A    -11.215231     9A    -11.210107
      10A     -1.359283    11A     -1.094214    12A     -1.060421
      13A     -1.011407    14A     -0.949858    15A     -0.889642
      16A     -0.827060    17A     -0.795683    18A     -0.777110
      19A     -0.694026    20A     -0.654123    21A     -0.632769
      22A     -0.612194    23A     -0.601144    24A     -0.589112
      25A     -0.578446    26A     -0.560890    27A     -0.541398
      28A     -0.517007    29A     -0.510661    30A     -0.496340
      31A     -0.490020    32A     -0.477239    33A     -0.470388
      34A     -0.459731    35A     -0.445918    36A     -0.441047
      37A     -0.422654

  @DF-RHF Final Energy:  -388.27712758356006

   => Energetics <=

    Nuclear Repulsion Energy =            469.7049018355933185
    One-Electron Energy =               -1457.3832263915612657
    Two-Electron Energy =                 599.4011969724076607
    DFT Exchange-Correlation Energy =       0.0000000000000000
    Empirical Dispersion Energy =           0.0000000000000000
    PCM Polarization Energy =               0.0000000000000000
    EFP Energy =                            0.0000000000000000
    Total Energy =                       -388.2771275835602864
    Molecular point group: c1
  Basis Set: 6-31G*
  Basis Set:

  -Total Gradient:
     Atom            X                  Y                   Z
    ------   -----------------  -----------------  -----------------
       1        0.000012787714    -0.000011564716     0.000024018711
       2        0.000018623436     0.000005641330     0.000024025137
       3       -0.000072201726    -0.000020499858    -0.000034640075
       4       -0.000001976846     0.000067010065    -0.000061162473
       5       -0.000006863586     0.000006608678    -0.000002597617
       6        0.000000084030    -0.000003497577     0.000008576499
       7        0.000010730046     0.000017585983     0.000000080474
       8       -0.000015134123     0.000006858231    -0.000002377309
       9        0.000005530316     0.000007695263    -0.000050705366
      10       -0.000585322361    -0.000290839432     0.000334684545
      11        0.000040647324    -0.000049487999     0.000007123154
      12       -0.000009397839     0.000007128094     0.000010347885
      13        0.000729768408     0.000306223291    -0.000440417382
      14       -0.000016785402    -0.000007214369     0.000027852680
      15        0.000014736484    -0.000012900431    -0.000001091932
      16        0.000685867417     0.000498381822     0.000274039115
      17        0.000033554095    -0.000047932428    -0.000001162896
      18        0.000001231976     0.000052105851     0.000004605032
      19        0.000012707000    -0.000021661095    -0.000082911474
      20       -0.000810436934    -0.000574514926    -0.000066682574
      21       -0.000002265187     0.000038326369    -0.000012476269
      22       -0.000020814915    -0.000010207929     0.000085618901
      23       -0.000039874827     0.000053207810     0.000002861647
      24        0.000007310965     0.000007321518    -0.000072429316
      25        0.000001049618    -0.000038493416     0.000018975507
      26       -0.000005787728     0.000029069145     0.000010508722
      27        0.000012232645    -0.000014349274    -0.000004663346

  **** Optimization is complete! (in 6 steps) ****
    Final optimized geometry and variables:
    Molecular point group: c1

    Geometry (in Angstrom), charge = 0, multiplicity = 1:

    H           -0.990743060733     0.694057387503     2.668357584156
    O           -0.300396778152     0.624833919785     3.311508700390
    C            0.341364819211    -0.618728735277     3.185334119171
    C            1.239903999539    -0.709520387422     1.956859554874
    H            0.936130516255    -0.735072697308     4.082198152267
    H           -0.390039964200    -1.425977433773     3.175795847854
    C            0.488728023006    -0.605233551954     0.627193394415
    H            1.986794339119     0.077880606062     2.016957451271
    H            1.774182665232    -1.657256611941     1.996825746729
    C            1.419057281980    -0.741669365186    -0.580730490249
    H           -0.022989063597     0.351324116542     0.584233318132
    H           -0.279384321182    -1.377113341644     0.583535559468
    C            0.749132473910    -0.813144851891    -1.960354780289
    H            2.126730283262     0.085485893604    -0.574488207664
    H            2.013083519581    -1.644848906979    -0.455155641410
    C           -0.017862811441     0.439254366285    -2.423193975999
    H            1.536058154116    -1.016296388463    -2.682063596337
    H            0.085586576838    -1.675753531158    -1.995524140918
    C           -1.500069265241     0.488150773333    -2.034792305943
    H            0.029947348977     0.487206487686    -3.508814338715
    H            0.486666114427     1.333202150980    -2.059984417959
    C           -2.197850860306     1.748550849761    -2.545876759466
    H           -1.999216002275    -0.388681256354    -2.441807183100
    H           -1.616924682990     0.429193584382    -0.958001129096
    H           -2.136240926821     1.819391556753    -3.628181609101
    H           -3.248910659614     1.755078015547    -2.273741580490
    H           -1.743386865759     2.644016587836    -2.131227081928

  Mulliken Charges: (a.u.)
   Center  Symbol    Alpha    Beta     Spin     Total
       1     H     0.28004  0.28004  0.00000  0.43993
       2     O     4.37085  4.37085  0.00000 -0.74169
       3     C     2.99749  2.99749  0.00000  0.00503
       4     C     3.16095  3.16095  0.00000 -0.32191
       5     H     0.41439  0.41439  0.00000  0.17121
       6     H     0.43194  0.43194  0.00000  0.13612
       7     C     3.16350  3.16350  0.00000 -0.32700
       8     H     0.41506  0.41506  0.00000  0.16988
       9     H     0.42428  0.42428  0.00000  0.15145
      10     C     3.15093  3.15093  0.00000 -0.30186
      11     H     0.42271  0.42271  0.00000  0.15459
      12     H     0.42510  0.42510  0.00000  0.14981
      13     C     3.15585  3.15585  0.00000 -0.31170
      14     H     0.42181  0.42181  0.00000  0.15637
      15     H     0.42234  0.42234  0.00000  0.15531
      16     C     3.15442  3.15442  0.00000 -0.30884
      17     H     0.41932  0.41932  0.00000  0.16136
      18     H     0.42351  0.42351  0.00000  0.15298
      19     C     3.15247  3.15247  0.00000 -0.30494
      20     H     0.42135  0.42135  0.00000  0.15729
      21     H     0.42261  0.42261  0.00000  0.15477
      22     C     3.24006  3.24006  0.00000 -0.48013
      23     H     0.42300  0.42300  0.00000  0.15400
      24     H     0.42371  0.42371  0.00000  0.15258
      25     H     0.42129  0.42129  0.00000  0.15742
      26     H     0.41956  0.41956  0.00000  0.16087
      27     H     0.42146  0.42146  0.00000  0.15709

   Total alpha = 37.00000, Total beta = 37.00000, Total charge =  0.00000
