  ==> Input File <==

--------------------------------------------------------------------------
set {
	reference rhf
	basis 6-31G*
}

set_num_threads( 4 )
memory 2 gb

molecule MOL {
0 1

H	 -3.407059	 -1.043082	 0.000000
O	 -3.119761	 -0.140267	 0.000000
C	 -1.777559	 -0.059267	 0.000000
C	 -1.037447	 -0.014602	 -1.177812
C	 -1.140286	 -0.020808	 1.233884
H	 -1.539189	 -0.044881	 -2.129992
C	 0.337770	 0.068390	 -1.116903
H	 -1.733014	 -0.056578	 2.128124
C	 0.235779	 0.062235	 1.278425
H	 0.921302	 0.103606	 -2.017654
C	 0.990855	 0.107803	 0.110773
H	 0.730118	 0.092068	 2.234354
C	 2.462961	 0.196643	 0.174203
O	 3.182295	 0.240053	 -0.775235
H	 2.880920	 0.221866	 1.186053

	symmetry c1
}
set optking {
	frozen_dihedral = ("
		5 3 2 1
	")
}

ee = optimize('scf')
oeprop('DIPOLE', 'QUADRUPOLE', 'MULLIKEN_CHARGES')
f=open( 'psi4out.xyz', 'w' )
f.write( "15  " )
f.write( str(ee) + "\n" )
f.write( MOL.save_string_xyz() )
f.close()
--------------------------------------------------------------------------

    Molecular point group: c1
  Charge       = 0
  Multiplicity = 1
  Basis Set: 6-31G*
  Basis Set:
  @DF-RHF Final Energy:  -418.28310329838354
    Total Energy =                       -418.2831032983833666
    Molecular point group: c1
  Basis Set: 6-31G*
  Basis Set:
  Basis Set: 6-31G*
  Basis Set:
  @DF-RHF Final Energy:  -418.28406889645657
    Total Energy =                       -418.2840688964566880
  Basis Set: 6-31G*
  Basis Set:
  Basis Set: 6-31G*
  Basis Set:
  @DF-RHF Final Energy:  -418.28394716703531
    Total Energy =                       -418.2839471670355351
  Basis Set: 6-31G*
  Basis Set:
  Basis Set: 6-31G*
  Basis Set:
  @DF-RHF Final Energy:  -418.28402387497709
    Total Energy =                       -418.2840238749770378
  Basis Set: 6-31G*
  Basis Set:
  Basis Set: 6-31G*
  Basis Set:
  @DF-RHF Final Energy:  -418.28415228136436
    Total Energy =                       -418.2841522813648680
  Basis Set: 6-31G*
  Basis Set:
  Charge       = 0
  Multiplicity = 1
  Basis Set: 6-31G*
  Basis Set:

    Orbital Energies (a.u.)
    -----------------------

    Doubly Occupied:

       1A    -20.592844     2A    -20.561151     3A    -11.331638
       4A    -11.312555     5A    -11.260223     6A    -11.253275
       7A    -11.245281     8A    -11.243516     9A    -11.241888
      10A     -1.409913    11A     -1.402138    12A     -1.170655
      13A     -1.041300    14A     -1.036721    15A     -0.887545
      16A     -0.857018    17A     -0.796986    18A     -0.749992
      19A     -0.705490    20A     -0.672324    21A     -0.646129
      22A     -0.631473    23A     -0.617135    24A     -0.606960
      25A     -0.559548    26A     -0.552674    27A     -0.535649
      28A     -0.495658    29A     -0.482073    30A     -0.422247
      31A     -0.354903    32A     -0.341567

  @DF-RHF Final Energy:  -418.28415314480048

   => Energetics <=

    Nuclear Repulsion Energy =            400.7435918621984001
    One-Electron Energy =               -1364.0185469181728877
    Two-Electron Energy =                 544.9908019111737758
    DFT Exchange-Correlation Energy =       0.0000000000000000
    Empirical Dispersion Energy =           0.0000000000000000
    PCM Polarization Energy =               0.0000000000000000
    EFP Energy =                            0.0000000000000000
    Total Energy =                       -418.2841531448007117
    Molecular point group: c1
  Basis Set: 6-31G*
  Basis Set:

  -Total Gradient:
     Atom            X                  Y                   Z
    ------   -----------------  -----------------  -----------------
       1       -0.000032528480    -0.000012007540    -0.000010903574
       2       -0.000048858813    -0.000051270160     0.000010162170
       3        0.000072818380     0.000118330549    -0.000234697494
       4       -0.000194563629    -0.000043173882     0.000096511902
       5        0.000161406166     0.000017729653     0.000105977429
       6        0.000004047265     0.000005789132    -0.000001548446
       7        0.000166024684    -0.000022341710     0.000120843199
       8        0.000000997257     0.000008749402    -0.000016090150
       9       -0.000124123960    -0.000094642266     0.000090002991
      10       -0.000016353298     0.000005465840    -0.000005675212
      11       -0.000005632914     0.000037837769    -0.000175024079
      12        0.000022435838     0.000015856049    -0.000004121560
      13        0.000014245327     0.000038889645     0.000031554602
      14       -0.000013060312    -0.000015021050    -0.000006875959
      15       -0.000006853501    -0.000010191431    -0.000000115813

  **** Optimization is complete! (in 6 steps) ****
    Final optimized geometry and variables:
    Molecular point group: c1

    Geometry (in Angstrom), charge = 0, multiplicity = 1:

    H           -3.430069604447    -1.068490280002     0.004016394472
    O           -3.132114363737    -0.168027156017     0.001049161838
    C           -1.768169114381    -0.114685267803     0.055089641318
    C           -1.037225147362    -0.063448414236    -1.125412860047
    C           -1.130615823684    -0.067896317269     1.283380300366
    H           -1.559318866572    -0.086031556135    -2.064024590437
    C            0.338207124518     0.025906710251    -1.073028257238
    H           -1.717996382457    -0.092687569456     2.182369529367
    C            0.249827664660     0.022087259408     1.327625089615
    H            0.920488590726     0.066762045796    -1.974248813685
    C            0.992310074678     0.067395688268     0.155812757712
    H            0.749512057777     0.059704186473     2.280388960345
    C            2.468317104434     0.163416141864     0.216445791528
    O            3.182983775424     0.201570556053    -0.735470402363
    H            2.888723056346     0.198129231581     1.226602754164

  Mulliken Charges: (a.u.)
   Center  Symbol    Alpha    Beta     Spin     Total
       1     H     0.26818  0.26818  0.00000  0.46364
       2     O     4.38556  4.38556  0.00000 -0.77111
       3     C     2.81047  2.81047  0.00000  0.37906
       4     C     3.12130  3.12130  0.00000 -0.24259
       5     C     3.12256  3.12256  0.00000 -0.24512
       6     H     0.38823  0.38823  0.00000  0.22353
       7     C     3.08515  3.08515  0.00000 -0.17029
       8     H     0.38926  0.38926  0.00000  0.22148
       9     C     3.09912  3.09912  0.00000 -0.19825
      10     H     0.37498  0.37498  0.00000  0.25004
      11     C     3.06003  3.06003  0.00000 -0.12006
      12     H     0.39003  0.39003  0.00000  0.21994
      13     C     2.83093  2.83093  0.00000  0.33813
      14     O     4.25074  4.25074  0.00000 -0.50149
      15     H     0.42346  0.42346  0.00000  0.15308

   Total alpha = 32.00000, Total beta = 32.00000, Total charge =  0.00000
