  ==> Input File <==

--------------------------------------------------------------------------
set {
	reference rhf
	basis cc-pvtz
}

set_num_threads( 4 )
memory 2 gb

molecule MOL {
0 1

O	 -0.954430	 -1.413721	 -0.409510
C	 -0.664649	 -0.261928	 -0.254207
C	 -1.747487	 0.797451	 -0.250769
N	 0.622280	 0.144970	 -0.099307
H	 -1.586593	 1.528611	 -1.032986
H	 -2.687318	 0.298080	 -0.417620
H	 -1.784540	 1.320708	 0.696756
C	 1.664396	 -0.854993	 0.000772
C	 1.003799	 1.476609	 0.306816
H	 2.462727	 -0.615153	 -0.690869
H	 1.261798	 -1.821849	 -0.240651
H	 2.081615	 -0.891605	 1.003877
H	 1.949184	 1.732045	 -0.154309
H	 0.280900	 2.210801	 -0.005072
H	 1.128032	 1.552392	 1.384715

	symmetry c1
}
set optking {
	frozen_dihedral = ("
		2 4 8 10
	")
}

ee = optimize('scf')
oeprop('DIPOLE', 'QUADRUPOLE', 'MULLIKEN_CHARGES')
f=open( 'psi4out.xyz', 'w' )
f.write( "15  " )
f.write( str(ee) + "\n" )
f.write( MOL.save_string_xyz() )
f.close()
--------------------------------------------------------------------------

    Molecular point group: c1
  Charge       = 0
  Multiplicity = 1
  Basis Set: CC-PVTZ
  Basis Set:
  @DF-RHF Final Energy:  -286.13546739980620
    Total Energy =                       -286.1354673998059752
    Molecular point group: c1
  Basis Set: CC-PVTZ
  Basis Set:
  Basis Set: CC-PVTZ
  Basis Set:
  @DF-RHF Final Energy:  -286.13555627935028
    Total Energy =                       -286.1355562793505669
  Basis Set: CC-PVTZ
  Basis Set:
  Basis Set: CC-PVTZ
  Basis Set:
  @DF-RHF Final Energy:  -286.13550932086707
    Total Energy =                       -286.1355093208670723
  Basis Set: CC-PVTZ
  Basis Set:
  Basis Set: CC-PVTZ
  Basis Set:
  @DF-RHF Final Energy:  -286.13560026144160
    Total Energy =                       -286.1356002614414251
  Basis Set: CC-PVTZ
  Basis Set:
  @DF-RHF Final Energy:  -286.13560657315873
    Total Energy =                       -286.1356065731586114
  @DF-RHF Final Energy:  -286.13560968522461
    Total Energy =                       -286.1356096852251198
  Basis Set: CC-PVTZ
  Basis Set:
  @DF-RHF Final Energy:  -286.13561197587978
    Total Energy =                       -286.1356119758799537
  Basis Set: CC-PVTZ
  Basis Set:
  Basis Set: CC-PVTZ
  Basis Set:
  @DF-RHF Final Energy:  -286.13561395373983
    Total Energy =                       -286.1356139537397780
  Basis Set: CC-PVTZ
  Basis Set:
  Basis Set: CC-PVTZ
  Basis Set:
  @DF-RHF Final Energy:  -286.13561546810570
    Total Energy =                       -286.1356154681056978
  Basis Set: CC-PVTZ
  Basis Set:
  Charge       = 0
  Multiplicity = 1
  Basis Set: CC-PVTZ
  Basis Set:

    Orbital Energies (a.u.)
    -----------------------

    Doubly Occupied:

       1A    -20.502592     2A    -15.578768     3A    -11.335312
       4A    -11.264109     5A    -11.246420     6A    -11.226421
       7A     -1.386644     8A     -1.246607     9A     -1.015103
      10A     -0.973412    11A     -0.921480    12A     -0.739357
      13A     -0.683365    14A     -0.662207    15A     -0.653843
      16A     -0.590626    17A     -0.577920    18A     -0.566870
      19A     -0.561596    20A     -0.548725    21A     -0.530430
      22A     -0.507730    23A     -0.413008    24A     -0.369877

  @DF-RHF Final Energy:  -286.13561631854247

   => Energetics <=

    Nuclear Repulsion Energy =            252.8195147825691720
    One-Electron Energy =                -889.7054151985749968
    Two-Electron Energy =                 350.7502840974632363
    DFT Exchange-Correlation Energy =       0.0000000000000000
    Empirical Dispersion Energy =           0.0000000000000000
    PCM Polarization Energy =               0.0000000000000000
    EFP Energy =                            0.0000000000000000
    Total Energy =                       -286.1356163185425885
    Molecular point group: c1
  Basis Set: CC-PVTZ
  Basis Set:

  -Total Gradient:
     Atom            X                  Y                   Z
    ------   -----------------  -----------------  -----------------
       1        0.000032994883     0.000020715775     0.000005019406
       2       -0.000001914505    -0.000022166613    -0.000136226852
       3       -0.000003007313     0.000008275321     0.000041454968
       4       -0.000049789644    -0.000029686228     0.000121513725
       5        0.000011988080    -0.000003545395    -0.000006860841
       6        0.000003445708    -0.000001134444     0.000001147254
       7       -0.000010546215     0.000007498208    -0.000008985341
       8        0.000076660140     0.000095402188     0.000090047595
       9       -0.000004435837    -0.000003283760     0.000015857764
      10       -0.000059512798    -0.000070458639    -0.000107673181
      11       -0.000001693673    -0.000007874171    -0.000004717942
      12       -0.000001664918     0.000005522463    -0.000004609848
      13        0.000003797448    -0.000004033151     0.000001381481
      14        0.000006836654     0.000003830135    -0.000011945301
      15       -0.000003158015     0.000000938312     0.000004597112

  **** Optimization is complete! (in 10 steps) ****
    Final optimized geometry and variables:
    Molecular point group: c1

    Geometry (in Angstrom), charge = 0, multiplicity = 1:

    O           -0.952563819744    -1.393444591731    -0.335117851889
    C           -0.662334704716    -0.246467378467    -0.145915502483
    C           -1.744380440302     0.814226608397    -0.139453737426
    N            0.619419517684     0.152113317806     0.053355090004
    H           -1.584052343939     1.544024789041    -0.923258747128
    H           -2.684153690690     0.315032923166    -0.306893167356
    H           -1.781160475770     1.338595754790     0.807202622410
    C            1.670320376523    -0.839671233927     0.130014284348
    C            1.015732544579     1.492272190617     0.411296672299
    H            2.485197344602    -0.567535952247    -0.531529673415
    H            1.282254650696    -1.798490113136    -0.160929061459
    H            2.062028478241    -0.908763488773     1.140995233866
    H            1.928066901249     1.749575826387    -0.113119507496
    H            0.268245021846     2.217100653453     0.139831325690
    H            1.208994405187     1.581301083362     1.477475990079

  Mulliken Charges: (a.u.)
   Center  Symbol    Alpha    Beta     Spin     Total
       1     O     4.22203  4.22203  0.00000 -0.44406
       2     C     2.84640  2.84640  0.00000  0.30720
       3     C     3.16049  3.16049  0.00000 -0.32098
       4     N     3.55933  3.55933  0.00000 -0.11866
       5     H     0.44925  0.44925  0.00000  0.10149
       6     H     0.42854  0.42854  0.00000  0.14293
       7     H     0.44946  0.44946  0.00000  0.10107
       8     C     3.10054  3.10054  0.00000 -0.20108
       9     C     3.09509  3.09509  0.00000 -0.19019
      10     H     0.45631  0.45631  0.00000  0.08738
      11     H     0.42515  0.42515  0.00000  0.14970
      12     H     0.45803  0.45803  0.00000  0.08394
      13     H     0.45045  0.45045  0.00000  0.09910
      14     H     0.44498  0.44498  0.00000  0.11004
      15     H     0.45395  0.45395  0.00000  0.09211

   Total alpha = 24.00000, Total beta = 24.00000, Total charge = -0.00000
