  ==> Input File <==

--------------------------------------------------------------------------
set {
	reference rhf
	basis 6-31G*
}

set_num_threads( 4 )
memory 2 gb

molecule MOL {
0 1

O	 -2.042549	 -1.228399	 -0.269030
C	 -1.653912	 -0.146171	 0.050137
C	 -0.332303	 0.024011	 0.778412
C	 -2.438579	 1.106236	 -0.272369
C	 0.845713	 -0.001731	 -0.208243
H	 -0.323783	 0.953829	 1.340327
H	 -0.235459	 -0.796807	 1.480410
C	 2.032183	 -0.814345	 0.312312
H	 1.172340	 1.015326	 -0.417987
H	 0.499682	 -0.417771	 -1.149685
C	 3.201674	 -0.849095	 -0.670689
H	 2.367784	 -0.398064	 1.259681
H	 1.705470	 -1.830103	 0.522220
H	 3.573210	 0.151113	 -0.874642
H	 2.904479	 -1.290654	 -1.617338
H	 4.026642	 -1.434196	 -0.276848
H	 -3.277823	 0.863061	 -0.908988
H	 -1.806773	 1.843019	 -0.759671
H	 -2.802853	 1.554979	 0.648059

	symmetry c1
}
set optking {
	frozen_dihedral = ("
		9 5 3 2
	")
}

ee = optimize('scf')
oeprop('DIPOLE', 'QUADRUPOLE', 'MULLIKEN_CHARGES')
f=open( 'psi4out.xyz', 'w' )
f.write( "19  " )
f.write( str(ee) + "\n" )
f.write( MOL.save_string_xyz() )
f.close()
--------------------------------------------------------------------------

    Molecular point group: c1
  Charge       = 0
  Multiplicity = 1
  Basis Set: 6-31G*
  Basis Set:
  @DF-RHF Final Energy:  -309.06065839579088
    Total Energy =                       -309.0606583957909379
    Molecular point group: c1
  Basis Set: 6-31G*
  Basis Set:
  Basis Set: 6-31G*
  Basis Set:
  @DF-RHF Final Energy:  -309.06090593875126
    Total Energy =                       -309.0609059387511479
  Basis Set: 6-31G*
  Basis Set:
  Basis Set: 6-31G*
  Basis Set:
  @DF-RHF Final Energy:  -309.06105374235671
    Total Energy =                       -309.0610537423567621
  Basis Set: 6-31G*
  Basis Set:
  Basis Set: 6-31G*
  Basis Set:
  @DF-RHF Final Energy:  -309.06114393515071
    Total Energy =                       -309.0611439351506533
  Basis Set: 6-31G*
  Basis Set:
  @DF-RHF Final Energy:  -309.06118917209619
    Total Energy =                       -309.0611891720960216
  @DF-RHF Final Energy:  -309.06123617697500
    Total Energy =                       -309.0612361769750009
  @DF-RHF Final Energy:  -309.06127957558778
    Total Energy =                       -309.0612795755880029
  Basis Set: 6-31G*
  Basis Set:
  @DF-RHF Final Energy:  -309.06132336461013
    Total Energy =                       -309.0613233646100753
  Basis Set: 6-31G*
  Basis Set:
  Basis Set: 6-31G*
  Basis Set:
  @DF-RHF Final Energy:  -309.06133581250612
    Total Energy =                       -309.0613358125057744
  Basis Set: 6-31G*
  Basis Set:
  Basis Set: 6-31G*
  Basis Set:
  @DF-RHF Final Energy:  -309.06134582923369
    Total Energy =                       -309.0613458292339715
  Basis Set: 6-31G*
  Basis Set:
  Charge       = 0
  Multiplicity = 1
  Basis Set: 6-31G*
  Basis Set:

    Orbital Energies (a.u.)
    -----------------------

    Doubly Occupied:

       1A    -20.547703     2A    -11.324204     3A    -11.233368
       4A    -11.229061     5A    -11.227483     6A    -11.224808
       7A    -11.215105     8A     -1.393184     9A     -1.091250
      10A     -1.028977    11A     -0.981330    12A     -0.892304
      13A     -0.808320    14A     -0.733970    15A     -0.663572
      16A     -0.638600    17A     -0.627335    18A     -0.612429
      19A     -0.581310    20A     -0.575518    21A     -0.554189
      22A     -0.530426    23A     -0.517564    24A     -0.501761
      25A     -0.480367    26A     -0.474403    27A     -0.468166
      28A     -0.397008

  @DF-RHF Final Energy:  -309.06134648379930

   => Energetics <=

    Nuclear Repulsion Energy =            301.7424831768395279
    One-Electron Energy =               -1016.5002283944995725
    Two-Electron Energy =                 405.6963987338607467
    DFT Exchange-Correlation Energy =       0.0000000000000000
    Empirical Dispersion Energy =           0.0000000000000000
    PCM Polarization Energy =               0.0000000000000000
    EFP Energy =                            0.0000000000000000
    Total Energy =                       -309.0613464837992979
    Molecular point group: c1
  Basis Set: 6-31G*
  Basis Set:

  -Total Gradient:
     Atom            X                  Y                   Z
    ------   -----------------  -----------------  -----------------
       1        0.000025119752     0.000006246102     0.000001401107
       2        0.000162118726    -0.002524973090     0.000017491809
       3        0.000296442592     0.003363710956     0.000562116682
       4       -0.000029286870     0.000008701124     0.000033462695
       5       -0.002785904330    -0.000436552525    -0.003196230625
       6       -0.000002254939     0.000001295005    -0.000011369419
       7        0.000011118303    -0.000007402885     0.000000688223
       8       -0.000022024157     0.000000067847     0.000002785734
       9        0.002331501763    -0.000399688085     0.002591649832
      10       -0.000014688122     0.000002239267     0.000025125393
      11        0.000006760534     0.000005372330     0.000001780194
      12        0.000002060508    -0.000001869600    -0.000007070893
      13       -0.000003293270    -0.000004301482     0.000001442047
      14       -0.000002276880    -0.000000364592    -0.000003535515
      15        0.000000085352    -0.000002548587     0.000003310285
      16        0.000004677673     0.000001927561    -0.000000243335
      17        0.000003846954    -0.000004743639    -0.000006308314
      18        0.000001924152    -0.000009460722    -0.000010226766
      19        0.000014072255     0.000002345016    -0.000006269135

  **** Optimization is complete! (in 11 steps) ****
    Final optimized geometry and variables:
    Molecular point group: c1

    Geometry (in Angstrom), charge = 0, multiplicity = 1:

    O           -2.209742059085    -0.933502330364     0.128255753908
    C           -1.624047257336     0.104563975812     0.182266061224
    C           -0.267301281662     0.209642464377     0.852949619011
    C           -2.193303345649     1.367144273871    -0.429482783905
    C            0.886654953252     0.274488689094    -0.177937017581
    H           -0.237009654075     1.079499380496     1.502460023806
    H           -0.162173031524    -0.672502074898     1.472494629612
    C            2.099012945749    -0.554473585199     0.255780000125
    H            1.208119055602     1.304406877997    -0.305531993550
    H            0.549059139061    -0.079426269995    -1.148552916357
    C            3.264860403949    -0.457122617517    -0.726587157009
    H            2.424777239409    -0.224627315465     1.239948601639
    H            1.799035277475    -1.593567546136     0.363548347338
    H            3.610132722739     0.567980485745    -0.827699790257
    H            2.976274394352    -0.807730597617    -1.713399307166
    H            4.106015504311    -1.057867189391    -0.395673982907
    H           -3.090917961775     1.134814759256    -0.985551725499
    H           -1.469458843798     1.844192882269    -1.083176208770
    H           -2.432363256604     2.077243993226     0.357750354909

  Mulliken Charges: (a.u.)
   Center  Symbol    Alpha    Beta     Spin     Total
       1     O     4.26064  4.26064  0.00000 -0.52128
       2     C     2.73907  2.73907  0.00000  0.52187
       3     C     3.20378  3.20378  0.00000 -0.40756
       4     C     3.28978  3.28978  0.00000 -0.57956
       5     C     3.16183  3.16183  0.00000 -0.32366
       6     H     0.41281  0.41281  0.00000  0.17438
       7     H     0.39858  0.39858  0.00000  0.20285
       8     C     3.15359  3.15359  0.00000 -0.30718
       9     H     0.41824  0.41824  0.00000  0.16351
      10     H     0.41313  0.41313  0.00000  0.17374
      11     C     3.24125  3.24125  0.00000 -0.48250
      12     H     0.42088  0.42088  0.00000  0.15824
      13     H     0.41569  0.41569  0.00000  0.16863
      14     H     0.42157  0.42157  0.00000  0.15685
      15     H     0.41966  0.41966  0.00000  0.16068
      16     H     0.41666  0.41666  0.00000  0.16667
      17     H     0.39695  0.39695  0.00000  0.20610
      18     H     0.40835  0.40835  0.00000  0.18330
      19     H     0.40753  0.40753  0.00000  0.18493

   Total alpha = 28.00000, Total beta = 28.00000, Total charge = -0.00000
