  ==> Input File <==

--------------------------------------------------------------------------
set {
	reference rhf
	basis 6-31G*
}

set_num_threads( 1 )
memory 2 gb

molecule MOL {
0 1

H	 -0.840373	 0.150075	 2.667105
O	 0.027892	 0.074926	 2.295191
C	 0.130242	 0.936018	 1.198829
C	 -0.793441	 0.596080	 0.058728
H	 1.159470	 0.877560	 0.863455
H	 -0.040204	 1.968890	 1.500737
C	 -1.530462	 -0.493172	 -0.025500
H	 -0.824180	 1.326199	 -0.735289
H	 -1.092586	 -1.461565	 -0.186463
H	 -2.602122	 -0.450675	 0.050101

	symmetry c1
}
set optking {
	frozen_dihedral = ("
		5 3 2 1,
		5 3 4 7
	")
}

ee = energy('scf')
oeprop('DIPOLE', 'QUADRUPOLE', 'MULLIKEN_CHARGES')
f=open( 'psi4out.xyz', 'w' )
f.write( "10  " )
f.write( str(ee) + "\n" )
f.write( MOL.save_string_xyz() )
f.close()
--------------------------------------------------------------------------

    Molecular point group: c1

    Geometry (in Angstrom), charge = 0, multiplicity = 1:

       Center              X                  Y                   Z               Mass
    ------------   -----------------  -----------------  -----------------  -----------------
           H         -0.320903561243    -0.127223001012     1.707655064607     1.007825032070
           O          0.547361438757    -0.202372001012     1.335741064607    15.994914619560
           C          0.649711438757     0.658719998988     0.239379064607    12.000000000000
           C         -0.273971561243     0.318781998988    -0.900721935393    12.000000000000
           H          1.678939438757     0.600261998988    -0.095994935393     1.007825032070
           H          0.479265438757     1.691591998988     0.541287064607     1.007825032070
           C         -1.010992561243    -0.770470001012    -0.984949935393    12.000000000000
           H         -0.304710561243     1.048900998988    -1.694738935393     1.007825032070
           H         -0.573116561243    -1.738863001012    -1.145912935393     1.007825032070
           H         -2.082652561243    -0.727973001012    -0.909348935393     1.007825032070

  Charge       = 0
  Multiplicity = 1
  Basis Set: 6-31G*
  Basis Set:

    Orbital Energies (a.u.)
    -----------------------

    Doubly Occupied:

       1A    -20.557234     2A    -11.279540     3A    -11.239607
       4A    -11.216897     5A     -1.366244     6A     -1.060359
       7A     -0.928670     8A     -0.769661     9A     -0.686831
      10A     -0.641942    11A     -0.618155    12A     -0.578933
      13A     -0.560753    14A     -0.504310    15A     -0.449149
      16A     -0.283352

  @DF-RHF Final Energy:  -191.80604738861979

   => Energetics <=

    Nuclear Repulsion Energy =            119.1480438799936792
    One-Electron Energy =                -496.4249092369063874
    Two-Electron Energy =                 185.4708179682929767
    DFT Exchange-Correlation Energy =       0.0000000000000000
    Empirical Dispersion Energy =           0.0000000000000000
    PCM Polarization Energy =               0.0000000000000000
    EFP Energy =                            0.0000000000000000
    Total Energy =                       -191.8060473886197315

  Mulliken Charges: (a.u.)
   Center  Symbol    Alpha    Beta     Spin     Total
       1     H     0.28386  0.28386  0.00000  0.43229
       2     O     4.36214  4.36214  0.00000 -0.72427
       3     C     2.99830  2.99830  0.00000  0.00339
       4     C     3.09395  3.09395  0.00000 -0.18790
       5     H     0.41368  0.41368  0.00000  0.17264
       6     H     0.41826  0.41826  0.00000  0.16349
       7     C     3.21152  3.21152  0.00000 -0.42303
       8     H     0.40696  0.40696  0.00000  0.18608
       9     H     0.40330  0.40330  0.00000  0.19340
      10     H     0.40804  0.40804  0.00000  0.18392

   Total alpha = 16.00000, Total beta = 16.00000, Total charge =  0.00000
