                              Psi4 1.0.54 Driver

  ==> Input File <==

--------------------------------------------------------------------------
set {
	reference rhf
	basis cc-pvtz
}

set_num_threads( 4 )
memory 2 gb

molecule MOL {
0 1

H	 -0.444709	 6.950613	 2.098808
C	 -1.389533	 6.423304	 2.034623
C	 -1.227580	 5.087245	 1.317656
H	 -1.757574	 6.279938	 3.044677
H	 -2.092456	 7.066089	 1.514502
C	 -2.542546	 4.319973	 1.198783
H	 -0.502553	 4.481724	 1.849274
H	 -0.822878	 5.260348	 0.323133
C	 -2.412303	 2.981003	 0.479697
H	 -2.954182	 4.151320	 2.186173
H	 -3.260157	 4.929239	 0.656924
C	 -1.695777	 1.901617	 1.273422
H	 -3.399726	 2.585497	 0.255340
H	 -1.918964	 3.101539	 -0.480306
C	 -1.180025	 0.697761	 0.509157
O	 -1.559019	 1.980327	 2.451716
C	 -2.285431	 -0.137488	 -0.145671
H	 -0.621454	 0.092728	 1.210423
H	 -0.490917	 1.046372	 -0.255564
C	 -3.646545	 0.082747	 0.508954
H	 -2.348635	 0.118247	 -1.199806
H	 -2.034895	 -1.192387	 -0.096473
C	 -4.757412	 -0.737227	 -0.138149
H	 -3.900211	 1.137405	 0.459735
H	 -3.580878	 -0.166775	 1.564416
H	 -4.867876	 -0.486707	 -1.187777
H	 -4.549650	 -1.800049	 -0.072540
H	 -5.709585	 -0.556397	 0.346597

	symmetry c1
}
set optking {
	frozen_dihedral = ("
		12 15 17 21
	")
}

ee,wfn = optimize('scf', return_wfn=True)
oeprop( wfn, 'DIPOLE', 'QUADRUPOLE', 'MULLIKEN_CHARGES')
f=open( 'psi4out.xyz', 'w' )
f.write( "28  " )
f.write( str(ee) + "\n" )
f.write( MOL.save_string_xyz() )
f.close()
--------------------------------------------------------------------------

    Molecular point group: c1
  Charge       = 0
  Multiplicity = 1
  Basis Set: CC-PVTZ
  Basis Set:
  @DF-RHF Final Energy:  -426.30142978591573
    Total Energy =                       -426.3014297859164117
    Molecular point group: c1
  Basis Set: CC-PVTZ
  Basis Set:
  Basis Set: CC-PVTZ
  Basis Set:
  @DF-RHF Final Energy:  -426.31031917599569
    Total Energy =                       -426.3103191759955735
  Basis Set: CC-PVTZ
  Basis Set:
  Basis Set: CC-PVTZ
  Basis Set:
  @DF-RHF Final Energy:  -426.31248864014526
    Total Energy =                       -426.3124886401449203
  Basis Set: CC-PVTZ
  Basis Set:
  Basis Set: CC-PVTZ
  Basis Set:
  @DF-RHF Final Energy:  -426.30961551407518
    Total Energy =                       -426.3096155140754036
  Basis Set: CC-PVTZ
  Basis Set:
  @DF-RHF Final Energy:  -426.31335358200056
    Total Energy =                       -426.3133535819999906
  @DF-RHF Final Energy:  -426.24336032938629
    Total Energy =                       -426.2433603293864053
  @DF-RHF Final Energy:  -426.30794298636999
    Total Energy =                       -426.3079429863696532
  @DF-RHF Final Energy:  -426.31365965401790
    Total Energy =                       -426.3136596540177834
  @DF-RHF Final Energy:  -426.31399078807283
    Total Energy =                       -426.3139907880723740
  @DF-RHF Final Energy:  -426.31392084403103
    Total Energy =                       -426.3139208440311450
  Basis Set: CC-PVTZ
  Basis Set:
  @DF-RHF Final Energy:  -426.31416261165941
    Total Energy =                       -426.3141626116585030
  Basis Set: CC-PVTZ
  Basis Set:
  Basis Set: CC-PVTZ
  Basis Set:
  @DF-RHF Final Energy:  -426.31417502268755
    Total Energy =                       -426.3141750226868680
  Basis Set: CC-PVTZ
  Basis Set:
  Basis Set: CC-PVTZ
  Basis Set:
  @DF-RHF Final Energy:  -426.31417693309311
    Total Energy =                       -426.3141769330927673
  Basis Set: CC-PVTZ
  Basis Set:
  Charge       = 0
  Multiplicity = 1
  Basis Set: CC-PVTZ
  Basis Set:

    Orbital Energies (a.u.)
    -----------------------

    Doubly Occupied:

       1A    -20.536895     2A    -11.316828     3A    -11.228892
       4A    -11.228855     5A    -11.226635     6A    -11.219009
       7A    -11.214752     8A    -11.211132     9A    -11.208604
      10A    -11.202798    11A     -1.397377    12A     -1.091697
      13A     -1.077116    14A     -1.021302    15A     -0.991015
      16A     -0.908407    17A     -0.872786    18A     -0.813113
      19A     -0.795516    20A     -0.721417    21A     -0.664978
      22A     -0.653008    23A     -0.629636    24A     -0.617390
      25A     -0.608955    26A     -0.584296    27A     -0.580531
      28A     -0.571568    29A     -0.554291    30A     -0.532757
      31A     -0.517055    32A     -0.508852    33A     -0.498634
      34A     -0.487034    35A     -0.475789    36A     -0.469040
      37A     -0.465120    38A     -0.463562    39A     -0.457444
      40A     -0.393865

  @DF-RHF Final Energy:  -426.31417783439929

   => Energetics <=

    Nuclear Repulsion Energy =            544.3223112582001022
    One-Electron Energy =               -1657.2370770794559576
    Two-Electron Energy =                 686.6005879868570219
    DFT Exchange-Correlation Energy =       0.0000000000000000
    Empirical Dispersion Energy =           0.0000000000000000
    PCM Polarization Energy =               0.0000000000000000
    EFP Energy =                            0.0000000000000000
    Total Energy =                       -426.3141778343989472
    Molecular point group: c1
  Basis Set: CC-PVTZ
  Basis Set:

  -Total Gradient:
     Atom            X                  Y                   Z
    ------   -----------------  -----------------  -----------------
       1        0.000000722375    -0.000008607881    -0.000008711708
       2       -0.000033423476     0.000004843737    -0.000006941027
       3        0.000018397418    -0.000070320391     0.000066826183
       4        0.000007504223     0.000003255045    -0.000008119245
       5        0.000004875336     0.000004997603     0.000007092668
       6       -0.000003155063    -0.000027036048     0.000016158585
       7       -0.000000147265     0.000035956228    -0.000045986191
       8       -0.000010618979     0.000010826893    -0.000013063212
       9        0.000021352387     0.000035254389    -0.000033711171
      10       -0.000007860323     0.000003435372     0.000001050474
      11       -0.000000918948    -0.000012968300    -0.000011355757
      12       -0.001818676371    -0.000781663484     0.003896778687
      13        0.000007195166     0.000037525805     0.000038421583
      14        0.000016879486    -0.000002483125     0.000004360976
      15        0.002922083040    -0.000236524775    -0.005216173397
      16        0.000028149663     0.000019438481    -0.000045815760
      17       -0.002743928449     0.006492085022     0.000551769241
      18       -0.000005333239     0.000008993719    -0.000015279046
      19       -0.000003679100    -0.000002721064     0.000002855759
      20       -0.000028376226     0.000015203011     0.000031505150
      21        0.001637894769    -0.005524686867     0.000797189385
      22        0.000004152795     0.000007148145     0.000009002647
      23       -0.000004397886    -0.000006570296    -0.000007708227
      24       -0.000006052976    -0.000007875207    -0.000009326055
      25       -0.000009489082    -0.000000250382    -0.000002504521
      26       -0.000003112675     0.000004398932    -0.000001473866
      27       -0.000000018246     0.000001564177     0.000005558153
      28        0.000009981646    -0.000003218741    -0.000002400304

  **** Optimization is complete! (in 14 steps) ****
    Final optimized geometry and variables:
    Molecular point group: c1

    Geometry (in Angstrom), charge = 0, multiplicity = 1:

    H            2.787459197811     4.170853971679     1.448375195738
    C            1.961045924864     3.877933550732     0.811118096751
    C            2.009312983947     2.386385394925     0.497916975875
    H            1.040927661903     4.138029364276     1.323082544307
    H            2.015102230335     4.473070320947    -0.094944250494
    C            0.867470648235     1.940602153843    -0.413310085878
    H            1.974408560441     1.822877284879     1.421738261331
    H            2.957705312435     2.150950372555     0.020469241001
    C            0.882567665612     0.452031592575    -0.745345400282
    H           -0.081281176943     2.191703166464     0.046842313509
    H            0.922346202192     2.498092173265    -1.343982473307
    C            0.419906470372    -0.468826761965     0.367664726604
    H            0.250668635767     0.245337129179    -1.605643910002
    H            1.879160117226     0.132374275770    -1.040828204122
    C            0.387134004741    -1.954512973333     0.055199795714
    O            0.083979088481    -0.062885572620     1.432743250614
    C           -0.907402483628    -2.434602828752    -0.648261698776
    H            0.479396124122    -2.454417965911     1.009722367044
    H            1.245872093864    -2.225194700673    -0.547158585698
    C           -2.170905550380    -1.620075460085    -0.383859957053
    H           -0.729443748872    -2.534560639357    -1.714440447318
    H           -1.085292073324    -3.450865195938    -0.311079624059
    C           -3.403349352806    -2.246290539240    -1.027717463846
    H           -2.052353912565    -0.608093949996    -0.758112812620
    H           -2.323244461478    -1.528717666909     0.685714033054
    H           -3.287991709497    -2.325649639983    -2.103764523477
    H           -3.583094086123    -3.243715447435    -0.640974438938
    H           -4.288252363288    -1.652038359988    -0.833057672633

  Mulliken Charges: (a.u.)
   Center  Symbol    Alpha    Beta     Spin     Total
       1     H     0.44870  0.44870  0.00000  0.10261
       2     C     3.15181  3.15181  0.00000 -0.30361
       3     C     3.08321  3.08321  0.00000 -0.16643
       4     H     0.45233  0.45233  0.00000  0.09533
       5     H     0.45747  0.45747  0.00000  0.08506
       6     C     3.08757  3.08757  0.00000 -0.17513
       7     H     0.44320  0.44320  0.00000  0.11360
       8     H     0.45898  0.45898  0.00000  0.08203
       9     C     3.12907  3.12907  0.00000 -0.25814
      10     H     0.44702  0.44702  0.00000  0.10596
      11     H     0.44813  0.44813  0.00000  0.10375
      12     C     2.86407  2.86407  0.00000  0.27187
      13     H     0.43369  0.43369  0.00000  0.13262
      14     H     0.44061  0.44061  0.00000  0.11878
      15     C     3.09919  3.09919  0.00000 -0.19838
      16     O     4.18419  4.18419  0.00000 -0.36837
      17     C     3.11049  3.11049  0.00000 -0.22097
      18     H     0.43763  0.43763  0.00000  0.12474
      19     H     0.44207  0.44207  0.00000  0.11587
      20     C     3.08554  3.08554  0.00000 -0.17107
      21     H     0.44819  0.44819  0.00000  0.10362
      22     H     0.44557  0.44557  0.00000  0.10886
      23     C     3.15151  3.15151  0.00000 -0.30303
      24     H     0.45362  0.45362  0.00000  0.09277
      25     H     0.44005  0.44005  0.00000  0.11989
      26     H     0.45624  0.45624  0.00000  0.08752
      27     H     0.45381  0.45381  0.00000  0.09238
      28     H     0.44605  0.44605  0.00000  0.10789

   Total alpha = 40.00000, Total beta = 40.00000, Total charge =  0.00000

*** Psi4 exiting successfully. Buy a developer a beer!
