                              Psi4 1.0.54 Driver

  ==> Input File <==

--------------------------------------------------------------------------
set {
	reference rhf
	basis cc-pvtz
}

set_num_threads( 4 )
memory 2 gb

molecule MOL {
0 1

H	 2.230722	 -0.954360	 -0.794266
C	 1.469638	 -0.209641	 -0.955440
O	 0.462329	 -0.453336	 -0.000137
H	 1.083919	 -0.307477	 -1.962350
H	 1.901563	 0.774461	 -0.824209
C	 -0.590565	 0.341382	 0.000062
O	 -1.693898	 -0.053880	 0.000252
H	 -0.340426	 1.403822	 0.000200

	symmetry c1
}
set optking {
	frozen_dihedral = ("
		2 3 6 7
	")
}

ee,wfn = optimize('scf', return_wfn=True)
oeprop( wfn, 'DIPOLE', 'QUADRUPOLE', 'MULLIKEN_CHARGES')
f=open( 'psi4out.xyz', 'w' )
f.write( "8  " )
f.write( str(ee) + "\n" )
f.write( MOL.save_string_xyz() )
f.close()
--------------------------------------------------------------------------

    Molecular point group: c1
  Charge       = 0
  Multiplicity = 1
  Basis Set: CC-PVTZ
  Basis Set:
  @DF-RHF Final Energy:  -227.86379499516477
    Total Energy =                       -227.8637949951645965
    Molecular point group: c1
  Basis Set: CC-PVTZ
  Basis Set:
  Basis Set: CC-PVTZ
  Basis Set:
  @DF-RHF Final Energy:  -227.86383019162952
    Total Energy =                       -227.8638301916294893
  Basis Set: CC-PVTZ
  Basis Set:
  Basis Set: CC-PVTZ
  Basis Set:
  @DF-RHF Final Energy:  -227.86337426020441
    Total Energy =                       -227.8633742602044663
  Basis Set: CC-PVTZ
  Basis Set:
  Basis Set: CC-PVTZ
  Basis Set:
  @DF-RHF Final Energy:  -227.86418563518703
    Total Energy =                       -227.8641856351869137
  Basis Set: CC-PVTZ
  Basis Set:
  Basis Set: CC-PVTZ
  Basis Set:
  @DF-RHF Final Energy:  -227.86419949223475
    Total Energy =                       -227.8641994922347749
  Basis Set: CC-PVTZ
  Basis Set:
  Charge       = 0
  Multiplicity = 1
  Basis Set: CC-PVTZ
  Basis Set:

    Orbital Energies (a.u.)
    -----------------------

    Doubly Occupied:

       1A    -20.600541     2A    -20.556212     3A    -11.375719
       4A    -11.300949     5A     -1.476678     6A     -1.387922
       7A     -0.989892     8A     -0.845195     9A     -0.740573
      10A     -0.689784    11A     -0.679608    12A     -0.619552
      13A     -0.569855    14A     -0.526848    15A     -0.473034
      16A     -0.459719

  @DF-RHF Final Energy:  -227.86420190232900

   => Energetics <=

    Nuclear Repulsion Energy =            121.6769135527769663
    One-Electron Energy =                -552.4980643242710130
    Two-Electron Energy =                 202.9569488691652168
    DFT Exchange-Correlation Energy =       0.0000000000000000
    Empirical Dispersion Energy =           0.0000000000000000
    PCM Polarization Energy =               0.0000000000000000
    EFP Energy =                            0.0000000000000000
    Total Energy =                       -227.8642019023288299
    Molecular point group: c1
  Basis Set: CC-PVTZ
  Basis Set:

  -Total Gradient:
     Atom            X                  Y                   Z
    ------   -----------------  -----------------  -----------------
       1       -0.000040534299    -0.000003000748     0.000044086829
       2       -0.002260316945    -0.002374768066    -0.003462719036
       3        0.003278215077     0.004023728390     0.002042291494
       4        0.000004663115    -0.000010213310    -0.000017905592
       5        0.000006382904    -0.000027199201     0.000006899901
       6       -0.001072226301    -0.002226853344     0.007479810349
       7        0.000085638591     0.000599768024    -0.006116208233
       8       -0.000001822144     0.000018538254     0.000023744289

  **** Optimization is complete! (in 6 steps) ****
    Final optimized geometry and variables:
    Molecular point group: c1

    Geometry (in Angstrom), charge = 0, multiplicity = 1:

    H            2.366034048313    -0.779508706363    -0.465483609361
    C            1.538410889141    -0.129661334582    -0.695991062663
    O            0.512845866471    -0.427451588514     0.223506383077
    H            1.201301893383    -0.315790460163    -1.707210631065
    H            1.860584295950     0.902463278927    -0.605823600463
    C           -0.497852903776     0.432737613381     0.287701689388
    O           -1.624493837439     0.119542308875     0.233732555022
    H           -0.175005902518     1.470902269979     0.383235704096

  Mulliken Charges: (a.u.)
   Center  Symbol    Alpha    Beta     Spin     Total
       1     H     0.44223  0.44223  0.00000  0.11553
       2     C     3.02699  3.02699  0.00000 -0.05397
       3     O     4.13566  4.13566  0.00000 -0.27132
       4     H     0.45589  0.45589  0.00000  0.08821
       5     H     0.46600  0.46600  0.00000  0.06799
       6     C     2.83352  2.83352  0.00000  0.33296
       7     O     4.16528  4.16528  0.00000 -0.33056
       8     H     0.47442  0.47442  0.00000  0.05115

   Total alpha = 16.00000, Total beta = 16.00000, Total charge =  0.00000

*** Psi4 exiting successfully. Buy a developer a beer!
