  ==> Input File <==

--------------------------------------------------------------------------
set {
	reference rhf
	basis 6-31G*
}

set_num_threads( 4 )
memory 2 gb

molecule MOL {
0 1

O	 0.141159	 -0.083912	 0.638996
C	 1.122059	 0.121804	 -0.000188
C	 1.347907	 1.308683	 -0.904736
O	 2.172624	 -0.688929	 0.000216
C	 0.167996	 2.274956	 -0.943052
H	 2.253298	 1.806091	 -0.567681
H	 1.573766	 0.923591	 -1.895416
C	 0.422749	 3.467316	 -1.866493
H	 -0.040309	 2.626297	 0.062768
H	 -0.720983	 1.742372	 -1.266430
C	 -0.754974	 4.439900	 -1.911812
H	 1.314946	 3.996928	 -1.538510
H	 0.633468	 3.109546	 -2.872310
H	 -0.968802	 4.841958	 -0.925769
H	 -0.548588	 5.275716	 -2.572942
H	 -1.654973	 3.948400	 -2.269679
C	 3.452279	 -0.082609	 0.000533
H	 3.583069	 0.529321	 -0.880332
H	 4.163299	 -0.894027	 0.001117
H	 3.582335	 0.529955	 0.881077

	symmetry c1
}
set optking {
	frozen_dihedral = ("
		1 2 4 17
	")
}

ee = optimize('scf')
oeprop('DIPOLE', 'QUADRUPOLE', 'MULLIKEN_CHARGES')
f=open( 'psi4out.xyz', 'w' )
f.write( "20  " )
f.write( str(ee) + "\n" )
f.write( MOL.save_string_xyz() )
f.close()
--------------------------------------------------------------------------

    Molecular point group: c1
  Charge       = 0
  Multiplicity = 1
  Basis Set: 6-31G*
  Basis Set:
  @DF-RHF Final Energy:  -383.91559043484409
    Total Energy =                       -383.9155904348442618
    Molecular point group: c1
  Basis Set: 6-31G*
  Basis Set:
  Basis Set: 6-31G*
  Basis Set:
  @DF-RHF Final Energy:  -383.91582330732882
    Total Energy =                       -383.9158233073289921
  Basis Set: 6-31G*
  Basis Set:
  Basis Set: 6-31G*
  Basis Set:
  @DF-RHF Final Energy:  -383.92149223057169
    Total Energy =                       -383.9214922305719710
  Basis Set: 6-31G*
  Basis Set:
  Basis Set: 6-31G*
  Basis Set:
  @DF-RHF Final Energy:  -383.92271587148866
    Total Energy =                       -383.9227158714886627
  Basis Set: 6-31G*
  Basis Set:
  @DF-RHF Final Energy:  -383.92253405983035
    Total Energy =                       -383.9225340598300136
  Basis Set: 6-31G*
  Basis Set:
  @DF-RHF Final Energy:  -383.92356569304440
    Total Energy =                       -383.9235656930444520
  Basis Set: 6-31G*
  Basis Set:
  Basis Set: 6-31G*
  Basis Set:
  @DF-RHF Final Energy:  -383.92357827675499
    Total Energy =                       -383.9235782767548244
  Basis Set: 6-31G*
  Basis Set:
  Basis Set: 6-31G*
  Basis Set:
  @DF-RHF Final Energy:  -383.92357929753888
    Total Energy =                       -383.9235792975389359
  Basis Set: 6-31G*
  Basis Set:
  Charge       = 0
  Multiplicity = 1
  Basis Set: 6-31G*
  Basis Set:

    Orbital Energies (a.u.)
    -----------------------

    Doubly Occupied:

       1A    -20.595401     2A    -20.546807     3A    -11.374355
       4A    -11.295750     5A    -11.244258     6A    -11.224285
       7A    -11.223612     8A    -11.213418     9A     -1.460924
      10A     -1.366847    11A     -1.091471    12A     -1.017168
      13A     -0.981053    14A     -0.901094    15A     -0.810147
      16A     -0.766721    17A     -0.698454    18A     -0.685127
      19A     -0.673717    20A     -0.649252    21A     -0.609578
      22A     -0.592032    23A     -0.589735    24A     -0.553499
      25A     -0.540074    26A     -0.519615    27A     -0.502754
      28A     -0.482545    29A     -0.478528    30A     -0.474086
      31A     -0.450026    32A     -0.432169

  @DF-RHF Final Energy:  -383.92357941910319

   => Energetics <=

    Nuclear Repulsion Energy =            382.7037058661832702
    One-Electron Energy =               -1281.1655733607096863
    Two-Electron Energy =                 514.5382880754235657
    DFT Exchange-Correlation Energy =       0.0000000000000000
    Empirical Dispersion Energy =           0.0000000000000000
    PCM Polarization Energy =               0.0000000000000000
    EFP Energy =                            0.0000000000000000
    Total Energy =                       -383.9235794191027935
    Molecular point group: c1
  Basis Set: 6-31G*
  Basis Set:

  -Total Gradient:
     Atom            X                  Y                   Z
    ------   -----------------  -----------------  -----------------
       1        0.001733998695     0.001754631207     0.002904060366
       2       -0.002477858929    -0.002512322270    -0.002406683081
       3       -0.000014302004     0.000024918735    -0.000001179821
       4        0.000660374257     0.000763791503    -0.003744411898
       5        0.000011120138    -0.000007647096    -0.000003407957
       6       -0.000009711538    -0.000007134553    -0.000010338046
       7       -0.000000898339    -0.000004040905    -0.000004776468
       8        0.000000221008     0.000000842665    -0.000004022890
       9       -0.000010757016     0.000004167794     0.000004841342
      10        0.000011177277    -0.000003733417    -0.000001369452
      11        0.000001866070     0.000001707638     0.000008628981
      12        0.000002702689    -0.000004523273    -0.000002541054
      13       -0.000004076345    -0.000001336522    -0.000003134073
      14       -0.000003335482     0.000000973138     0.000001234684
      15        0.000002568563    -0.000000144445     0.000002854294
      16        0.000001262768    -0.000000128038    -0.000001641154
      17        0.000088978116    -0.000003940801     0.003257272392
      18       -0.000002554926    -0.000013954595     0.000016635992
      19        0.000000413297     0.000001859562    -0.000009921314
      20        0.000008811697     0.000006013683    -0.000002100849

  **** Optimization is complete! (in 9 steps) ****
    Final optimized geometry and variables:
    Molecular point group: c1

    Geometry (in Angstrom), charge = 0, multiplicity = 1:

    O           -0.800349968233    -1.291529789064     1.312817853090
    C            0.155782616197    -1.125196548122     0.637192700575
    C            0.354056839569     0.081869273820    -0.257598723082
    O            1.126269169208    -2.052611951911     0.617264057498
    C           -0.889941547494     0.961349645353    -0.356298835204
    H            1.191050596965     0.661882067313     0.124454508170
    H            0.657993479096    -0.273128230033    -1.239088997143
    C           -0.672630365303     2.174976627136    -1.261326807289
    H           -1.175412932946     1.287182915179     0.638127051069
    H           -1.718373281087     0.367229378622    -0.729006723368
    C           -1.913452805692     3.060785134960    -1.365311520387
    H            0.160350010842     2.765469051394    -0.884493927819
    H           -0.384331838767     1.841086756714    -2.256095548203
    H           -2.207357126197     3.438582218315    -0.390453409606
    H           -1.733052281430     3.914238285674    -2.011238946307
    H           -2.755303549024     2.508628250845    -1.772558233070
    C            2.484582313587    -1.678595153533     0.595876634790
    H            2.765480014965    -1.224336891393    -0.346436716841
    H            3.045637118574    -2.590408726030     0.728017469468
    H            2.715109364730    -1.000948687188     1.409533232904

  Mulliken Charges: (a.u.)
   Center  Symbol    Alpha    Beta     Spin     Total
       1     O     4.25915  4.25915  0.00000 -0.51830
       2     C     2.60393  2.60393  0.00000  0.79215
       3     C     3.22922  3.22922  0.00000 -0.45844
       4     O     4.30710  4.30710  0.00000 -0.61420
       5     C     3.14868  3.14868  0.00000 -0.29737
       6     H     0.40516  0.40516  0.00000  0.18968
       7     H     0.40248  0.40248  0.00000  0.19503
       8     C     3.15464  3.15464  0.00000 -0.30928
       9     H     0.40840  0.40840  0.00000  0.18321
      10     H     0.41078  0.41078  0.00000  0.17843
      11     C     3.23957  3.23957  0.00000 -0.47913
      12     H     0.42394  0.42394  0.00000  0.15213
      13     H     0.42314  0.42314  0.00000  0.15373
      14     H     0.41926  0.41926  0.00000  0.16148
      15     H     0.41841  0.41841  0.00000  0.16317
      16     H     0.41915  0.41915  0.00000  0.16169
      17     C     3.09423  3.09423  0.00000 -0.18845
      18     H     0.41811  0.41811  0.00000  0.16378
      19     H     0.39902  0.39902  0.00000  0.20196
      20     H     0.41563  0.41563  0.00000  0.16873

   Total alpha = 32.00000, Total beta = 32.00000, Total charge =  0.00000
