  ==> Input File <==

--------------------------------------------------------------------------
set {
	reference rhf
	basis 6-31G*
}

set_num_threads( 4 )
memory 2 gb

molecule MOL {
0 1

H	 -2.273092	 1.173159	 0.000295
O	 -1.438904	 1.618192	 0.000114
C	 -0.409536	 0.736003	 0.000030
C	 -0.340367	 -0.138782	 1.072954
C	 0.539288	 0.697573	 -1.019380
H	 -1.092489	 -0.075085	 1.837313
C	 0.681480	 -1.066515	 1.141153
C	 1.555576	 -0.245409	 -0.924877
C	 0.462153	 1.652982	 -2.189103
H	 0.729505	 -1.742410	 1.976230
C	 1.637569	 -1.125039	 0.139931
H	 2.296453	 -0.287921	 -1.704388
H	 0.528096	 2.691474	 -1.871093
H	 1.277498	 1.478810	 -2.879647
H	 -0.463024	 1.535743	 -2.749727
H	 2.435119	 -1.844030	 0.186459

	symmetry c1
}
set optking {
	frozen_dihedral = ("
		4 3 2 1
	")
}

ee = optimize('scf')
oeprop('DIPOLE', 'QUADRUPOLE', 'MULLIKEN_CHARGES')
f=open( 'psi4out.xyz', 'w' )
f.write( "16  " )
f.write( str(ee) + "\n" )
f.write( MOL.save_string_xyz() )
f.close()
--------------------------------------------------------------------------

    Molecular point group: c1
  Charge       = 0
  Multiplicity = 1
  Basis Set: 6-31G*
  Basis Set:
  @DF-RHF Final Energy:  -344.58995277095335
    Total Energy =                       -344.5899527709534027
    Molecular point group: c1
  Basis Set: 6-31G*
  Basis Set:
  Basis Set: 6-31G*
  Basis Set:
  @DF-RHF Final Energy:  -344.59165756385096
    Total Energy =                       -344.5916575638509016
  Basis Set: 6-31G*
  Basis Set:
  Basis Set: 6-31G*
  Basis Set:
  @DF-RHF Final Energy:  -344.59176372038951
    Total Energy =                       -344.5917637203890536
  Basis Set: 6-31G*
  Basis Set:
  Basis Set: 6-31G*
  Basis Set:
  @DF-RHF Final Energy:  -344.59177223990793
    Total Energy =                       -344.5917722399077547
  Basis Set: 6-31G*
  Basis Set:
  Basis Set: 6-31G*
  Basis Set:
  @DF-RHF Final Energy:  -344.59177392105704
    Total Energy =                       -344.5917739210569266
  Basis Set: 6-31G*
  Basis Set:
  Charge       = 0
  Multiplicity = 1
  Basis Set: 6-31G*
  Basis Set:

    Orbital Energies (a.u.)
    -----------------------

    Doubly Occupied:

       1A    -20.578893     2A    -11.285433     3A    -11.232435
       4A    -11.230058     5A    -11.227811     6A    -11.225680
       7A    -11.223712     8A    -11.214704     9A     -1.394103
      10A     -1.148132    11A     -1.043343    12A     -1.002618
      13A     -0.929706    14A     -0.834351    15A     -0.800699
      16A     -0.726677    17A     -0.666466    18A     -0.653052
      19A     -0.618569    20A     -0.590725    21A     -0.571245
      22A     -0.560805    23A     -0.541127    24A     -0.522271
      25A     -0.499159    26A     -0.481788    27A     -0.464888
      28A     -0.328710    29A     -0.313393

  @DF-RHF Final Energy:  -344.59177412673301

   => Energetics <=

    Nuclear Repulsion Energy =            349.7409168804082924
    One-Electron Energy =               -1160.8442773161366404
    Two-Electron Energy =                 466.5115863089957884
    DFT Exchange-Correlation Energy =       0.0000000000000000
    Empirical Dispersion Energy =           0.0000000000000000
    PCM Polarization Energy =               0.0000000000000000
    EFP Energy =                            0.0000000000000000
    Total Energy =                       -344.5917741267325027
    Molecular point group: c1
  Basis Set: 6-31G*
  Basis Set:

  -Total Gradient:
     Atom            X                  Y                   Z
    ------   -----------------  -----------------  -----------------
       1        0.000035726091    -0.000100966218    -0.002002541970
       2        0.000350828647     0.000677656149     0.002869576404
       3       -0.001267420209    -0.001562459861    -0.001598366228
       4        0.000853459770     0.000996596942     0.000746460951
       5       -0.000017179647    -0.000005220236    -0.000001889931
       6        0.000005444962     0.000000800400    -0.000006277618
       7       -0.000001760929    -0.000006146379     0.000009533641
       8        0.000006477686     0.000004741587     0.000002381811
       9        0.000016311975     0.000001241876     0.000010047894
      10        0.000004315280    -0.000005395304    -0.000002784690
      11        0.000005823162     0.000008896597    -0.000022661620
      12        0.000003763054     0.000000420969    -0.000005736684
      13        0.000000117434    -0.000003938443     0.000000797935
      14        0.000004490350     0.000002458237    -0.000006525222
      15        0.000001772756    -0.000009462520     0.000005287822
      16       -0.000002170375     0.000000776201     0.000002697507

  **** Optimization is complete! (in 6 steps) ****
    Final optimized geometry and variables:
    Molecular point group: c1

    Geometry (in Angstrom), charge = 0, multiplicity = 1:

    H           -2.539054661459     0.920414995653     0.194728069867
    O           -1.686633613636     1.333776923297     0.185832365198
    C           -0.698031212305     0.388044810723     0.247438046888
    C           -0.619453790183    -0.474030760670     1.326534294749
    C            0.255760976617     0.364436244781    -0.766493938647
    H           -1.358556761936    -0.408226585381     2.105674691716
    C            0.406130699685    -1.402998986126     1.398771869363
    C            1.280895103428    -0.566234308727    -0.666891914738
    C            0.163985338157     1.328239156810    -1.924215021795
    H            0.460544674644    -2.075657070603     2.235920484040
    C            1.360755725912    -1.449310059380     0.399334050901
    H            2.028027344203    -0.602967643262    -1.440470177476
    H            0.213240959428     2.356358696538    -1.582883636944
    H            0.973675881267     1.163212876398    -2.625430398647
    H           -0.774201763180     1.214373101654    -2.456982649476
    H            2.164231961202    -2.162082023756     0.447769362541

  Mulliken Charges: (a.u.)
   Center  Symbol    Alpha    Beta     Spin     Total
       1     H     0.27217  0.27217  0.00000  0.45567
       2     O     4.38621  4.38621  0.00000 -0.77242
       3     C     2.82700  2.82700  0.00000  0.34601
       4     C     3.12147  3.12147  0.00000 -0.24294
       5     C     3.00262  3.00262  0.00000 -0.00523
       6     H     0.39896  0.39896  0.00000  0.20208
       7     C     3.10024  3.10024  0.00000 -0.20049
       8     C     3.11163  3.11163  0.00000 -0.22326
       9     C     3.24039  3.24039  0.00000 -0.48078
      10     H     0.39917  0.39917  0.00000  0.20167
      11     C     3.10235  3.10235  0.00000 -0.20471
      12     H     0.40091  0.40091  0.00000  0.19817
      13     H     0.40574  0.40574  0.00000  0.18851
      14     H     0.41776  0.41776  0.00000  0.16448
      15     H     0.41296  0.41296  0.00000  0.17409
      16     H     0.40042  0.40042  0.00000  0.19915

   Total alpha = 29.00000, Total beta = 29.00000, Total charge =  0.00000
