                              Psi4 1.0.54 Driver

  ==> Input File <==

--------------------------------------------------------------------------
set {
	reference rhf
	basis cc-pvtz
}

set_num_threads( 4 )
memory 2 gb

molecule MOL {
0 1

H	 -1.857711	 -2.389027	 2.159329
O	 -1.706955	 -2.032397	 1.296888
C	 -0.618858	 -1.268847	 1.341286
C	 -0.310616	 -0.658853	 0.000791
O	 -0.000131	 -1.112817	 2.336676
C	 0.926581	 0.227233	 0.000178
H	 -1.191966	 -0.106466	 -0.308754
H	 -0.211304	 -1.476019	 -0.706382
C	 2.220156	 -0.582071	 -0.000088
H	 0.899945	 0.878221	 -0.866390
H	 0.900542	 0.878581	 0.866486
C	 3.466689	 0.296012	 -0.000457
H	 2.239073	 -1.234095	 -0.869382
H	 2.239505	 -1.233985	 0.869270
H	 3.493549	 0.935857	 -0.875887
H	 4.368821	 -0.304526	 -0.001199
H	 3.494559	 0.935166	 0.875458

	symmetry c1
}
set optking {
	frozen_dihedral = ("
		7 4 6 10
	")
}

ee,wfn = optimize('scf', return_wfn=True)
oeprop( wfn, 'DIPOLE', 'QUADRUPOLE', 'MULLIKEN_CHARGES')
f=open( 'psi4out.xyz', 'w' )
f.write( "17  " )
f.write( str(ee) + "\n" )
f.write( MOL.save_string_xyz() )
f.close()
--------------------------------------------------------------------------

    Molecular point group: c1
  Charge       = 0
  Multiplicity = 1
  Basis Set: CC-PVTZ
  Basis Set:
  @DF-RHF Final Energy:  -345.04782140604368
    Total Energy =                       -345.0478214060434539
    Molecular point group: c1
  Basis Set: CC-PVTZ
  Basis Set:
  Basis Set: CC-PVTZ
  Basis Set:
  @DF-RHF Final Energy:  -345.04806804475669
    Total Energy =                       -345.0480680447565192
  Basis Set: CC-PVTZ
  Basis Set:
  Basis Set: CC-PVTZ
  Basis Set:
  @DF-RHF Final Energy:  -345.04811241663811
    Total Energy =                       -345.0481124166386735
  Basis Set: CC-PVTZ
  Basis Set:
  Basis Set: CC-PVTZ
  Basis Set:
  @DF-RHF Final Energy:  -345.04789880367980
    Total Energy =                       -345.0478988036803116
  Basis Set: CC-PVTZ
  Basis Set:
  Basis Set: CC-PVTZ
  Basis Set:
  @DF-RHF Final Energy:  -345.04814285212262
    Total Energy =                       -345.0481428521227940
  Basis Set: CC-PVTZ
  Basis Set:
  Basis Set: CC-PVTZ
  Basis Set:
  @DF-RHF Final Energy:  -345.04814797103273
    Total Energy =                       -345.0481479710325630
  Basis Set: CC-PVTZ
  Basis Set:
  Charge       = 0
  Multiplicity = 1
  Basis Set: CC-PVTZ
  Basis Set:

    Orbital Energies (a.u.)
    -----------------------

    Doubly Occupied:

       1A    -20.604946     2A    -20.541464     3A    -11.374619
       4A    -11.239570     5A    -11.221209     6A    -11.215289
       7A    -11.207222     8A     -1.478720     9A     -1.370065
      10A     -1.090756    11A     -1.017156    12A     -0.913598
      13A     -0.828116    14A     -0.786198    15A     -0.706128
      16A     -0.696612    17A     -0.658871    18A     -0.628642
      19A     -0.588944    20A     -0.584223    21A     -0.580426
      22A     -0.529989    23A     -0.519782    24A     -0.488891
      25A     -0.479474    26A     -0.471175    27A     -0.467371
      28A     -0.446219

  @DF-RHF Final Energy:  -345.04814895000789

   => Energetics <=

    Nuclear Repulsion Energy =            310.5362232889616507
    One-Electron Energy =               -1085.6973982599661213
    Two-Electron Energy =                 430.1130260209965854
    DFT Exchange-Correlation Energy =       0.0000000000000000
    Empirical Dispersion Energy =           0.0000000000000000
    PCM Polarization Energy =               0.0000000000000000
    EFP Energy =                            0.0000000000000000
    Total Energy =                       -345.0481489500078851
    Molecular point group: c1
  Basis Set: CC-PVTZ
  Basis Set:

  -Total Gradient:
     Atom            X                  Y                   Z
    ------   -----------------  -----------------  -----------------
       1        0.000011465096     0.000018702375    -0.000013410174
       2        0.000050793400     0.000028665608     0.000007455989
       3        0.000054324214     0.000051655623     0.000162242910
       4       -0.000447955661     0.000655094411     0.001815973787
       5       -0.000107329216    -0.000065992003    -0.000183239007
       6        0.000874927068    -0.001277207395    -0.001207323217
       7        0.000228243397    -0.000383321342    -0.001307113513
       8        0.000000241313     0.000022008573     0.000014278959
       9        0.000043866579     0.000008429151    -0.000030990796
      10       -0.000653232216     0.000923995270     0.000732430896
      11       -0.000000201879     0.000018341603     0.000012789827
      12       -0.000011107259    -0.000002116180     0.000021989831
      13        0.000002146935    -0.000009796215    -0.000014729831
      14       -0.000011580100     0.000016571870    -0.000012013357
      15       -0.000006609967    -0.000006956206    -0.000011696435
      16       -0.000029126746    -0.000001342414     0.000005289278
      17        0.000001135043     0.000003267267     0.000008064856

  **** Optimization is complete! (in 7 steps) ****
    Final optimized geometry and variables:
    Molecular point group: c1

    Geometry (in Angstrom), charge = 0, multiplicity = 1:

    H           -2.361463566004    -1.700630691278     1.405399187452
    O           -2.184542057563    -1.370538728450     0.537347012448
    C           -1.176489444044    -0.506978522409     0.613317876962
    C           -0.852231776692     0.089078731074    -0.730985887457
    O           -0.640446657143    -0.255920279162     1.637076589201
    C            0.396269983106     0.964289407603    -0.746474020887
    H           -1.727880907591     0.651560824639    -1.038055095756
    H           -0.772467063312    -0.728368081979    -1.439334792583
    C            1.702724194345     0.175033541255    -0.752627521176
    H            0.352915200038     1.602930853446    -1.623103368003
    H            0.375369797744     1.622126592804     0.114304238586
    C            2.933211150893     1.075119805821    -0.749089116886
    H            1.728431552701    -0.467193529192    -1.629455144362
    H            1.732341042682    -0.477021643217     0.113206615025
    H            2.945594632335     1.727099171964    -1.616527388825
    H            3.845358862418     0.490121118282    -0.762324729237
    H            2.954450671678     1.701330840119     0.136083846114

  Mulliken Charges: (a.u.)
   Center  Symbol    Alpha    Beta     Spin     Total
       1     H     0.38235  0.38235  0.00000  0.23529
       2     O     4.15934  4.15934  0.00000 -0.31868
       3     C     2.80277  2.80277  0.00000  0.39447
       4     C     3.11863  3.11863  0.00000 -0.23725
       5     O     4.19305  4.19305  0.00000 -0.38611
       6     C     3.09057  3.09057  0.00000 -0.18114
       7     H     0.43016  0.43016  0.00000  0.13968
       8     H     0.43728  0.43728  0.00000  0.12545
       9     C     3.08412  3.08412  0.00000 -0.16824
      10     H     0.44626  0.44626  0.00000  0.10747
      11     H     0.44484  0.44484  0.00000  0.11031
      12     C     3.15094  3.15094  0.00000 -0.30188
      13     H     0.45677  0.45677  0.00000  0.08647
      14     H     0.44652  0.44652  0.00000  0.10697
      15     H     0.45656  0.45656  0.00000  0.08688
      16     H     0.44807  0.44807  0.00000  0.10386
      17     H     0.45177  0.45177  0.00000  0.09646

   Total alpha = 28.00000, Total beta = 28.00000, Total charge = -0.00000

*** Psi4 exiting successfully. Buy a developer a beer!
