  ==> Input File <==

--------------------------------------------------------------------------
set {
	reference rhf
	basis 6-31G*
}

set_num_threads( 4 )
memory 2 gb

molecule MOL {
0 1

O	 0.391030	 1.298905	 0.000133
C	 0.503002	 0.111612	 0.000005
C	 -0.702327	 -0.811998	 -0.000075
C	 1.863306	 -0.554493	 0.000030
C	 -2.013513	 -0.104748	 0.320454
H	 -0.751869	 -1.296241	 -0.973639
H	 -0.510014	 -1.612027	 0.712480
H	 -2.220036	 0.675759	 -0.401610
H	 -2.837036	 -0.811053	 0.306297
H	 -1.976039	 0.357171	 1.299457
H	 1.974395	 -1.189404	 -0.874166
H	 2.638695	 0.198920	 -0.000196
H	 1.974487	 -1.188655	 0.874727

	symmetry c1
}
set optking {
	frozen_dihedral = ("
		6 3 2 1
	")
}

ee = optimize('scf')
oeprop('DIPOLE', 'QUADRUPOLE', 'MULLIKEN_CHARGES')
f=open( 'psi4out.xyz', 'w' )
f.write( "13  " )
f.write( str(ee) + "\n" )
f.write( MOL.save_string_xyz() )
f.close()
--------------------------------------------------------------------------

    Molecular point group: c1
  Charge       = 0
  Multiplicity = 1
  Basis Set: 6-31G*
  Basis Set:
  @DF-RHF Final Energy:  -230.99751580530790
    Total Energy =                       -230.9975158053080122
    Molecular point group: c1
  Basis Set: 6-31G*
  Basis Set:
  Basis Set: 6-31G*
  Basis Set:
  @DF-RHF Final Energy:  -230.99645283071246
    Total Energy =                       -230.9964528307126272
  Basis Set: 6-31G*
  Basis Set:
  Basis Set: 6-31G*
  Basis Set:
  @DF-RHF Final Energy:  -230.99761211341141
    Total Energy =                       -230.9976121134116056
  Basis Set: 6-31G*
  Basis Set:
  Basis Set: 6-31G*
  Basis Set:
  @DF-RHF Final Energy:  -230.99765944420633
    Total Energy =                       -230.9976594442063060
  Basis Set: 6-31G*
  Basis Set:
  Basis Set: 6-31G*
  Basis Set:
  @DF-RHF Final Energy:  -230.99767371103775
    Total Energy =                       -230.9976737110375495
  Basis Set: 6-31G*
  Basis Set:
  Basis Set: 6-31G*
  Basis Set:
  @DF-RHF Final Energy:  -230.99768572381231
    Total Energy =                       -230.9976857238121681
  Basis Set: 6-31G*
  Basis Set:
  Basis Set: 6-31G*
  Basis Set:
  @DF-RHF Final Energy:  -230.99768690152018
    Total Energy =                       -230.9976869015200975
  Basis Set: 6-31G*
  Basis Set:
  Charge       = 0
  Multiplicity = 1
  Basis Set: 6-31G*
  Basis Set:

    Orbital Energies (a.u.)
    -----------------------

    Doubly Occupied:

       1A    -20.551068     2A    -11.326998     3A    -11.235059
       4A    -11.229256     5A    -11.214442     6A     -1.396625
       7A     -1.061562     8A     -1.000402     9A     -0.878189
      10A     -0.729993    11A     -0.658659    12A     -0.640585
      13A     -0.621204    14A     -0.583888    15A     -0.570476
      16A     -0.521112    17A     -0.513610    18A     -0.507493
      19A     -0.484779    20A     -0.402870

  @DF-RHF Final Energy:  -230.99768691913690

   => Energetics <=

    Nuclear Repulsion Energy =            176.9415894003691108
    One-Electron Energy =                -663.6220115692490253
    Two-Electron Energy =                 255.6827352497428762
    DFT Exchange-Correlation Energy =       0.0000000000000000
    Empirical Dispersion Energy =           0.0000000000000000
    PCM Polarization Energy =               0.0000000000000000
    EFP Energy =                            0.0000000000000000
    Total Energy =                       -230.9976869191370099
    Molecular point group: c1
  Basis Set: 6-31G*
  Basis Set:

  -Total Gradient:
     Atom            X                  Y                   Z
    ------   -----------------  -----------------  -----------------
       1        0.000004454502     0.000015576426    -0.000631338991
       2       -0.000069939732     0.000075499265     0.000856425184
       3        0.000416563906    -0.000555582101    -0.000027671667
       4       -0.000001612303     0.000005357571    -0.000001929983
       5        0.000000853231    -0.000002566254    -0.000003326562
       6       -0.000351846817     0.000463842914    -0.000191529687
       7       -0.000000331396    -0.000000095351    -0.000000187272
       8       -0.000000358654     0.000000820954    -0.000000152248
       9       -0.000001496736    -0.000000588167     0.000000347492
      10        0.000002392923    -0.000001460486    -0.000001183887
      11       -0.000001323679     0.000001064809    -0.000000423942
      12        0.000003502248    -0.000002822311     0.000000471239
      13       -0.000000857495     0.000000952730     0.000000500322

  **** Optimization is complete! (in 8 steps) ****
    Final optimized geometry and variables:
    Molecular point group: c1

    Geometry (in Angstrom), charge = 0, multiplicity = 1:

    O            0.387786934696     1.304376299995    -0.009267721733
    C            0.499509638299     0.117818406853    -0.052982242351
    C           -0.706413116751    -0.804332778898    -0.086923056326
    C            1.858895270736    -0.548089025456    -0.090337736452
    C           -2.021236829444    -0.100506869042     0.228494182208
    H           -0.742061811949    -1.243967714462    -1.082923214719
    H           -0.532121974294    -1.633561231958     0.594774087577
    H           -2.204392237737     0.706694509752    -0.469067143915
    H           -2.848281797961    -0.800337142653     0.170417337249
    H           -2.005379681209     0.324848595520     1.225348366011
    H            1.909627155797    -1.286258008220    -0.884854377010
    H            2.628704097282     0.197628999465    -0.232267460275
    H            2.035983586162    -1.069517233366     0.846481166523

  Mulliken Charges: (a.u.)
   Center  Symbol    Alpha    Beta     Spin     Total
       1     O     4.26071  4.26071  0.00000 -0.52141
       2     C     2.73620  2.73620  0.00000  0.52761
       3     C     3.20803  3.20803  0.00000 -0.41607
       4     C     3.28742  3.28742  0.00000 -0.57484
       5     C     3.23579  3.23579  0.00000 -0.47158
       6     H     0.40696  0.40696  0.00000  0.18608
       7     H     0.41150  0.41150  0.00000  0.17701
       8     H     0.40717  0.40717  0.00000  0.18566
       9     H     0.41969  0.41969  0.00000  0.16062
      10     H     0.41332  0.41332  0.00000  0.17336
      11     H     0.41023  0.41023  0.00000  0.17954
      12     H     0.39645  0.39645  0.00000  0.20710
      13     H     0.40654  0.40654  0.00000  0.18691

   Total alpha = 20.00000, Total beta = 20.00000, Total charge = -0.00000
