  ==> Input File <==

--------------------------------------------------------------------------
set {
	reference rhf
	basis 6-31G*
}

set_num_threads( 4 )
memory 2 gb

molecule MOL {
0 1

H	 -3.420663	 1.227371	 -1.044276
O	 -3.452007	 0.283848	 -0.965577
C	 -3.181085	 -0.079926	 0.364119
C	 -1.765924	 0.277073	 0.805136
H	 -3.327791	 -1.152017	 0.410903
H	 -3.905698	 0.375695	 1.036898
C	 -0.677594	 -0.417312	 -0.014550
H	 -1.637766	 1.358238	 0.744969
H	 -1.659588	 0.017670	 1.857098
C	 0.738335	 -0.034840	 0.421385
H	 -0.814977	 -0.178223	 -1.064632
H	 -0.802730	 -1.495410	 0.071702
C	 0.758380	 0.806547	 1.700351
H	 1.321471	 -0.941505	 0.563964
H	 1.226511	 0.519356	 -0.379337
C	 2.148796	 1.289549	 2.128846
H	 0.310934	 0.236318	 2.512955
H	 0.121050	 1.676242	 1.554553
C	 3.108157	 0.174128	 2.548210
H	 2.032127	 1.979412	 2.961173
H	 2.594970	 1.864343	 1.319683
H	 2.682744	 -0.425783	 3.348378
H	 4.045367	 0.587047	 2.908729
H	 3.342480	 -0.491693	 1.724232

	symmetry c1
}
set optking {
	frozen_dihedral = ("
		13 10 7 11
	")
}

ee = optimize('scf')
oeprop('DIPOLE', 'QUADRUPOLE', 'MULLIKEN_CHARGES')
f=open( 'psi4out.xyz', 'w' )
f.write( "24  " )
f.write( str(ee) + "\n" )
f.write( MOL.save_string_xyz() )
f.close()
--------------------------------------------------------------------------

    Molecular point group: c1
  Charge       = 0
  Multiplicity = 1
  Basis Set: 6-31G*
  Basis Set:
  @DF-RHF Final Energy:  -349.23238200683403
    Total Energy =                       -349.2323820068344276
    Molecular point group: c1
  Basis Set: 6-31G*
  Basis Set:
  Basis Set: 6-31G*
  Basis Set:
  @DF-RHF Final Energy:  -349.23195442922241
    Total Energy =                       -349.2319544292226965
  Basis Set: 6-31G*
  Basis Set:
  Basis Set: 6-31G*
  Basis Set:
  @DF-RHF Final Energy:  -349.23671732428278
    Total Energy =                       -349.2367173242827221
  Basis Set: 6-31G*
  Basis Set:
  Basis Set: 6-31G*
  Basis Set:
  @DF-RHF Final Energy:  -349.23750655897578
    Total Energy =                       -349.2375065589759515
  Basis Set: 6-31G*
  Basis Set:
  @DF-RHF Final Energy:  -349.23753105050343
    Total Energy =                       -349.2375310505029233
  @DF-RHF Final Energy:  -349.23756849892033
    Total Energy =                       -349.2375684989199272
  Basis Set: 6-31G*
  Basis Set:
  @DF-RHF Final Energy:  -349.23763922569441
    Total Energy =                       -349.2376392256947497
  Basis Set: 6-31G*
  Basis Set:
  Basis Set: 6-31G*
  Basis Set:
  @DF-RHF Final Energy:  -349.23758178177030
    Total Energy =                       -349.2375817817700749
  Basis Set: 6-31G*
  Basis Set:
  Basis Set: 6-31G*
  Basis Set:
  @DF-RHF Final Energy:  -349.23764385840462
    Total Energy =                       -349.2376438584045673
  Basis Set: 6-31G*
  Basis Set:
  Charge       = 0
  Multiplicity = 1
  Basis Set: 6-31G*
  Basis Set:

    Orbital Energies (a.u.)
    -----------------------

    Doubly Occupied:

       1A    -20.553557     2A    -11.267425     3A    -11.216720
       4A    -11.215125     5A    -11.213318     6A    -11.212522
       7A    -11.211499     8A    -11.207811     9A     -1.360111
      10A     -1.086152    11A     -1.046163    12A     -0.982491
      13A     -0.916896    14A     -0.855375    15A     -0.810128
      16A     -0.762170    17A     -0.676322    18A     -0.650226
      19A     -0.627853    20A     -0.621178    21A     -0.599543
      22A     -0.580290    23A     -0.555967    24A     -0.544861
      25A     -0.517933    26A     -0.513097    27A     -0.498486
      28A     -0.479851    29A     -0.473574    30A     -0.454240
      31A     -0.443261    32A     -0.438490    33A     -0.424163

  @DF-RHF Final Energy:  -349.23764387592382

   => Energetics <=

    Nuclear Repulsion Energy =            388.4538096380242678
    One-Electron Energy =               -1243.3493234901643518
    Two-Electron Energy =                 505.6578699762167162
    DFT Exchange-Correlation Energy =       0.0000000000000000
    Empirical Dispersion Energy =           0.0000000000000000
    PCM Polarization Energy =               0.0000000000000000
    EFP Energy =                            0.0000000000000000
    Total Energy =                       -349.2376438759233679
    Molecular point group: c1
  Basis Set: 6-31G*
  Basis Set:

  -Total Gradient:
     Atom            X                  Y                   Z
    ------   -----------------  -----------------  -----------------
       1        0.000001687218    -0.000004263518     0.000002417591
       2        0.000019414269    -0.000014351835    -0.000006726478
       3       -0.000012236126     0.000034399414    -0.000003325078
       4        0.000000933733    -0.000039973746     0.000017064251
       5        0.000001795712     0.000004010810     0.000001183849
       6       -0.000001131071     0.000001914925     0.000003363774
       7        0.001129855461    -0.002402039063    -0.001443453659
       8       -0.000000577656     0.000001209393    -0.000000092682
       9        0.000002223889    -0.000004949351     0.000005754250
      10       -0.000010545462    -0.002067708501     0.001890028926
      11       -0.000977948597     0.002642122824     0.000735237048
      12        0.000000183285     0.000004959347     0.000003451725
      13       -0.000139733236     0.001865555740    -0.001214098475
      14        0.000007546548    -0.000001957169     0.000000648509
      15       -0.000000881688     0.000002946297    -0.000003047171
      16       -0.000005050193    -0.000015950227     0.000013827304
      17       -0.000003739637    -0.000010609812    -0.000000893639
      18        0.000013208124     0.000010436415     0.000011154436
      19       -0.000000102947    -0.000001038525    -0.000004334893
      20       -0.000014022738     0.000006448301    -0.000000920949
      21       -0.000006298517    -0.000009482143    -0.000003919451
      22        0.000000443127    -0.000001611699     0.000002892874
      23       -0.000001097990     0.000003076652    -0.000001175804
      24       -0.000003925512    -0.000003144527    -0.000005036254

  **** Optimization is complete! (in 10 steps) ****
    Final optimized geometry and variables:
    Molecular point group: c1

    Geometry (in Angstrom), charge = 0, multiplicity = 1:

    H           -3.140571640826     0.843977951354    -2.005197344034
    O           -3.109006891740    -0.099794695865    -1.930114632847
    C           -2.910877553794    -0.451275481950    -0.584173670216
    C           -1.559136408963    -0.001836307386    -0.037994614072
    H           -2.989321687901    -1.530878597524    -0.548145951245
    H           -3.711299732156    -0.047762412664     0.033720732298
    C           -0.383939864589    -0.639270745002    -0.788965060774
    H           -1.505107084025     1.084096717105    -0.098165882642
    H           -1.524805018052    -0.251551814718     1.019298844224
    C            1.048267606861    -0.237350921628    -0.336643950566
    H           -0.505420561267    -0.387758148977    -1.835875962735
    H           -0.492324626931    -1.718366261983    -0.719981732730
    C            1.173344586863     0.598362865180     0.943652638278
    H            1.638333435299    -1.141230858319    -0.229611597690
    H            1.520313154546     0.325656877381    -1.138693099551
    C            2.616621978104     0.992592432664     1.283012970448
    H            0.749833279646     0.058645063551     1.788481163873
    H            0.591184267489     1.509213703942     0.840245652576
    C            3.524839312372    -0.174726039358     1.674584201071
    H            2.592149675855     1.703135782433     2.105782932251
    H            3.052978716058     1.522522131736     0.438624595216
    H            3.105302631658    -0.732588859371     2.507613466277
    H            4.502991526353     0.185014896062     1.978932454453
    H            3.675472602120    -0.868202629853     0.854263301158

  Mulliken Charges: (a.u.)
   Center  Symbol    Alpha    Beta     Spin     Total
       1     H     0.28338  0.28338  0.00000  0.43324
       2     O     4.36837  4.36837  0.00000 -0.73674
       3     C     2.99649  2.99649  0.00000  0.00702
       4     C     3.17154  3.17154  0.00000 -0.34309
       5     H     0.41651  0.41651  0.00000  0.16697
       6     H     0.42787  0.42787  0.00000  0.14426
       7     C     3.15652  3.15652  0.00000 -0.31303
       8     H     0.42776  0.42776  0.00000  0.14449
       9     H     0.42086  0.42086  0.00000  0.15829
      10     C     3.15797  3.15797  0.00000 -0.31594
      11     H     0.40885  0.40885  0.00000  0.18231
      12     H     0.42167  0.42167  0.00000  0.15667
      13     C     3.15504  3.15504  0.00000 -0.31009
      14     H     0.41834  0.41834  0.00000  0.16333
      15     H     0.42249  0.42249  0.00000  0.15503
      16     C     3.15219  3.15219  0.00000 -0.30438
      17     H     0.42459  0.42459  0.00000  0.15081
      18     H     0.42198  0.42198  0.00000  0.15605
      19     C     3.24115  3.24115  0.00000 -0.48230
      20     H     0.42143  0.42143  0.00000  0.15714
      21     H     0.42345  0.42345  0.00000  0.15310
      22     H     0.42256  0.42256  0.00000  0.15487
      23     H     0.41938  0.41938  0.00000  0.16124
      24     H     0.41961  0.41961  0.00000  0.16078

   Total alpha = 33.00000, Total beta = 33.00000, Total charge = -0.00000
