                              Psi4 1.0.54 Driver

  ==> Input File <==

--------------------------------------------------------------------------
set {
	reference rhf
	basis cc-pvtz
}

set_num_threads( 4 )
memory 2 gb

molecule MOL {
0 1

H	 -3.717219	 0.297271	 -1.067196
O	 -3.515113	 -0.019339	 -0.206321
C	 -2.302264	 0.528872	 0.237390
C	 -1.175688	 -0.398187	 -0.171891
H	 -2.148018	 1.514076	 -0.197759
H	 -2.310727	 0.646384	 1.319032
C	 0.196029	 0.106276	 0.266738
H	 -1.201873	 -0.515469	 -1.250677
H	 -1.365975	 -1.378728	 0.252664
C	 1.330220	 -0.826136	 -0.155230
H	 0.359542	 1.097229	 -0.145561
H	 0.212134	 0.218135	 1.348778
C	 2.719700	 -0.407669	 0.328325
H	 1.339388	 -0.911200	 -1.239363
H	 1.119001	 -1.821953	 0.224128
C	 3.241564	 0.893452	 -0.276737
H	 3.418299	 -1.204729	 0.093035
H	 2.711776	 -0.323368	 1.411960
H	 3.254204	 0.841071	 -1.360784
H	 2.634460	 1.745075	 0.005842
H	 4.254264	 1.092401	 0.054971

	symmetry c1
}
set optking {
	frozen_dihedral = ("
		1 2 3 5
	")
}

ee,wfn = optimize('scf', return_wfn=True)
oeprop( wfn, 'DIPOLE', 'QUADRUPOLE', 'MULLIKEN_CHARGES')
f=open( 'psi4out.xyz', 'w' )
f.write( "21  " )
f.write( str(ee) + "\n" )
f.write( MOL.save_string_xyz() )
f.close()
--------------------------------------------------------------------------

    Molecular point group: c1
  Charge       = 0
  Multiplicity = 1
  Basis Set: CC-PVTZ
  Basis Set:
  @DF-RHF Final Energy:  -310.33083053466379
    Total Energy =                       -310.3308305346639600
    Molecular point group: c1
  Basis Set: CC-PVTZ
  Basis Set:
  Basis Set: CC-PVTZ
  Basis Set:
  @DF-RHF Final Energy:  -310.33084605492280
    Total Energy =                       -310.3308460549229153
  Basis Set: CC-PVTZ
  Basis Set:
  Basis Set: CC-PVTZ
  Basis Set:
  @DF-RHF Final Energy:  -310.33196048618720
    Total Energy =                       -310.3319604861873700
  Basis Set: CC-PVTZ
  Basis Set:
  Basis Set: CC-PVTZ
  Basis Set:
  @DF-RHF Final Energy:  -310.33198104564622
    Total Energy =                       -310.3319810456461028
  Basis Set: CC-PVTZ
  Basis Set:
  Basis Set: CC-PVTZ
  Basis Set:
  @DF-RHF Final Energy:  -310.33197970670858
    Total Energy =                       -310.3319797067086938
  Basis Set: CC-PVTZ
  Basis Set:
  Basis Set: CC-PVTZ
  Basis Set:
  @DF-RHF Final Energy:  -310.33198266130449
    Total Energy =                       -310.3319826613044370
  Basis Set: CC-PVTZ
  Basis Set:
  Charge       = 0
  Multiplicity = 1
  Basis Set: CC-PVTZ
  Basis Set:

    Orbital Energies (a.u.)
    -----------------------

    Doubly Occupied:

       1A    -20.544899     2A    -11.265298     3A    -11.214642
       4A    -11.214276     5A    -11.212899     6A    -11.210418
       7A    -11.207292     8A     -1.362594     9A     -1.088597
      10A     -1.034907    11A     -0.955914    12A     -0.878908
      13A     -0.814324    14A     -0.779982    15A     -0.702238
      16A     -0.645724    17A     -0.624555    18A     -0.606689
      19A     -0.594271    20A     -0.571205    21A     -0.547417
      22A     -0.522183    23A     -0.507895    24A     -0.496140
      25A     -0.470915    26A     -0.469723    27A     -0.461585
      28A     -0.456991    29A     -0.422426

  @DF-RHF Final Energy:  -310.33198277732907

   => Energetics <=

    Nuclear Repulsion Energy =            312.5891187003325626
    One-Electron Energy =               -1040.0723896692338712
    Two-Electron Energy =                 417.1512881915722346
    DFT Exchange-Correlation Energy =       0.0000000000000000
    Empirical Dispersion Energy =           0.0000000000000000
    PCM Polarization Energy =               0.0000000000000000
    EFP Energy =                            0.0000000000000000
    Total Energy =                       -310.3319827773290172
    Molecular point group: c1
  Basis Set: CC-PVTZ
  Basis Set:

  -Total Gradient:
     Atom            X                  Y                   Z
    ------   -----------------  -----------------  -----------------
       1       -0.000550791226     0.001054012693     0.000763409673
       2        0.000787245126    -0.001417571060    -0.001224526001
       3       -0.000660318356     0.000787749518     0.001521341691
       4        0.000001188824     0.000003037452     0.000005569310
       5        0.000423870838    -0.000431436985    -0.001061211087
       6       -0.000004221162    -0.000000829006    -0.000003736118
       7       -0.000000726565    -0.000006371179    -0.000000331901
       8       -0.000000048232    -0.000001182582     0.000000170727
       9       -0.000006950984     0.000004725394     0.000001599934
      10        0.000008240426     0.000004418162    -0.000001615805
      11        0.000005439502    -0.000002992991     0.000000132320
      12       -0.000000005466    -0.000001375389     0.000001472959
      13       -0.000008166092     0.000008112268    -0.000003555808
      14       -0.000000112404     0.000001906880    -0.000000420739
      15       -0.000003881255     0.000001230482     0.000001988429
      16        0.000007450680    -0.000003148767     0.000000118711
      17        0.000002104368     0.000000936940    -0.000000559366
      18       -0.000003101073     0.000002638995    -0.000000300273
      19       -0.000002602925    -0.000000603445    -0.000000034754
      20        0.000000756706    -0.000004830537     0.000001680966
      21        0.000004629266     0.000001573156    -0.000001192868

  **** Optimization is complete! (in 7 steps) ****
    Final optimized geometry and variables:
    Molecular point group: c1

    Geometry (in Angstrom), charge = 0, multiplicity = 1:

    H           -3.852664459600     0.531660703681    -0.711067081297
    O           -3.560780286040     0.115477048668     0.077706194300
    C           -2.270248514483     0.556557169805     0.412976718744
    C           -1.191924268586    -0.353021849185    -0.153192488723
    H           -2.112025311595     1.574648767442     0.066377690690
    H           -2.213758526408     0.570894218217     1.494644300899
    C            0.216233021136     0.071126802131     0.254316362034
    H           -1.273556796700    -0.363957817470    -1.237476087705
    H           -1.388638788581    -1.366509435225     0.181562093446
    C            1.299688281004    -0.843190246860    -0.314746032555
    H            0.388096784928     1.093563936731    -0.068604908036
    H            0.290089082252     0.077103733971     1.339616171735
    C            2.723292263310    -0.510150493206     0.134686460664
    H            1.253433142417    -0.820825855497    -1.401154438917
    H            1.076996734228    -1.865850992796    -0.023836366614
    C            3.254289272309     0.830651899115    -0.366725867388
    H            3.384890872402    -1.297519464320    -0.213122882122
    H            2.770924043979    -0.533335845205     1.220235474780
    H            3.211149554862     0.885965421877    -1.449873194055
    H            2.688912040561     1.665378485141     0.029769572916
    H            4.287962432684     0.969291224055    -0.071151162803

  Mulliken Charges: (a.u.)
   Center  Symbol    Alpha    Beta     Spin     Total
       1     H     0.39405  0.39405  0.00000  0.21189
       2     O     4.20275  4.20275  0.00000 -0.40551
       3     C     2.97301  2.97301  0.00000  0.05397
       4     C     3.08433  3.08433  0.00000 -0.16866
       5     H     0.47147  0.47147  0.00000  0.05706
       6     H     0.45586  0.45586  0.00000  0.08828
       7     C     3.10345  3.10345  0.00000 -0.20690
       8     H     0.46081  0.46081  0.00000  0.07839
       9     H     0.44974  0.44974  0.00000  0.10052
      10     C     3.09408  3.09408  0.00000 -0.18816
      11     H     0.45393  0.45393  0.00000  0.09214
      12     H     0.45379  0.45379  0.00000  0.09242
      13     C     3.08995  3.08995  0.00000 -0.17991
      14     H     0.45380  0.45380  0.00000  0.09240
      15     H     0.44838  0.44838  0.00000  0.10324
      16     C     3.15256  3.15256  0.00000 -0.30511
      17     H     0.44830  0.44830  0.00000  0.10340
      18     H     0.45449  0.45449  0.00000  0.09103
      19     H     0.45503  0.45503  0.00000  0.08993
      20     H     0.45408  0.45408  0.00000  0.09183
      21     H     0.44612  0.44612  0.00000  0.10776

   Total alpha = 29.00000, Total beta = 29.00000, Total charge = -0.00000

*** Psi4 exiting successfully. Buy a developer a beer!
