  ==> Input File <==

--------------------------------------------------------------------------
set {
	reference rhf
	basis 6-31G*
}

set_num_threads( 4 )
memory 2 gb

molecule MOL {
0 1

H	 1.788472	 -1.469672	 -0.931996
C	 0.886165	 -2.093082	 -0.929844
C	 -0.414791	 -1.338711	 -1.026665
O	 0.977946	 -3.275488	 -0.854866
C	 -0.558097	 -0.297372	 0.091132
H	 -1.226345	 -2.056606	 -1.004587
H	 -0.435872	 -0.835846	 -1.992850
C	 -1.850991	 0.512573	 -0.019058
H	 -0.527822	 -0.799848	 1.055173
H	 0.293577	 0.380148	 0.069309
C	 -3.096943	 -0.368295	 -0.099594
H	 -1.800724	 1.150330	 -0.898172
H	 -1.931651	 1.177355	 0.838044
H	 -3.060452	 -1.020287	 -0.967456
H	 -3.996858	 0.233488	 -0.175704
H	 -3.191959	 -0.995686	 0.782074

	symmetry c1
}
set optking {
	frozen_dihedral = ("
		9 5 8 12
	")
}

ee = optimize('scf')
oeprop('DIPOLE', 'QUADRUPOLE', 'MULLIKEN_CHARGES')
f=open( 'psi4out.xyz', 'w' )
f.write( "16  " )
f.write( str(ee) + "\n" )
f.write( MOL.save_string_xyz() )
f.close()
--------------------------------------------------------------------------

    Molecular point group: c1
  Charge       = 0
  Multiplicity = 1
  Basis Set: 6-31G*
  Basis Set:
  @DF-RHF Final Energy:  -270.01694946042210
    Total Energy =                       -270.0169494604222109
    Molecular point group: c1
  Basis Set: 6-31G*
  Basis Set:
  Basis Set: 6-31G*
  Basis Set:
  @DF-RHF Final Energy:  -270.01756551524466
    Total Energy =                       -270.0175655152446552
  Basis Set: 6-31G*
  Basis Set:
  Basis Set: 6-31G*
  Basis Set:
  @DF-RHF Final Energy:  -270.01802875970805
    Total Energy =                       -270.0180287597080451
  Basis Set: 6-31G*
  Basis Set:
  Basis Set: 6-31G*
  Basis Set:
  @DF-RHF Final Energy:  -270.01732188812673
    Total Energy =                       -270.0173218881266166
  Basis Set: 6-31G*
  Basis Set:
  @DF-RHF Final Energy:  -270.01815591592765
    Total Energy =                       -270.0181559159277072
  Basis Set: 6-31G*
  Basis Set:
  @DF-RHF Final Energy:  -270.01820015854560
    Total Energy =                       -270.0182001585454827
  Basis Set: 6-31G*
  Basis Set:
  Basis Set: 6-31G*
  Basis Set:
  @DF-RHF Final Energy:  -270.01821089698171
    Total Energy =                       -270.0182108969818842
  Basis Set: 6-31G*
  Basis Set:
  Basis Set: 6-31G*
  Basis Set:
  @DF-RHF Final Energy:  -270.01821212873563
    Total Energy =                       -270.0182121287352857
  Basis Set: 6-31G*
  Basis Set:
  Charge       = 0
  Multiplicity = 1
  Basis Set: 6-31G*
  Basis Set:

    Orbital Energies (a.u.)
    -----------------------

    Doubly Occupied:

       1A    -20.562572     2A    -11.326576     3A    -11.236853
       4A    -11.234886     5A    -11.229607     6A    -11.217943
       7A     -1.402400     8A     -1.096160     9A     -1.015244
      10A     -0.913692    11A     -0.810445    12A     -0.789029
      13A     -0.678651    14A     -0.644243    15A     -0.629582
      16A     -0.604202    17A     -0.579704    18A     -0.553668
      19A     -0.538980    20A     -0.505262    21A     -0.486896
      22A     -0.479613    23A     -0.472820    24A     -0.409816

  @DF-RHF Final Energy:  -270.01821236395404

   => Energetics <=

    Nuclear Repulsion Energy =            231.9961659727885888
    One-Electron Energy =                -825.1910678192515434
    Two-Electron Energy =                 323.1766894825088912
    DFT Exchange-Correlation Energy =       0.0000000000000000
    Empirical Dispersion Energy =           0.0000000000000000
    PCM Polarization Energy =               0.0000000000000000
    EFP Energy =                            0.0000000000000000
    Total Energy =                       -270.0182123639540350
    Molecular point group: c1
  Basis Set: 6-31G*
  Basis Set:

  -Total Gradient:
     Atom            X                  Y                   Z
    ------   -----------------  -----------------  -----------------
       1       -0.000000537126    -0.000000167532     0.000009733008
       2       -0.000007009444    -0.000015772331    -0.000021445329
       3        0.000002977976     0.000006893379     0.000032606580
       4        0.000008952746    -0.000000922832    -0.000002328456
       5       -0.000914918828    -0.001478685956    -0.000718094201
       6        0.000006678200    -0.000004443842    -0.000006414382
       7       -0.000002461550    -0.000004265027    -0.000005193461
       8       -0.000755802920    -0.001302855584    -0.001074622448
       9        0.000885175474     0.001460301083     0.000748198979
      10        0.000001548594     0.000003768351     0.000007372221
      11       -0.000006415820    -0.000001576110    -0.000006207187
      12        0.000784927197     0.001333227581     0.001034461545
      13        0.000000099367     0.000004030266     0.000001674485
      14       -0.000001030745    -0.000002907516     0.000001966677
      15       -0.000000804926    -0.000000644366    -0.000002647486
      16       -0.000001378191     0.000004020443     0.000000939456

  **** Optimization is complete! (in 9 steps) ****
    Final optimized geometry and variables:
    Molecular point group: c1

    Geometry (in Angstrom), charge = 0, multiplicity = 1:

    H            2.475223962335    -0.222449874113    -0.482348314183
    C            1.615513027122    -0.902972680393    -0.463200720485
    C            0.266695379621    -0.236250380299    -0.552291973016
    O            1.784647622160    -2.075784832291    -0.374480994748
    C            0.074954563150     0.798333853530     0.565175259372
    H           -0.490063395818    -1.009427052399    -0.525386573085
    H            0.207280768250     0.263198654931    -1.519176479882
    C           -1.195617906559     1.645426220859     0.433404259141
    H            0.079351117521     0.298378656090     1.531025213682
    H            0.930916408134     1.470551069525     0.573856958690
    C           -2.497783218912     0.846075564165     0.386360096063
    H           -1.115066390405     2.278201273665    -0.447843037462
    H           -1.231493887759     2.324368655853     1.281578776189
    H           -2.566976338708     0.232882969879    -0.505867712239
    H           -3.354870375902     1.511729465178     0.390618766609
    H           -2.584864445647     0.189802300189     1.247886345538

  Mulliken Charges: (a.u.)
   Center  Symbol    Alpha    Beta     Spin     Total
       1     H     0.43208  0.43208  0.00000  0.13583
       2     C     2.82984  2.82984  0.00000  0.34033
       3     C     3.20989  3.20989  0.00000 -0.41978
       4     O     4.23684  4.23684  0.00000 -0.47368
       5     C     3.16603  3.16603  0.00000 -0.33206
       6     H     0.39707  0.39707  0.00000  0.20586
       7     H     0.41050  0.41050  0.00000  0.17901
       8     C     3.15224  3.15224  0.00000 -0.30447
       9     H     0.41267  0.41267  0.00000  0.17467
      10     H     0.41802  0.41802  0.00000  0.16395
      11     C     3.24320  3.24320  0.00000 -0.48640
      12     H     0.42101  0.42101  0.00000  0.15798
      13     H     0.41709  0.41709  0.00000  0.16582
      14     H     0.41831  0.41831  0.00000  0.16339
      15     H     0.41624  0.41624  0.00000  0.16751
      16     H     0.41898  0.41898  0.00000  0.16204

   Total alpha = 24.00000, Total beta = 24.00000, Total charge = -0.00000
