                              Psi4 1.0.54 Driver

  ==> Input File <==

--------------------------------------------------------------------------
set {
	reference rhf
	basis cc-pvtz
}

set_num_threads( 4 )
memory 2 gb

molecule MOL {
0 1

H	 2.233564	 -1.182524	 -0.611699
N	 2.433987	 -0.362316	 -0.080024
C	 1.263552	 0.494993	 0.021953
H	 3.183463	 0.111045	 -0.539971
C	 -0.016533	 -0.325589	 -0.026925
H	 1.280915	 1.180773	 -0.818522
H	 1.263064	 1.106893	 0.925038
C	 -1.280353	 0.525521	 0.047747
H	 -0.016686	 -0.912532	 -0.939714
H	 -0.014099	 -1.037598	 0.796369
C	 -2.560681	 -0.301323	 -0.007747
H	 -1.279957	 1.241025	 -0.770189
H	 -1.270445	 1.110526	 0.963468
H	 -2.617064	 -0.872870	 -0.928010
H	 -3.439525	 0.331102	 0.043462
H	 -2.609427	 -1.002736	 0.818585

	symmetry c1
}
set optking {
	frozen_dihedral = ("
		1 2 3 6
	")
}

ee,wfn = optimize('scf', return_wfn=True)
oeprop( wfn, 'DIPOLE', 'QUADRUPOLE', 'MULLIKEN_CHARGES')
f=open( 'psi4out.xyz', 'w' )
f.write( "16  " )
f.write( str(ee) + "\n" )
f.write( MOL.save_string_xyz() )
f.close()
--------------------------------------------------------------------------

    Molecular point group: c1
  Charge       = 0
  Multiplicity = 1
  Basis Set: CC-PVTZ
  Basis Set:
  @DF-RHF Final Energy:  -212.39672684964629
    Total Energy =                       -212.3967268496461998
    Molecular point group: c1
  Basis Set: CC-PVTZ
  Basis Set:
  Basis Set: CC-PVTZ
  Basis Set:
  @DF-RHF Final Energy:  -212.39830387132011
    Total Energy =                       -212.3983038713201950
  Basis Set: CC-PVTZ
  Basis Set:
  Basis Set: CC-PVTZ
  Basis Set:
  @DF-RHF Final Energy:  -212.39851379021437
    Total Energy =                       -212.3985137902143379
  Basis Set: CC-PVTZ
  Basis Set:
  Basis Set: CC-PVTZ
  Basis Set:
  @DF-RHF Final Energy:  -212.39851935393179
    Total Energy =                       -212.3985193539317606
  Basis Set: CC-PVTZ
  Basis Set:
  Charge       = 0
  Multiplicity = 1
  Basis Set: CC-PVTZ
  Basis Set:

    Orbital Energies (a.u.)
    -----------------------

    Doubly Occupied:

       1A    -15.523605     2A    -11.237424     3A    -11.214939
       4A    -11.212296     5A    -11.207512     6A     -1.176214
       7A     -1.062577     8A     -0.960696     9A     -0.845813
      10A     -0.796513    11A     -0.654535    12A     -0.651048
      13A     -0.601116    14A     -0.577733    15A     -0.573036
      16A     -0.521855    17A     -0.508160    18A     -0.472058
      19A     -0.468054    20A     -0.462773    21A     -0.379073

  @DF-RHF Final Energy:  -212.39851995725658

   => Energetics <=

    Nuclear Repulsion Energy =            186.7010126961898493
    One-Electron Energy =                -655.9850053251999498
    Two-Electron Energy =                 256.8854726717535186
    DFT Exchange-Correlation Energy =       0.0000000000000000
    Empirical Dispersion Energy =           0.0000000000000000
    PCM Polarization Energy =               0.0000000000000000
    EFP Energy =                            0.0000000000000000
    Total Energy =                       -212.3985199572565534
    Molecular point group: c1
  Basis Set: CC-PVTZ
  Basis Set:

  -Total Gradient:
     Atom            X                  Y                   Z
    ------   -----------------  -----------------  -----------------
       1       -0.000878000952    -0.001393941657     0.002593570446
       2        0.001542110907     0.002273678749    -0.002810281759
       3       -0.002192422213    -0.002811874900    -0.001302008982
       4       -0.000001356132     0.000006242094    -0.000004282479
       5        0.000090370354     0.000035407425    -0.000010675867
       6        0.001479924487     0.001873662158     0.001512269284
       7       -0.000001496636     0.000009831921     0.000019837290
       8       -0.000016160033    -0.000010500276    -0.000003326306
       9        0.000005374635     0.000011428482     0.000004009300
      10       -0.000006632406     0.000015692296    -0.000018806769
      11       -0.000031289669     0.000014494150     0.000024488230
      12        0.000015720710    -0.000015069218    -0.000004013220
      13       -0.000001107034    -0.000003382883    -0.000005235768
      14        0.000008798126     0.000006972409     0.000000575635
      15       -0.000012224240    -0.000006313981     0.000004320916
      16       -0.000001609907    -0.000006326771    -0.000000439950

  **** Optimization is complete! (in 5 steps) ****
    Final optimized geometry and variables:
    Molecular point group: c1

    Geometry (in Angstrom), charge = 0, multiplicity = 1:

    H            2.258081703083    -1.181493559681    -0.673258473809
    N            2.438170389694    -0.348238921877    -0.156434425210
    C            1.260280293951     0.503799839378    -0.085084243007
    H            3.218138207342     0.115997904998    -0.566498453951
    C           -0.015535733874    -0.320906329949    -0.030976461061
    H            1.208633455422     1.211176485989    -0.912328663970
    H            1.328864726331     1.104803361219     0.817060833066
    C           -1.273017963165     0.524488364677     0.144736353813
    H           -0.101024891157    -0.906381504333    -0.944477787639
    H            0.064969990527    -1.031646297528     0.786662733039
    C           -2.549495517577    -0.308582747317     0.194446282407
    H           -1.342919850864     1.240834740325    -0.669184130644
    H           -1.188518718915     1.107013120510     1.057632178140
    H           -2.681877978323    -0.877008186312    -0.720169301984
    H           -3.423417986019     0.319699075836     0.322254539591
    H           -2.524669141220    -1.012874465292     1.019186604341

  Mulliken Charges: (a.u.)
   Center  Symbol    Alpha    Beta     Spin     Total
       1     H     0.42988  0.42988  0.00000  0.14024
       2     N     3.69335  3.69335  0.00000 -0.38669
       3     C     3.01632  3.01632  0.00000 -0.03263
       4     H     0.42933  0.42933  0.00000  0.14133
       5     C     3.08603  3.08603  0.00000 -0.17206
       6     H     0.46898  0.46898  0.00000  0.06203
       7     H     0.46180  0.46180  0.00000  0.07640
       8     C     3.08834  3.08834  0.00000 -0.17669
       9     H     0.46048  0.46048  0.00000  0.07905
      10     H     0.44928  0.44928  0.00000  0.10145
      11     C     3.14915  3.14915  0.00000 -0.29831
      12     H     0.45552  0.45552  0.00000  0.08897
      13     H     0.45332  0.45332  0.00000  0.09337
      14     H     0.45549  0.45549  0.00000  0.08903
      15     H     0.44843  0.44843  0.00000  0.10314
      16     H     0.45431  0.45431  0.00000  0.09138

   Total alpha = 21.00000, Total beta = 21.00000, Total charge = -0.00000

*** Psi4 exiting successfully. Buy a developer a beer!
