  ==> Input File <==

--------------------------------------------------------------------------
set {
	reference rhf
	basis 6-31G*
}

set_num_threads( 1 )
memory 2 gb

molecule MOL {
0 1

H	 -1.963588	 -0.812855	 -0.469019
O	 -2.035884	 -0.060112	 0.102722
C	 -0.955155	 0.788182	 -0.092531
C	 0.353668	 0.040312	 -0.004810
H	 -0.985057	 1.290372	 -1.054184
H	 -0.974469	 1.533190	 0.688632
F	 0.394464	 -0.937475	 -0.903053
F	 1.368604	 0.853376	 -0.249821
F	 0.546173	 -0.502608	 1.179981

	symmetry c1
}
set optking {
	frozen_dihedral = ("
		7 4 3 5
	")
}

ee = energy('scf')
oeprop('DIPOLE', 'QUADRUPOLE', 'MULLIKEN_CHARGES')
f=open( 'psi4out.xyz', 'w' )
f.write( "9  " )
f.write( str(ee) + "\n" )
f.write( MOL.save_string_xyz() )
f.close()
--------------------------------------------------------------------------

    Molecular point group: c1

    Geometry (in Angstrom), charge = 0, multiplicity = 1:

       Center              X                  Y                   Z               Mass
    ------------   -----------------  -----------------  -----------------  -----------------
           H         -1.964952258581    -0.811459053628    -0.470507055543     1.007825032070
           O         -2.037248258581    -0.058716053628     0.101233944457    15.994914619560
           C         -0.956519258581     0.789577946372    -0.094019055543    12.000000000000
           C          0.352303741419     0.041707946372    -0.006298055543    12.000000000000
           H         -0.986421258581     1.291767946372    -1.055672055543     1.007825032070
           H         -0.975833258581     1.534585946372     0.687143944457     1.007825032070
           F          0.393099741419    -0.936079053628    -0.904541055543    18.998403224000
           F          1.367239741419     0.854771946372    -0.251309055543    18.998403224000
           F          0.544808741419    -0.501212053628     1.178492944457    18.998403224000

  Charge       = 0
  Multiplicity = 1
  Basis Set: 6-31G*
  Basis Set:

    Orbital Energies (a.u.)
    -----------------------

    Doubly Occupied:

       1A    -26.348267     2A    -26.345415     3A    -26.342283
       4A    -20.589569     5A    -11.503316     6A    -11.309590
       7A     -1.743445     8A     -1.642377     9A     -1.639901
      10A     -1.402347    11A     -1.049125    12A     -0.926039
      13A     -0.833685    14A     -0.831497    15A     -0.810844
      16A     -0.724464    17A     -0.714754    18A     -0.694684
      19A     -0.667236    20A     -0.662582    21A     -0.645689
      22A     -0.630432    23A     -0.620779    24A     -0.529361
      25A     -0.479672

  @DF-RHF Final Energy:  -450.66231062465931

   => Energetics <=

    Nuclear Repulsion Energy =            277.3584108716456740
    One-Electron Energy =               -1176.6667429308140527
    Two-Electron Energy =                 448.6460214345095210
    DFT Exchange-Correlation Energy =       0.0000000000000000
    Empirical Dispersion Energy =           0.0000000000000000
    PCM Polarization Energy =               0.0000000000000000
    EFP Energy =                            0.0000000000000000
    Total Energy =                       -450.6623106246588577

  Mulliken Charges: (a.u.)
   Center  Symbol    Alpha    Beta     Spin     Total
       1     H     0.27251  0.27251  0.00000  0.45499
       2     O     4.36389  4.36389  0.00000 -0.72777
       3     C     3.04469  3.04469  0.00000 -0.08939
       4     C     2.47159  2.47159  0.00000  1.05682
       5     H     0.40976  0.40976  0.00000  0.18048
       6     H     0.39613  0.39613  0.00000  0.20775
       7     F     4.68584  4.68584  0.00000 -0.37168
       8     F     4.68105  4.68105  0.00000 -0.36211
       9     F     4.67454  4.67454  0.00000 -0.34908

   Total alpha = 25.00000, Total beta = 25.00000, Total charge = -0.00000
