                              Psi4 1.0.54 Driver

  ==> Input File <==

--------------------------------------------------------------------------
set {
	reference rhf
	basis cc-pvtz
}

set_num_threads( 4 )
memory 2 gb

molecule MOL {
0 1

H	 3.459101	 0.139266	 -0.762951
C	 2.749156	 -0.051729	 0.031265
C	 1.322304	 0.099773	 -0.484271
H	 2.929445	 -1.053887	 0.403481
H	 2.954281	 0.646699	 0.834672
C	 0.308557	 -0.162619	 0.622645
H	 1.143368	 -0.594400	 -1.295960
H	 1.169532	 1.100095	 -0.870217
N	 -1.069352	 -0.004081	 0.085342
H	 0.371632	 -1.172932	 0.991288
H	 0.400391	 0.548875	 1.426218
O	 -1.864622	 0.532188	 0.781429
O	 -1.286935	 -0.450471	 -0.990918

	symmetry c1
}
set optking {
	frozen_dihedral = ("
		12 9 6 3
	")
}

ee,wfn = optimize('scf', return_wfn=True)
oeprop( wfn, 'DIPOLE', 'QUADRUPOLE', 'MULLIKEN_CHARGES')
f=open( 'psi4out.xyz', 'w' )
f.write( "13  " )
f.write( str(ee) + "\n" )
f.write( MOL.save_string_xyz() )
f.close()
--------------------------------------------------------------------------

    Molecular point group: c1
  Charge       = 0
  Multiplicity = 1
  Basis Set: CC-PVTZ
  Basis Set:
  @DF-RHF Final Energy:  -321.86016390632261
    Total Energy =                       -321.8601639063223274
    Molecular point group: c1
  Basis Set: CC-PVTZ
  Basis Set:
  Basis Set: CC-PVTZ
  Basis Set:
  @DF-RHF Final Energy:  -321.86029758297832
    Total Energy =                       -321.8602975829783190
  Basis Set: CC-PVTZ
  Basis Set:
  Basis Set: CC-PVTZ
  Basis Set:
  @DF-RHF Final Energy:  -321.86078258908225
    Total Energy =                       -321.8607825890824188
  Basis Set: CC-PVTZ
  Basis Set:
  Basis Set: CC-PVTZ
  Basis Set:
  @DF-RHF Final Energy:  -321.86088965105569
    Total Energy =                       -321.8608896510559703
  Basis Set: CC-PVTZ
  Basis Set:
  Basis Set: CC-PVTZ
  Basis Set:
  @DF-RHF Final Energy:  -321.86088879010236
    Total Energy =                       -321.8608887901022513
  Basis Set: CC-PVTZ
  Basis Set:
  Basis Set: CC-PVTZ
  Basis Set:
  @DF-RHF Final Energy:  -321.86090164486802
    Total Energy =                       -321.8609016448679654
  Basis Set: CC-PVTZ
  Basis Set:
  Charge       = 0
  Multiplicity = 1
  Basis Set: CC-PVTZ
  Basis Set:

    Orbital Energies (a.u.)
    -----------------------

    Doubly Occupied:

       1A    -20.591472     2A    -20.590270     3A    -15.837960
       4A    -11.298420     5A    -11.249387     6A    -11.235637
       7A     -1.636890     8A     -1.420957     9A     -1.132403
      10A     -1.027192    11A     -0.884650    12A     -0.829686
      13A     -0.763589    14A     -0.745599    15A     -0.730190
      16A     -0.664215    17A     -0.605747    18A     -0.581780
      19A     -0.551798    20A     -0.522260    21A     -0.510325
      22A     -0.487609    23A     -0.474382    24A     -0.454505

  @DF-RHF Final Energy:  -321.86090195965619

   => Energetics <=

    Nuclear Repulsion Energy =            247.6861143730539823
    One-Electron Energy =                -929.4401828402383217
    Two-Electron Energy =                 359.8931665075280080
    DFT Exchange-Correlation Energy =       0.0000000000000000
    Empirical Dispersion Energy =           0.0000000000000000
    PCM Polarization Energy =               0.0000000000000000
    EFP Energy =                            0.0000000000000000
    Total Energy =                       -321.8609019596563030
    Molecular point group: c1
  Basis Set: CC-PVTZ
  Basis Set:

  -Total Gradient:
     Atom            X                  Y                   Z
    ------   -----------------  -----------------  -----------------
       1       -0.000013611527    -0.000003227116    -0.000006223697
       2       -0.000023019541     0.000004688194     0.000021596027
       3        0.000001190532    -0.000369164065    -0.000100295681
       4        0.000002118500    -0.000002424283     0.000002454721
       5        0.000002931244     0.000001739728     0.000002372001
       6       -0.000031848513     0.000391462202     0.000221113645
       7       -0.000004959531    -0.000002285781    -0.000009693933
       8       -0.000010890634    -0.000011262079     0.000004641773
       9        0.000194980858     0.000459011922    -0.000311810137
      10        0.000002725875     0.000001689727    -0.000004497793
      11        0.000036165372    -0.000009497572     0.000016289119
      12       -0.000111662891    -0.000467740968     0.000171209856
      13       -0.000044119742     0.000007010090    -0.000007155900

  **** Optimization is complete! (in 7 steps) ****
    Final optimized geometry and variables:
    Molecular point group: c1

    Geometry (in Angstrom), charge = 0, multiplicity = 1:

    H            3.450397796121     0.150035289323    -0.931424171045
    C            2.765592863130    -0.042763864314    -0.115941256129
    C            1.322706262006     0.106466421258    -0.588508069982
    H            2.959368078732    -1.045734992748     0.248282520667
    H            2.997281084051     0.653002260491     0.682705926928
    C            0.354577635508    -0.159260789529     0.550274420699
    H            1.119093027449    -0.577406667363    -1.399214463742
    H            1.159832719959     1.108903101313    -0.967937607080
    N           -1.070810030023     0.001491961182     0.139769641377
    H            0.423288640022    -1.180749449588     0.899380549255
    H            0.490927052224     0.509006459711     1.383029847456
    O           -1.797866201005     0.525426553929     0.914512546680
    O           -1.391814739632    -0.430912307866    -0.915841835018

  Mulliken Charges: (a.u.)
   Center  Symbol    Alpha    Beta     Spin     Total
       1     H     0.44143  0.44143  0.00000  0.11715
       2     C     3.15189  3.15189  0.00000 -0.30377
       3     C     3.09459  3.09459  0.00000 -0.18919
       4     H     0.45260  0.45260  0.00000  0.09480
       5     H     0.45244  0.45244  0.00000  0.09512
       6     C     3.04251  3.04251  0.00000 -0.08501
       7     H     0.43350  0.43350  0.00000  0.13300
       8     H     0.44372  0.44372  0.00000  0.11257
       9     N     3.27583  3.27583  0.00000  0.44833
      10     H     0.43721  0.43721  0.00000  0.12559
      11     H     0.43178  0.43178  0.00000  0.13643
      12     O     4.17008  4.17008  0.00000 -0.34016
      13     O     4.17243  4.17243  0.00000 -0.34486

   Total alpha = 24.00000, Total beta = 24.00000, Total charge = -0.00000

*** Psi4 exiting successfully. Buy a developer a beer!
