                              Psi4 1.0.54 Driver

  ==> Input File <==

--------------------------------------------------------------------------
set {
	reference rhf
	basis cc-pvtz
}

set_num_threads( 4 )
memory 2 gb

molecule MOL {
0 1

H	 2.614283	 2.028610	 0.296620
O	 3.358864	 1.662087	 -0.142800
C	 3.565468	 0.338079	 0.273842
C	 2.533667	 -0.637565	 -0.272227
H	 4.548038	 0.064914	 -0.086598
H	 3.593945	 0.282242	 1.360360
C	 1.114816	 -0.402372	 0.240993
H	 2.544552	 -0.580764	 -1.356576
H	 2.850574	 -1.642962	 -0.005497
C	 0.113298	 -1.420414	 -0.302504
H	 0.796373	 0.598427	 -0.031033
H	 1.113377	 -0.446476	 1.328807
C	 0.000118	 -2.712324	 0.508923
H	 -0.866471	 -0.954327	 -0.373512
H	 0.399557	 -1.677348	 -1.318628
C	 -0.596732	 -2.548459	 1.905584
H	 -0.614900	 -3.412722	 -0.049399
H	 0.982506	 -3.172311	 0.589423
C	 -0.780776	 -3.876218	 2.636058
H	 -1.559200	 -2.047526	 1.826901
H	 0.034275	 -1.902119	 2.508144
C	 -1.373002	 -3.715926	 4.032290
H	 -1.422173	 -4.524620	 2.045496
H	 0.178491	 -4.381877	 2.708031
H	 -2.348109	 -3.241838	 3.991728
H	 -1.492713	 -4.676049	 4.521105
H	 -0.735129	 -3.102798	 4.660418

	symmetry c1
}
set optking {
	frozen_dihedral = ("
		14 10 7 4
	")
}

ee,wfn = optimize('scf', return_wfn=True)
oeprop( wfn, 'DIPOLE', 'QUADRUPOLE', 'MULLIKEN_CHARGES')
f=open( 'psi4out.xyz', 'w' )
f.write( "27  " )
f.write( str(ee) + "\n" )
f.write( MOL.save_string_xyz() )
f.close()
--------------------------------------------------------------------------

    Molecular point group: c1
  Charge       = 0
  Multiplicity = 1
  Basis Set: CC-PVTZ
  Basis Set:
  @DF-RHF Final Energy:  -388.42432115834754
    Total Energy =                       -388.4243211583468565
    Molecular point group: c1
  Basis Set: CC-PVTZ
  Basis Set:
  Basis Set: CC-PVTZ
  Basis Set:
  @DF-RHF Final Energy:  -388.42434116766304
    Total Energy =                       -388.4243411676625328
  Basis Set: CC-PVTZ
  Basis Set:
  Basis Set: CC-PVTZ
  Basis Set:
  @DF-RHF Final Energy:  -388.42480372861110
    Total Energy =                       -388.4248037286117778
  Basis Set: CC-PVTZ
  Basis Set:
  Basis Set: CC-PVTZ
  Basis Set:
  @DF-RHF Final Energy:  -388.42483740384694
    Total Energy =                       -388.4248374038462543
  Basis Set: CC-PVTZ
  Basis Set:
  Basis Set: CC-PVTZ
  Basis Set:
  @DF-RHF Final Energy:  -388.42484524448037
    Total Energy =                       -388.4248452444804798
  Basis Set: CC-PVTZ
  Basis Set:
  Charge       = 0
  Multiplicity = 1
  Basis Set: CC-PVTZ
  Basis Set:

    Orbital Energies (a.u.)
    -----------------------

    Doubly Occupied:

       1A    -20.545247     2A    -11.264990     3A    -11.217017
       4A    -11.214761     5A    -11.214292     6A    -11.213574
       7A    -11.213318     8A    -11.212199     9A    -11.207733
      10A     -1.363177    11A     -1.095999    12A     -1.062038
      13A     -1.011313    14A     -0.950407    15A     -0.888128
      16A     -0.827445    17A     -0.802162    18A     -0.772269
      19A     -0.696173    20A     -0.656868    21A     -0.630774
      22A     -0.618370    23A     -0.604507    24A     -0.584076
      25A     -0.579907    26A     -0.554035    27A     -0.543873
      28A     -0.528055    29A     -0.510845    30A     -0.503880
      31A     -0.481918    32A     -0.476485    33A     -0.464387
      34A     -0.457558    35A     -0.449707    36A     -0.443192
      37A     -0.428069

  @DF-RHF Final Energy:  -388.42484561968757

   => Energetics <=

    Nuclear Repulsion Energy =            462.1615811848617454
    One-Electron Energy =               -1442.5953662658521353
    Two-Electron Energy =                 592.0089394613023615
    DFT Exchange-Correlation Energy =       0.0000000000000000
    Empirical Dispersion Energy =           0.0000000000000000
    PCM Polarization Energy =               0.0000000000000000
    EFP Energy =                            0.0000000000000000
    Total Energy =                       -388.4248456196880852
    Molecular point group: c1
  Basis Set: CC-PVTZ
  Basis Set:

  -Total Gradient:
     Atom            X                  Y                   Z
    ------   -----------------  -----------------  -----------------
       1        0.000004830182     0.000002893065     0.000001992391
       2       -0.000015552206     0.000022111378    -0.000006461209
       3        0.000011956889    -0.000022469006     0.000007424153
       4       -0.000412691134     0.001168002438    -0.001459411728
       5        0.000008746178     0.000000977412     0.000005695227
       6       -0.000003375200     0.000001298776    -0.000013818158
       7        0.000661789004    -0.001436589334     0.001454842800
       8       -0.000006171242    -0.000004809566     0.000005323681
       9        0.000000216684     0.000000678522    -0.000002507106
      10       -0.000673131708    -0.000523205856     0.002506170123
      11        0.000012773402     0.000006044407     0.000000151481
      12        0.000001762031    -0.000000071931     0.000005279132
      13       -0.000048520153     0.000016828353    -0.000012556514
      14        0.000430252047     0.000771814201    -0.002469633020
      15       -0.000001736697    -0.000010288535    -0.000015298571
      16        0.000027765409     0.000026655093    -0.000002324301
      17       -0.000000599838    -0.000002656051    -0.000010349846
      18       -0.000009059394     0.000012614097     0.000010404724
      19       -0.000007827467    -0.000016313497     0.000006879702
      20        0.000010327549     0.000000065565    -0.000008757781
      21        0.000000270012     0.000003874173    -0.000006914710
      22        0.000014887919    -0.000009122380    -0.000006939192
      23        0.000001863904    -0.000000148877     0.000002789478
      24       -0.000006608114    -0.000005783816     0.000015745906
      25       -0.000000074730    -0.000001269931    -0.000006106498
      26       -0.000001535102    -0.000001885987     0.000002249799
      27       -0.000000558214     0.000000757285    -0.000003869960

  **** Optimization is complete! (in 6 steps) ****
    Final optimized geometry and variables:
    Molecular point group: c1

    Geometry (in Angstrom), charge = 0, multiplicity = 1:

    H            1.763084594007     3.432190840805    -0.628690835078
    O            2.486344825594     3.082271665965    -1.114666817529
    C            2.691663930197     1.735576526864    -0.778085646263
    C            1.618513056129     0.804174544409    -1.321520447787
    H            3.651001550803     1.468700304589    -1.200530183646
    H            2.772396892604     1.622547187057     0.301318756840
    C            0.225188223031     1.049754816893    -0.742926048950
    H            1.582507008033     0.909196944633    -2.401307502035
    H            1.930129576170    -0.216423365931    -1.114020980073
    C           -0.827014249476     0.048459873077    -1.242251093300
    H           -0.092759022007     2.049576975854    -1.021582160489
    H            0.272347628118     1.036221220507     0.342219485913
    C           -0.915999142065    -1.258439870256    -0.449955020555
    H           -1.802369188177     0.525107505966    -1.263372469736
    H           -0.603102638500    -0.187564514012    -2.278649023139
    C           -1.584134729899    -1.126380502502     0.917456429908
    H           -1.475563048826    -1.981016256038    -1.037119845559
    H            0.078409172397    -1.680009644909    -0.326586571875
    C           -1.668094679011    -2.449223312877     1.674578441181
    H           -2.586834912962    -0.726687541559     0.784513483750
    H           -1.049431239015    -0.405178648018     1.528615549201
    C           -2.349695984116    -2.321172771882     3.032788766582
    H           -2.204670711842    -3.175262067029     1.069956095778
    H           -0.666781144885    -2.848734988703     1.811073085504
    H           -3.366244544361    -1.956832016145     2.927651063934
    H           -2.392563085954    -3.276702859430     3.542821105650
    H           -1.816542329513    -1.627715687807     3.674802353054

  Mulliken Charges: (a.u.)
   Center  Symbol    Alpha    Beta     Spin     Total
       1     H     0.39227  0.39227  0.00000  0.21546
       2     O     4.20563  4.20563  0.00000 -0.41125
       3     C     2.97937  2.97937  0.00000  0.04126
       4     C     3.08632  3.08632  0.00000 -0.17264
       5     H     0.44861  0.44861  0.00000  0.10277
       6     H     0.46975  0.46975  0.00000  0.06049
       7     C     3.11310  3.11310  0.00000 -0.22620
       8     H     0.45020  0.45020  0.00000  0.09960
       9     H     0.45654  0.45654  0.00000  0.08692
      10     C     3.11116  3.11116  0.00000 -0.22231
      11     H     0.44897  0.44897  0.00000  0.10207
      12     H     0.45111  0.45111  0.00000  0.09778
      13     C     3.09782  3.09782  0.00000 -0.19565
      14     H     0.44509  0.44509  0.00000  0.10983
      15     H     0.44710  0.44710  0.00000  0.10581
      16     C     3.08634  3.08634  0.00000 -0.17267
      17     H     0.44701  0.44701  0.00000  0.10597
      18     H     0.45322  0.45322  0.00000  0.09355
      19     C     3.08424  3.08424  0.00000 -0.16848
      20     H     0.45455  0.45455  0.00000  0.09091
      21     H     0.45459  0.45459  0.00000  0.09082
      22     C     3.14977  3.14977  0.00000 -0.29954
      23     H     0.45386  0.45386  0.00000  0.09229
      24     H     0.45458  0.45458  0.00000  0.09084
      25     H     0.45501  0.45501  0.00000  0.08999
      26     H     0.44814  0.44814  0.00000  0.10372
      27     H     0.45566  0.45566  0.00000  0.08867

   Total alpha = 37.00000, Total beta = 37.00000, Total charge = -0.00000

*** Psi4 exiting successfully. Buy a developer a beer!
