                              Psi4 1.0.54 Driver

  ==> Input File <==

--------------------------------------------------------------------------
set {
	reference rhf
	basis cc-pvtz
}

set_num_threads( 4 )
memory 2 gb

molecule MOL {
0 1

H	 -3.162190	 0.493205	 -0.000107
C	 -2.363908	 -0.234727	 0.000005
O	 -1.158738	 0.454634	 -0.000087
H	 -2.464314	 -0.863616	 -0.882153
H	 -2.464327	 -0.863359	 0.882345
C	 -0.028611	 -0.359694	 0.000037
C	 -0.149337	 -1.381299	 -1.112681
H	 0.069937	 -0.862307	 0.962485
H	 0.867780	 0.244772	 -0.140485
C	 1.054161	 -2.314852	 -1.179176
H	 -1.057778	 -1.953281	 -0.959391
H	 -0.266224	 -0.855001	 -2.053584
H	 1.175351	 -2.870139	 -0.255025
H	 0.941691	 -3.033493	 -1.981627
H	 1.972142	 -1.764562	 -1.356826

	symmetry c1
}
set optking {
	frozen_dihedral = ("
		8 6 3 2
	")
}

ee,wfn = optimize('scf', return_wfn=True)
oeprop( wfn, 'DIPOLE', 'QUADRUPOLE', 'MULLIKEN_CHARGES')
f=open( 'psi4out.xyz', 'w' )
f.write( "15  " )
f.write( str(ee) + "\n" )
f.write( MOL.save_string_xyz() )
f.close()
--------------------------------------------------------------------------

    Molecular point group: c1
  Charge       = 0
  Multiplicity = 1
  Basis Set: CC-PVTZ
  Basis Set:
  @DF-RHF Final Energy:  -232.21605960335017
    Total Energy =                       -232.2160596033500042
    Molecular point group: c1
  Basis Set: CC-PVTZ
  Basis Set:
  Basis Set: CC-PVTZ
  Basis Set:
  @DF-RHF Final Energy:  -231.59284402765243
    Total Energy =                       -231.5928440276524043
  Basis Set: CC-PVTZ
  Basis Set:
  Basis Set: CC-PVTZ
  Basis Set:
  @DF-RHF Final Energy:  -231.77778803153143
    Total Energy =                       -231.7777880315313723
  Basis Set: CC-PVTZ
  Basis Set:
  Basis Set: CC-PVTZ
  Basis Set:
  @DF-RHF Final Energy:  -232.06366506300748
    Total Energy =                       -232.0636650630073916
  Basis Set: CC-PVTZ
  Basis Set:
  @DF-RHF Final Energy:  -231.81189028902728
    Total Energy =                       -231.8118902890273034
  @DF-RHF Final Energy:  -231.36625305578795
    Total Energy =                       -231.3662530557879506
  @DF-RHF Final Energy:  -231.55498678580827
    Total Energy =                       -231.5549867858084099
  @DF-RHF Final Energy:  -231.76056713157919
    Total Energy =                       -231.7605671315789948
  @DF-RHF Final Energy:  -232.02979223996479
    Total Energy =                       -232.0297922399646779
  @DF-RHF Final Energy:  -232.17333064324893
    Total Energy =                       -232.1733306432490735
  @DF-RHF Final Energy:  -231.94181650365803
    Total Energy =                       -231.9418165036578898
  @DF-RHF Final Energy:  -232.11140037015335
    Total Energy =                       -232.1114003701534898
  @DF-RHF Final Energy:  -232.20143386181272
    Total Energy =                       -232.2014338618125748
  @DF-RHF Final Energy:  -232.21931681770957
    Total Energy =                       -232.2193168177093980
  @DF-RHF Final Energy:  -232.22183020286249
    Total Energy =                       -232.2218302028622929
  @DF-RHF Final Energy:  -232.22374143716002
    Total Energy =                       -232.2237414371600721
  Basis Set: CC-PVTZ
  Basis Set:
  @DF-RHF Final Energy:  -232.22398712208036
    Total Energy =                       -232.2239871220804730
  Basis Set: CC-PVTZ
  Basis Set:
  Basis Set: CC-PVTZ
  Basis Set:
  @DF-RHF Final Energy:  -232.22398178495905
    Total Energy =                       -232.2239817849589940
  Basis Set: CC-PVTZ
  Basis Set:
  Basis Set: CC-PVTZ
  Basis Set:
  @DF-RHF Final Energy:  -232.22401138068423
    Total Energy =                       -232.2240113806841464
  Basis Set: CC-PVTZ
  Basis Set:
  Charge       = 0
  Multiplicity = 1
  Basis Set: CC-PVTZ
  Basis Set:

    Orbital Energies (a.u.)
    -----------------------

    Doubly Occupied:

       1A    -20.545186     2A    -11.264129     3A    -11.260424
       4A    -11.217336     5A    -11.213914     6A     -1.376886
       7A     -1.058541     8A     -0.961275     9A     -0.885001
      10A     -0.802391    11A     -0.671519    12A     -0.660292
      13A     -0.633305    14A     -0.605608    15A     -0.564415
      16A     -0.529384    17A     -0.527502    18A     -0.499005
      19A     -0.487569    20A     -0.451851    21A     -0.410148

  @DF-RHF Final Energy:  -232.22401203892457

   => Energetics <=

    Nuclear Repulsion Energy =            192.2672479547321700
    One-Electron Energy =                -695.7311633364523686
    Two-Electron Energy =                 271.2399033427956283
    DFT Exchange-Correlation Energy =       0.0000000000000000
    Empirical Dispersion Energy =           0.0000000000000000
    PCM Polarization Energy =               0.0000000000000000
    EFP Energy =                            0.0000000000000000
    Total Energy =                       -232.2240120389245703
    Molecular point group: c1
  Basis Set: CC-PVTZ
  Basis Set:

  -Total Gradient:
     Atom            X                  Y                   Z
    ------   -----------------  -----------------  -----------------
       1        0.000034288099    -0.000094751431     0.000020895232
       2       -0.001930590951    -0.000756928880    -0.001536800325
       3        0.002777467348     0.001246743801     0.003011233922
       4       -0.000047465101     0.000013621134     0.000023583704
       5       -0.000050536951    -0.000044126438    -0.000001336977
       6       -0.000144578920    -0.000047349554    -0.004706125678
       7       -0.000034591306     0.000006917284     0.000029682851
       8       -0.000681198978    -0.000288371208     0.003179692754
       9        0.000035097025    -0.000016503380    -0.000017732804
      10        0.000058931818    -0.000006495365     0.000019735901
      11       -0.000018071969     0.000000940475     0.000013746305
      12        0.000013191156     0.000017409380    -0.000004959593
      13       -0.000025953553    -0.000013137292    -0.000009473474
      14       -0.000000171436    -0.000003624087    -0.000008711045
      15        0.000014183720    -0.000014344440    -0.000013430774

  **** Optimization is complete! (in 20 steps) ****
    Final optimized geometry and variables:
    Molecular point group: c1

    Geometry (in Angstrom), charge = 0, multiplicity = 1:

    H            1.873578134336    -2.409325854592    -0.070659426901
    C            1.420141661375    -1.463649901807    -0.331859607499
    O            0.553002728729    -1.121107644692     0.699556367399
    H            0.905972773084    -1.580027730139    -1.280164566610
    H            2.210011635665    -0.724743822337    -0.454881443145
    C            0.029212354796     0.173432919188     0.680395870349
    C           -0.705403938682     0.565099017403    -0.593708443635
    H            0.817067460944     0.893003609748     0.906156074007
    H           -0.664697910640     0.209071954605     1.511198241225
    C           -1.394597811205     1.918034522949    -0.446175652627
    H           -0.018257307266     0.606011810133    -1.431438787148
    H           -1.438849099675    -0.201560956308    -0.823091744760
    H           -0.678888542516     2.701695822916    -0.221080762230
    H           -1.907440847963     2.193980642338    -1.359437419813
    H           -2.127899806320     1.900833325793     0.352692842476

  Mulliken Charges: (a.u.)
   Center  Symbol    Alpha    Beta     Spin     Total
       1     H     0.44398  0.44398  0.00000  0.11205
       2     C     3.03656  3.03656  0.00000 -0.07312
       3     O     4.17578  4.17578  0.00000 -0.35157
       4     H     0.46825  0.46825  0.00000  0.06350
       5     H     0.47283  0.47283  0.00000  0.05435
       6     C     2.97526  2.97526  0.00000  0.04949
       7     C     3.09449  3.09449  0.00000 -0.18899
       8     H     0.46997  0.46997  0.00000  0.06006
       9     H     0.45206  0.45206  0.00000  0.09588
      10     C     3.15231  3.15231  0.00000 -0.30462
      11     H     0.45469  0.45469  0.00000  0.09062
      12     H     0.44895  0.44895  0.00000  0.10211
      13     H     0.45495  0.45495  0.00000  0.09009
      14     H     0.44667  0.44667  0.00000  0.10665
      15     H     0.45325  0.45325  0.00000  0.09351

   Total alpha = 21.00000, Total beta = 21.00000, Total charge = -0.00000

*** Psi4 exiting successfully. Buy a developer a beer!
