  ==> Input File <==

--------------------------------------------------------------------------
set {
	reference rhf
	basis 6-31G*
}

set_num_threads( 4 )
memory 2 gb

molecule MOL {
0 1

H	 3.298252	 -0.439132	 -0.019734
C	 2.238698	 -0.255425	 -0.015492
C	 1.633682	 0.268145	 1.120594
C	 1.485841	 -0.542040	 -1.142007
H	 2.224830	 0.488000	 1.991073
C	 0.273185	 0.505282	 1.129436
H	 1.957330	 -0.946945	 -2.018931
C	 0.121051	 -0.303687	 -1.131874
H	 -0.213472	 0.909409	 1.997190
C	 -0.488460	 0.219100	 0.000000
H	 -0.469530	 -0.524425	 -2.004477
C	 -1.949954	 0.470334	 0.000000
O	 -2.781584	 -0.381627	 0.000000
H	 -2.238022	 1.526388	 0.000000

	symmetry c1
}
set optking {
	frozen_dihedral = ("
		8 10 12 14
	")
}

ee = optimize('scf')
oeprop('DIPOLE', 'QUADRUPOLE', 'MULLIKEN_CHARGES')
f=open( 'psi4out.xyz', 'w' )
f.write( "14  " )
f.write( str(ee) + "\n" )
f.write( MOL.save_string_xyz() )
f.close()
--------------------------------------------------------------------------

    Molecular point group: c1
  Charge       = 0
  Multiplicity = 1
  Basis Set: 6-31G*
  Basis Set:
  @DF-RHF Final Energy:  -343.42020974980602
    Total Energy =                       -343.4202097498059629
    Molecular point group: c1
  Basis Set: 6-31G*
  Basis Set:
  Basis Set: 6-31G*
  Basis Set:
  @DF-RHF Final Energy:  -343.41905524110956
    Total Energy =                       -343.4190552411095041
  Basis Set: 6-31G*
  Basis Set:
  Basis Set: 6-31G*
  Basis Set:
  @DF-RHF Final Energy:  -343.42082652433237
    Total Energy =                       -343.4208265243320852
  Basis Set: 6-31G*
  Basis Set:
  Basis Set: 6-31G*
  Basis Set:
  @DF-RHF Final Energy:  -343.42105168686908
    Total Energy =                       -343.4210516868688501
  Basis Set: 6-31G*
  Basis Set:
  Basis Set: 6-31G*
  Basis Set:
  @DF-RHF Final Energy:  -343.42105408323096
    Total Energy =                       -343.4210540832310130
  Basis Set: 6-31G*
  Basis Set:
  Charge       = 0
  Multiplicity = 1
  Basis Set: 6-31G*
  Basis Set:

    Orbital Energies (a.u.)
    -----------------------

    Doubly Occupied:

       1A    -20.570844     2A    -11.335136     3A    -11.250936
       4A    -11.248643     5A    -11.246987     6A    -11.245037
       7A    -11.243918     8A    -11.242980     9A     -1.409944
      10A     -1.169506    11A     -1.045327    12A     -1.029414
      13A     -0.887259    14A     -0.841231    15A     -0.793891
      16A     -0.720700    17A     -0.677089    18A     -0.651836
      19A     -0.636500    20A     -0.616724    21A     -0.600983
      22A     -0.535904    23A     -0.528117    24A     -0.510050
      25A     -0.502148    26A     -0.422012    27A     -0.347115
      28A     -0.346295

  @DF-RHF Final Energy:  -343.42105460177874

   => Energetics <=

    Nuclear Repulsion Energy =            322.3369690303296125
    One-Electron Energy =               -1104.2029925869496765
    Two-Electron Energy =                 438.4449689548414995
    DFT Exchange-Correlation Energy =       0.0000000000000000
    Empirical Dispersion Energy =           0.0000000000000000
    PCM Polarization Energy =               0.0000000000000000
    EFP Energy =                            0.0000000000000000
    Total Energy =                       -343.4210546017786214
    Molecular point group: c1
  Basis Set: 6-31G*
  Basis Set:

  -Total Gradient:
     Atom            X                  Y                   Z
    ------   -----------------  -----------------  -----------------
       1        0.000002842818     0.000002079416     0.000006912496
       2       -0.000010563282    -0.000024629985    -0.000085625372
       3       -0.000065894899     0.000025803985     0.000027560203
       4        0.000111511488     0.000001808073     0.000073616513
       5        0.000008089372    -0.000005990388    -0.000008757724
       6        0.000070938994    -0.000031090192     0.000051444181
       7       -0.000003783362     0.000002012758     0.000001915733
       8        0.000868504031     0.004736016355    -0.001490131689
       9       -0.000002955801     0.000004669973    -0.000004797384
      10       -0.001411769004    -0.006767490134     0.000159759904
      11        0.000000569137    -0.000000128802     0.000001681965
      12        0.000285099422     0.001820899309     0.007460953198
      13        0.000026375582     0.000043854415    -0.000001686474
      14        0.000121035501     0.000192185217    -0.006192845551

  **** Optimization is complete! (in 6 steps) ****
    Final optimized geometry and variables:
    Molecular point group: c1

    Geometry (in Angstrom), charge = 0, multiplicity = 1:

    H            3.313836123410    -0.408065429083    -0.015941131471
    C            2.252092972461    -0.239213759280    -0.001331171694
    C            1.648472430227     0.278125746853     1.134263409402
    C            1.488334035644    -0.531817786956    -1.119633302643
    H            2.239793811750     0.509423954468     2.001782116874
    C            0.283260419129     0.507710343986     1.148165402573
    H            1.956124427258    -0.924520859403    -2.004351515781
    C            0.119389089832    -0.320832073712    -1.100433814535
    H           -0.180364549158     0.926606627852     2.024738499696
    C           -0.489206165542     0.184366292941     0.040157216683
    H           -0.477134784157    -0.557626283705    -1.962929305980
    C           -1.956338293767     0.484267813016     0.024978629722
    O           -2.802045703604    -0.340781467575    -0.100815140209
    H           -2.222058531751     1.545136789214     0.054469424147

  Mulliken Charges: (a.u.)
   Center  Symbol    Alpha    Beta     Spin     Total
       1     H     0.39560  0.39560  0.00000  0.20880
       2     C     3.09716  3.09716  0.00000 -0.19433
       3     C     3.09902  3.09902  0.00000 -0.19803
       4     C     3.09904  3.09904  0.00000 -0.19809
       5     H     0.39524  0.39524  0.00000  0.20952
       6     C     3.10533  3.10533  0.00000 -0.21067
       7     H     0.39492  0.39492  0.00000  0.21015
       8     C     3.10052  3.10052  0.00000 -0.20103
       9     H     0.39369  0.39369  0.00000  0.21262
      10     C     3.03379  3.03379  0.00000 -0.06759
      11     H     0.38754  0.38754  0.00000  0.22491
      12     C     2.84929  2.84929  0.00000  0.30142
      13     O     4.22642  4.22642  0.00000 -0.45284
      14     H     0.42243  0.42243  0.00000  0.15515

   Total alpha = 28.00000, Total beta = 28.00000, Total charge = -0.00000
