  ==> Input File <==

--------------------------------------------------------------------------
set {
	reference rhf
	basis cc-pvtz
}

set_num_threads( 4 )
memory 2 gb

molecule MOL {
0 1

H	 -2.816458	 -0.841657	 -0.064679
N	 -1.878861	 -0.711874	 0.250184
C	 -1.341419	 0.551458	 -0.220231
H	 -1.333674	 -1.468530	 -0.105118
C	 -0.643647	 0.368841	 -1.548543
H	 -2.096421	 1.328536	 -0.332776
H	 -0.612500	 0.908042	 0.499196
O	 -1.588078	 -0.005567	 -2.505402
H	 -0.161051	 1.299572	 -1.843521
H	 0.122113	 -0.398041	 -1.456715
C	 -1.060301	 -0.272495	 -3.762152
H	 -1.876987	 -0.546451	 -4.414346
H	 -0.559951	 0.600056	 -4.176880
H	 -0.348062	 -1.093553	 -3.728367

	symmetry c1
}
set optking {
	frozen_dihedral = ("
		6 3 2 4
	")
}

ee = optimize('scf')
oeprop('DIPOLE', 'QUADRUPOLE', 'MULLIKEN_CHARGES')
f=open( 'psi4out.xyz', 'w' )
f.write( "14  " )
f.write( str(ee) + "\n" )
f.write( MOL.save_string_xyz() )
f.close()
--------------------------------------------------------------------------

    Molecular point group: c1
  Charge       = 0
  Multiplicity = 1
  Basis Set: CC-PVTZ
  Basis Set:
  @DF-RHF Final Energy:  -248.22129973643314
    Total Energy =                       -248.2212997364333091
    Molecular point group: c1
  Basis Set: CC-PVTZ
  Basis Set:
  Basis Set: CC-PVTZ
  Basis Set:
  @DF-RHF Final Energy:  -248.22311728212654
    Total Energy =                       -248.2231172821265091
  Basis Set: CC-PVTZ
  Basis Set:
  Basis Set: CC-PVTZ
  Basis Set:
  @DF-RHF Final Energy:  -248.22334780503033
    Total Energy =                       -248.2233478050302438
  Basis Set: CC-PVTZ
  Basis Set:
  Basis Set: CC-PVTZ
  Basis Set:
  @DF-RHF Final Energy:  -248.22335405702037
    Total Energy =                       -248.2233540570201171
  Basis Set: CC-PVTZ
  Basis Set:
  Charge       = 0
  Multiplicity = 1
  Basis Set: CC-PVTZ
  Basis Set:

    Orbital Energies (a.u.)
    -----------------------

    Doubly Occupied:

       1A    -20.553954     2A    -15.524640     3A    -11.268400
       4A    -11.267144     5A    -11.240866     6A     -1.388428
       7A     -1.176684     8A     -1.002140     9A     -0.910531
      10A     -0.824028    11A     -0.688073    12A     -0.669062
      13A     -0.649860    14A     -0.636346    15A     -0.582419
      16A     -0.546742    17A     -0.535184    18A     -0.506504
      19A     -0.475801    20A     -0.423793    21A     -0.385661

  @DF-RHF Final Energy:  -248.22335438982702

   => Energetics <=

    Nuclear Repulsion Energy =            194.2656508083103404
    One-Electron Energy =                -722.4654963912721541
    Two-Electron Energy =                 279.9764911931347342
    DFT Exchange-Correlation Energy =       0.0000000000000000
    Empirical Dispersion Energy =           0.0000000000000000
    PCM Polarization Energy =               0.0000000000000000
    EFP Energy =                            0.0000000000000000
    Total Energy =                       -248.2233543898271364
    Molecular point group: c1
  Basis Set: CC-PVTZ
  Basis Set:

  -Total Gradient:
     Atom            X                  Y                   Z
    ------   -----------------  -----------------  -----------------
       1       -0.000019754576    -0.000013264347     0.000001903274
       2        0.002611046011     0.000155171107     0.002908363644
       3        0.000129289903     0.001246348682     0.003105476507
       4       -0.002157329761    -0.000258174792    -0.002945491445
       5        0.000023527682    -0.000058000042     0.000041350890
       6       -0.000564634793    -0.001105110984    -0.003082642243
       7       -0.000004329394    -0.000007887256     0.000012178025
       8       -0.000002148609     0.000019774681    -0.000033326064
       9       -0.000019715370     0.000002839807    -0.000015462966
      10        0.000014052419     0.000007903238     0.000004409220
      11       -0.000010819471     0.000017258961     0.000003316542
      12        0.000000282334    -0.000002131984    -0.000001452107
      13        0.000001393684    -0.000002202045    -0.000006153680
      14       -0.000000860057    -0.000002525026     0.000007530404

  **** Optimization is complete! (in 5 steps) ****
    Final optimized geometry and variables:
    Molecular point group: c1

    Geometry (in Angstrom), charge = 0, multiplicity = 1:

    H           -1.532067104115    -0.763085905697     1.539963125720
    N           -0.610256873681    -0.645708639487     1.903119365558
    C           -0.018284192566     0.564101341184     1.353586627147
    H           -0.104916513654    -1.454140551175     1.603986291003
    C            0.668551748484     0.388289227752     0.012428792665
    H           -0.801435571985     1.301137005996     1.224092727636
    H            0.705166414342     0.968073291124     2.054011651168
    O           -0.268830043128    -0.002654690473    -0.940664018167
    H            1.140101807419     1.325452757855    -0.282493338962
    H            1.458006329992    -0.361223820375     0.091188019718
    C            0.251388237041    -0.212196438408    -2.211342504718
    H           -0.561422623304    -0.509167651598    -2.858145264328
    H            0.703792626664     0.692605323136    -2.611310430230
    H            1.002564202393    -0.999181281556    -2.209714476223

  Mulliken Charges: (a.u.)
   Center  Symbol    Alpha    Beta     Spin     Total
       1     H     0.42710  0.42710  0.00000  0.14579
       2     N     3.68481  3.68481  0.00000 -0.36961
       3     C     3.02420  3.02420  0.00000 -0.04839
       4     H     0.43387  0.43387  0.00000  0.13227
       5     C     2.97193  2.97193  0.00000  0.05614
       6     H     0.45532  0.45532  0.00000  0.08937
       7     H     0.45812  0.45812  0.00000  0.08376
       8     O     4.17665  4.17665  0.00000 -0.35329
       9     H     0.47056  0.47056  0.00000  0.05888
      10     H     0.47674  0.47674  0.00000  0.04652
      11     C     3.03134  3.03134  0.00000 -0.06269
      12     H     0.44686  0.44686  0.00000  0.10629
      13     H     0.47079  0.47079  0.00000  0.05842
      14     H     0.47173  0.47173  0.00000  0.05654

   Total alpha = 21.00000, Total beta = 21.00000, Total charge =  0.00000
