  ==> Input File <==

--------------------------------------------------------------------------
set {
	reference rhf
	basis 6-31G*
}

set_num_threads( 4 )
memory 2 gb

molecule MOL {
0 1

H	 -0.033621	 -0.425234	 0.759492
N	 -0.626943	 -0.667432	 -0.000092
C	 -1.979713	 -0.158776	 0.000050
C	 -0.126542	 -1.455239	 -0.982499
H	 -2.520245	 -0.492427	 -0.879443
H	 -1.934741	 0.918111	 -0.004428
H	 -2.517790	 -0.485056	 0.883818
C	 1.315920	 -1.874001	 -0.780190
O	 -0.764992	 -1.799501	 -1.938574
H	 1.425767	 -2.434952	 0.142643
H	 1.620161	 -2.491677	 -1.611822
H	 1.963099	 -1.004384	 -0.723078

	symmetry c1
}
set optking {
	frozen_dihedral = ("
		4 2 3 5
	")
}

ee = optimize('scf')
oeprop('DIPOLE', 'QUADRUPOLE', 'MULLIKEN_CHARGES')
f=open( 'psi4out.xyz', 'w' )
f.write( "12  " )
f.write( str(ee) + "\n" )
f.write( MOL.save_string_xyz() )
f.close()
--------------------------------------------------------------------------

    Molecular point group: c1
  Charge       = 0
  Multiplicity = 1
  Basis Set: 6-31G*
  Basis Set:
  @DF-RHF Final Energy:  -247.00486758082963
    Total Energy =                       -247.0048675808295684
    Molecular point group: c1
  Basis Set: 6-31G*
  Basis Set:
  Basis Set: 6-31G*
  Basis Set:
  @DF-RHF Final Energy:  -247.00536918467390
    Total Energy =                       -247.0053691846739525
  Basis Set: 6-31G*
  Basis Set:
  Basis Set: 6-31G*
  Basis Set:
  @DF-RHF Final Energy:  -247.00543650822348
    Total Energy =                       -247.0054365082235108
  Basis Set: 6-31G*
  Basis Set:
  Basis Set: 6-31G*
  Basis Set:
  @DF-RHF Final Energy:  -247.00542172000956
    Total Energy =                       -247.0054217200096218
  Basis Set: 6-31G*
  Basis Set:
  Charge       = 0
  Multiplicity = 1
  Basis Set: 6-31G*
  Basis Set:

    Orbital Energies (a.u.)
    -----------------------

    Doubly Occupied:

       1A    -20.515831     2A    -15.581296     3A    -11.343221
       4A    -11.253653     5A    -11.229688     6A     -1.384109
       7A     -1.228038     8A     -1.015702     9A     -0.931570
      10A     -0.786417    11A     -0.689196    12A     -0.648066
      13A     -0.632140    14A     -0.585956    15A     -0.579646
      16A     -0.554574    17A     -0.543920    18A     -0.507671
      19A     -0.412814    20A     -0.384105

  @DF-RHF Final Energy:  -247.00547261028905

   => Energetics <=

    Nuclear Repulsion Energy =            181.2575414931385751
    One-Electron Energy =                -694.9108010906007848
    Two-Electron Energy =                 266.6477869871731627
    DFT Exchange-Correlation Energy =       0.0000000000000000
    Empirical Dispersion Energy =           0.0000000000000000
    PCM Polarization Energy =               0.0000000000000000
    EFP Energy =                            0.0000000000000000
    Total Energy =                       -247.0054726102890754
    Molecular point group: c1
  Basis Set: 6-31G*
  Basis Set:

  -Total Gradient:
     Atom            X                  Y                   Z
    ------   -----------------  -----------------  -----------------
       1       -0.000011621420     0.000001119021     0.000004510688
       2        0.000044914854    -0.000020617536    -0.000004481180
       3        0.000034887387     0.000052191084     0.000007297315
       4        0.000004200117    -0.000015313125     0.000072899373
       5       -0.000080032078     0.000003087378    -0.000025271419
       6       -0.000015504036    -0.000017352592    -0.000003387247
       7        0.000003922178    -0.000010976699    -0.000009013005
       8        0.000023470802    -0.000002571053    -0.000018029466
       9       -0.000015662449     0.000013372390    -0.000019777995
      10       -0.000000764899     0.000002902212    -0.000004181232
      11        0.000010446071    -0.000002745760     0.000000759443
      12        0.000001743472    -0.000003095321    -0.000001325273

  **** Optimization is complete! (in 5 steps) ****
    Final optimized geometry and variables:
    Molecular point group: c1

    Geometry (in Angstrom), charge = 0, multiplicity = 1:

    H            0.417710446702     0.758022012779     1.492249929161
    N           -0.177887395162     0.518188553557     0.733701788645
    C           -1.528988783020     1.031350314964     0.737038693122
    C            0.317106780987    -0.272798210056    -0.248891628421
    H           -2.027479070567     0.675037741489    -0.149780638137
    H           -1.532818202547     2.116201777979     0.731182118735
    H           -2.073558629576     0.686164834965     1.609563428111
    C            1.758581751405    -0.696661832979    -0.049803548240
    O           -0.324998888501    -0.615562451479    -1.203059813392
    H            1.868545490756    -1.257651238804     0.872990037068
    H            2.058715706522    -1.315785661521    -0.881823891561
    H            2.409021984608     0.170623207529     0.005460495100

  Mulliken Charges: (a.u.)
   Center  Symbol    Alpha    Beta     Spin     Total
       1     H     0.31106  0.31106  0.00000  0.37787
       2     N     3.89162  3.89162  0.00000 -0.78324
       3     C     3.14247  3.14247  0.00000 -0.28495
       4     C     2.63057  2.63057  0.00000  0.73886
       5     H     0.38548  0.38548  0.00000  0.22905
       6     H     0.41669  0.41669  0.00000  0.16662
       7     H     0.41671  0.41671  0.00000  0.16657
       8     C     3.29525  3.29525  0.00000 -0.59051
       9     O     4.30251  4.30251  0.00000 -0.60501
      10     H     0.40783  0.40783  0.00000  0.18434
      11     H     0.39183  0.39183  0.00000  0.21635
      12     H     0.40798  0.40798  0.00000  0.18405

   Total alpha = 20.00000, Total beta = 20.00000, Total charge =  0.00000
