  ==> Input File <==

--------------------------------------------------------------------------
set {
	reference rhf
	basis cc-pvtz
}

set_num_threads( 4 )
memory 2 gb

molecule MOL {
0 1

H	 -3.144994	 -1.202467	 -0.018751
O	 -2.321472	 -0.864941	 -0.318626
C	 -2.021813	 0.336996	 0.342658
C	 -0.669613	 0.837286	 -0.127252
H	 -2.780861	 1.084746	 0.127159
H	 -2.006390	 0.184138	 1.420053
C	 0.490865	 -0.082543	 0.241244
H	 -0.708709	 0.967192	 -1.204587
H	 -0.507562	 1.822272	 0.303070
C	 0.965658	 -0.942191	 -0.926738
H	 0.191558	 -0.721648	 1.064054
H	 1.322085	 0.518714	 0.604131
C	 2.130519	 -1.856199	 -0.561396
H	 0.136401	 -1.544205	 -1.288143
H	 1.258140	 -0.300002	 -1.753622
H	 1.857539	 -2.535031	 0.239594
H	 2.442817	 -2.454199	 -1.410025
H	 2.988828	 -1.282193	 -0.227826

	symmetry c1
}
set optking {
	frozen_dihedral = ("
		10 7 4 8
	")
}

ee = optimize('scf')
oeprop('DIPOLE', 'QUADRUPOLE', 'MULLIKEN_CHARGES')
f=open( 'psi4out.xyz', 'w' )
f.write( "18  " )
f.write( str(ee) + "\n" )
f.write( MOL.save_string_xyz() )
f.close()
--------------------------------------------------------------------------

    Molecular point group: c1
  Charge       = 0
  Multiplicity = 1
  Basis Set: CC-PVTZ
  Basis Set:
  @DF-RHF Final Energy:  -271.28259333251304
    Total Energy =                       -271.2825933325133860
    Molecular point group: c1
  Basis Set: CC-PVTZ
  Basis Set:
  Basis Set: CC-PVTZ
  Basis Set:
  @DF-RHF Final Energy:  -271.28287922430832
    Total Energy =                       -271.2828792243083171
  Basis Set: CC-PVTZ
  Basis Set:
  Basis Set: CC-PVTZ
  Basis Set:
  @DF-RHF Final Energy:  -271.28295111846495
    Total Energy =                       -271.2829511184649505
  Basis Set: CC-PVTZ
  Basis Set:
  Basis Set: CC-PVTZ
  Basis Set:
  @DF-RHF Final Energy:  -271.28295214868581
    Total Energy =                       -271.2829521486858084
  Basis Set: CC-PVTZ
  Basis Set:
  Charge       = 0
  Multiplicity = 1
  Basis Set: CC-PVTZ
  Basis Set:

    Orbital Energies (a.u.)
    -----------------------

    Doubly Occupied:

       1A    -20.547628     2A    -11.266453     3A    -11.210840
       4A    -11.206193     5A    -11.202121     6A    -11.198940
       7A     -1.365395     8A     -1.072669     9A     -1.007698
      10A     -0.912847    11A     -0.820200    12A     -0.780434
      13A     -0.708275    14A     -0.646685    15A     -0.618666
      16A     -0.580324    17A     -0.570921    18A     -0.558241
      19A     -0.524789    20A     -0.505301    21A     -0.486327
      22A     -0.464508    23A     -0.450016    24A     -0.449032
      25A     -0.431995

  @DF-RHF Final Energy:  -271.28295223558723

   => Energetics <=

    Nuclear Repulsion Energy =            253.6995289593392897
    One-Electron Energy =                -870.7919585107686089
    Two-Electron Energy =                 345.8094773158422868
    DFT Exchange-Correlation Energy =       0.0000000000000000
    Empirical Dispersion Energy =           0.0000000000000000
    PCM Polarization Energy =               0.0000000000000000
    EFP Energy =                            0.0000000000000000
    Total Energy =                       -271.2829522355870040
    Molecular point group: c1
  Basis Set: CC-PVTZ
  Basis Set:

  -Total Gradient:
     Atom            X                  Y                   Z
    ------   -----------------  -----------------  -----------------
       1       -0.000001037506     0.000002155973    -0.000000059268
       2        0.000000836363    -0.000007419403    -0.000005941140
       3        0.000002311652     0.000010953284     0.000001318363
       4        0.001646485788     0.002094729686     0.000037932122
       5       -0.000005167744    -0.000002635829    -0.000000410478
       6        0.000006100306     0.000000574458    -0.000004280696
       7       -0.001410335633    -0.001617470607     0.000427194654
       8       -0.001062175913    -0.001391530700    -0.000133484797
       9       -0.000000883945     0.000000824938     0.000000825889
      10        0.000806127095     0.000912696694    -0.000315184120
      11       -0.000001439451     0.000000354668    -0.000008138546
      12        0.000004961863    -0.000001476843     0.000003369520
      13        0.000011004892    -0.000000259303    -0.000006555607
      14       -0.000000638793    -0.000001035942     0.000002147241
      15       -0.000000674003     0.000000801395     0.000004182651
      16       -0.000001510198     0.000003592714    -0.000004575239
      17        0.000005958492    -0.000002647323    -0.000001181141
      18        0.000000076735    -0.000002207859     0.000002840591

  **** Optimization is complete! (in 5 steps) ****
    Final optimized geometry and variables:
    Molecular point group: c1

    Geometry (in Angstrom), charge = 0, multiplicity = 1:

    H           -2.835492776670    -0.776431795268     0.247021833661
    O           -2.018694432266    -0.431345478532    -0.062417567604
    C           -1.745310721581     0.797100690818     0.560655248544
    C           -0.393282958767     1.304283976406     0.095197557970
    H           -2.513099714812     1.525721872498     0.312001240940
    H           -1.740581445022     0.679050005057     1.642326702595
    C            0.780793162192     0.373726146783     0.446775961450
    H           -0.443677464729     1.447286902592    -0.979329893707
    H           -0.244811994198     2.283015130627     0.539318281903
    C            1.264210940574    -0.484066136158    -0.720918120215
    H            0.498247768220    -0.271949060552     1.272907809010
    H            1.616064182098     0.970314075408     0.802046064560
    C            2.409216251458    -1.415651677718    -0.339100851993
    H            0.433154325464    -1.063892363224    -1.105049259382
    H            1.586200382535     0.168829053891    -1.528010792262
    H            2.106356716731    -2.108236414837     0.439375062995
    H            2.739761101398    -2.000608284354    -1.189970591613
    H            3.264254388263    -0.858439236191     0.030628096167

  Mulliken Charges: (a.u.)
   Center  Symbol    Alpha    Beta     Spin     Total
       1     H     0.39689  0.39689  0.00000  0.20622
       2     O     4.19706  4.19706  0.00000 -0.39412
       3     C     2.97247  2.97247  0.00000  0.05506
       4     C     3.10168  3.10168  0.00000 -0.20336
       5     H     0.46523  0.46523  0.00000  0.06953
       6     H     0.47409  0.47409  0.00000  0.05182
       7     C     3.08864  3.08864  0.00000 -0.17727
       8     H     0.45229  0.45229  0.00000  0.09542
       9     H     0.44625  0.44625  0.00000  0.10750
      10     C     3.08034  3.08034  0.00000 -0.16069
      11     H     0.45654  0.45654  0.00000  0.08691
      12     H     0.45038  0.45038  0.00000  0.09923
      13     C     3.15150  3.15150  0.00000 -0.30300
      14     H     0.44596  0.44596  0.00000  0.10808
      15     H     0.45829  0.45829  0.00000  0.08342
      16     H     0.45538  0.45538  0.00000  0.08924
      17     H     0.44949  0.44949  0.00000  0.10103
      18     H     0.45752  0.45752  0.00000  0.08497

   Total alpha = 25.00000, Total beta = 25.00000, Total charge =  0.00000
