  ==> Input File <==

--------------------------------------------------------------------------
set {
	reference rhf
	basis 6-31G*
}

set_num_threads( 4 )
memory 2 gb

molecule MOL {
0 1

H	 0.951936	 0.089842	 -1.865366
O	 1.198033	 0.831406	 -1.329295
C	 0.709265	 0.639550	 -0.033818
C	 -0.793441	 0.596080	 0.058728
H	 1.086731	 1.466170	 0.557301
H	 1.120478	 -0.269284	 0.404303
C	 -1.530462	 -0.493172	 -0.025500
H	 -1.268471	 1.554324	 0.202247
H	 -1.092586	 -1.461565	 -0.186463
H	 -2.602122	 -0.450675	 0.050101

	symmetry c1
}
set optking {
	frozen_dihedral = ("
		5 3 4 7
	")
}

ee = optimize('scf')
oeprop('DIPOLE', 'QUADRUPOLE', 'MULLIKEN_CHARGES')
f=open( 'psi4out.xyz', 'w' )
f.write( "10  " )
f.write( str(ee) + "\n" )
f.write( MOL.save_string_xyz() )
f.close()
--------------------------------------------------------------------------

    Molecular point group: c1
  Charge       = 0
  Multiplicity = 1
  Basis Set: 6-31G*
  Basis Set:
  @DF-RHF Final Energy:  -191.91398380066053
    Total Energy =                       -191.9139838006605601
    Molecular point group: c1
  Basis Set: 6-31G*
  Basis Set:
  Basis Set: 6-31G*
  Basis Set:
  @DF-RHF Final Energy:  -191.91521261840344
    Total Energy =                       -191.9152126184035012
  Basis Set: 6-31G*
  Basis Set:
  Basis Set: 6-31G*
  Basis Set:
  @DF-RHF Final Energy:  -191.91532883384718
    Total Energy =                       -191.9153288338471839
  Basis Set: 6-31G*
  Basis Set:
  Basis Set: 6-31G*
  Basis Set:
  @DF-RHF Final Energy:  -191.91534420432521
    Total Energy =                       -191.9153442043251800
  Basis Set: 6-31G*
  Basis Set:
  Charge       = 0
  Multiplicity = 1
  Basis Set: 6-31G*
  Basis Set:

    Orbital Energies (a.u.)
    -----------------------

    Doubly Occupied:

       1A    -20.554729     2A    -11.275745     3A    -11.234314
       4A    -11.230736     5A     -1.361427     6A     -1.064562
       7A     -0.922997     8A     -0.775594     9A     -0.701428
      10A     -0.625642    11A     -0.622902    12A     -0.591555
      13A     -0.533982    14A     -0.489161    15A     -0.439859
      16A     -0.377625

  @DF-RHF Final Energy:  -191.91534499293911

   => Energetics <=

    Nuclear Repulsion Energy =            118.0879767985444175
    One-Electron Energy =                -494.4021282593095066
    Two-Electron Energy =                 184.3988064678259775
    DFT Exchange-Correlation Energy =       0.0000000000000000
    Empirical Dispersion Energy =           0.0000000000000000
    PCM Polarization Energy =               0.0000000000000000
    EFP Energy =                            0.0000000000000000
    Total Energy =                       -191.9153449929390831
    Molecular point group: c1
  Basis Set: 6-31G*
  Basis Set:

  -Total Gradient:
     Atom            X                  Y                   Z
    ------   -----------------  -----------------  -----------------
       1        0.000011711761     0.000008568040    -0.000044303435
       2        0.000005089025    -0.000067234992    -0.000023374384
       3        0.000097538708    -0.002627200766     0.002205449727
       4        0.000123575503     0.000000739099     0.004596795163
       5       -0.000148079835     0.002278842039    -0.003118198855
       6        0.000013065382    -0.000000483920    -0.000002867740
       7       -0.000092890703     0.000397252275    -0.003636460870
       8       -0.000000477195     0.000006437019    -0.000002311339
       9       -0.000008488525     0.000009304924     0.000020324483
      10       -0.000001044122    -0.000006223719     0.000004947250

  **** Optimization is complete! (in 5 steps) ****
    Final optimized geometry and variables:
    Molecular point group: c1

    Geometry (in Angstrom), charge = 0, multiplicity = 1:

    H            0.824902574267    -0.191923330028    -1.519689684324
    O            1.218788412386     0.443449695614    -0.937681796092
    C            0.754107553252     0.211963239392     0.370798547852
    C           -0.752416555091     0.206011497882     0.428680528029
    H            1.154425599314     1.033239651184     0.949553368560
    H            1.153085992148    -0.719126111660     0.764574865598
    C           -1.483675151422    -0.888811397969     0.343607416145
    H           -1.235154967116     1.169559403032     0.443352397518
    H           -1.036339095034    -1.869047364436     0.315990523755
    H           -2.558245236263    -0.854399264106     0.317374060577

  Mulliken Charges: (a.u.)
   Center  Symbol    Alpha    Beta     Spin     Total
       1     H     0.28334  0.28334  0.00000  0.43331
       2     O     4.36683  4.36683  0.00000 -0.73366
       3     C     3.00656  3.00656  0.00000 -0.01312
       4     C     3.08641  3.08641  0.00000 -0.17281
       5     H     0.41241  0.41241  0.00000  0.17518
       6     H     0.42452  0.42452  0.00000  0.15097
       7     C     3.19606  3.19606  0.00000 -0.39211
       8     H     0.40391  0.40391  0.00000  0.19218
       9     H     0.41248  0.41248  0.00000  0.17503
      10     H     0.40748  0.40748  0.00000  0.18504

   Total alpha = 16.00000, Total beta = 16.00000, Total charge = -0.00000
