  ==> Input File <==

--------------------------------------------------------------------------
set {
	reference rhf
	basis 6-31G*
}

set_num_threads( 1 )
memory 2 gb

molecule MOL {
0 1

H	 3.564798	 -1.099541	 -0.475564
O	 2.826016	 -1.159218	 0.122261
C	 2.077727	 -0.067559	 -0.035091
C	 0.624473	 -0.343591	 0.253101
O	 2.542965	 0.974826	 -0.363729
C	 -0.265902	 0.883932	 0.072916
H	 0.324016	 -1.163849	 -0.390541
H	 0.565024	 -0.726111	 1.268924
C	 -1.728698	 0.646073	 0.462102
H	 -0.209144	 1.219470	 -0.958188
H	 0.135059	 1.692851	 0.673903
C	 -2.482460	 -0.343073	 -0.431425
H	 -2.245265	 1.602650	 0.432430
H	 -1.779332	 0.308348	 1.496285
C	 -3.960546	 -0.461025	 -0.060175
H	 -2.395034	 -0.026811	 -1.468912
H	 -2.024850	 -1.327147	 -0.371646
H	 -4.472726	 -1.168004	 -0.705284
H	 -4.465146	 0.496508	 -0.151489
H	 -4.081218	 -0.800940	 0.964585

	symmetry c1
}
set optking {
	frozen_dihedral = ("
		16 12 9 6,
		7 4 6 10,
		12 9 6 10,
		5 3 4 7
	")
}

ee = energy('scf')
oeprop('DIPOLE', 'QUADRUPOLE', 'MULLIKEN_CHARGES')
f=open( 'psi4out.xyz', 'w' )
f.write( "20  " )
f.write( str(ee) + "\n" )
f.write( MOL.save_string_xyz() )
f.close()
--------------------------------------------------------------------------

    Molecular point group: c1

    Geometry (in Angstrom), charge = 0, multiplicity = 1:

       Center              X                  Y                   Z               Mass
    ------------   -----------------  -----------------  -----------------  -----------------
           H          3.566227819108    -1.098054200462    -0.472047916836     1.007825032070
           O          2.827445819108    -1.157731200462     0.125777083164    15.994914619560
           C          2.079156819108    -0.066072200462    -0.031574916836    12.000000000000
           C          0.625902819108    -0.342104200462     0.256617083164    12.000000000000
           O          2.544394819108     0.976312799538    -0.360212916836    15.994914619560
           C         -0.264472180892     0.885418799538     0.076432083164    12.000000000000
           H          0.325445819108    -1.162362200462    -0.387024916836     1.007825032070
           H          0.566453819108    -0.724624200462     1.272440083164     1.007825032070
           C         -1.727268180892     0.647559799538     0.465618083164    12.000000000000
           H         -0.207714180892     1.220956799538    -0.954671916836     1.007825032070
           H          0.136488819108     1.694337799538     0.677419083164     1.007825032070
           C         -2.481030180892    -0.341586200462    -0.427908916836    12.000000000000
           H         -2.243835180892     1.604136799538     0.435946083164     1.007825032070
           H         -1.777902180892     0.309834799538     1.499801083164     1.007825032070
           C         -3.959116180892    -0.459538200462    -0.056658916836    12.000000000000
           H         -2.393604180892    -0.025324200462    -1.465395916836     1.007825032070
           H         -2.023420180892    -1.325660200462    -0.368129916836     1.007825032070
           H         -4.471296180892    -1.166517200462    -0.701767916836     1.007825032070
           H         -4.463716180892     0.497994799538    -0.147972916836     1.007825032070
           H         -4.079788180892    -0.799453200462     0.968101083164     1.007825032070

  Charge       = 0
  Multiplicity = 1
  Basis Set: 6-31G*
  Basis Set:

    Orbital Energies (a.u.)
    -----------------------

    Doubly Occupied:

       1A    -20.608959     2A    -20.553076     3A    -11.380828
       4A    -11.239911     5A    -11.222699     6A    -11.220874
       7A    -11.220180     8A    -11.212632     9A     -1.473293
      10A     -1.365899    11A     -1.096097    12A     -1.040752
      13A     -0.960689    14A     -0.868265    15A     -0.816553
      16A     -0.777340    17A     -0.701394    18A     -0.688854
      19A     -0.665260    20A     -0.633023    21A     -0.612675
      22A     -0.589720    23A     -0.565844    24A     -0.552516
      25A     -0.545114    26A     -0.511239    27A     -0.497309
      28A     -0.480635    29A     -0.469480    30A     -0.467207
      31A     -0.457342    32A     -0.443481

  @DF-RHF Final Energy:  -383.94329210069685

   => Energetics <=

    Nuclear Repulsion Energy =            375.9396399087136729
    One-Electron Energy =               -1267.8876014343445604
    Two-Electron Energy =                 508.0046694249338088
    DFT Exchange-Correlation Energy =       0.0000000000000000
    Empirical Dispersion Energy =           0.0000000000000000
    PCM Polarization Energy =               0.0000000000000000
    EFP Energy =                            0.0000000000000000
    Total Energy =                       -383.9432921006971355

  Mulliken Charges: (a.u.)
   Center  Symbol    Alpha    Beta     Spin     Total
       1     H     0.26690  0.26690  0.00000  0.46621
       2     O     4.35314  4.35314  0.00000 -0.70629
       3     C     2.62539  2.62539  0.00000  0.74923
       4     C     3.21246  3.21246  0.00000 -0.42491
       5     O     4.27358  4.27358  0.00000 -0.54715
       6     C     3.15467  3.15467  0.00000 -0.30933
       7     H     0.39874  0.39874  0.00000  0.20252
       8     H     0.39869  0.39869  0.00000  0.20261
       9     C     3.15542  3.15542  0.00000 -0.31084
      10     H     0.41304  0.41304  0.00000  0.17392
      11     H     0.40757  0.40757  0.00000  0.18487
      12     C     3.15484  3.15484  0.00000 -0.30967
      13     H     0.41794  0.41794  0.00000  0.16412
      14     H     0.42347  0.42347  0.00000  0.15306
      15     C     3.23921  3.23921  0.00000 -0.47841
      16     H     0.42178  0.42178  0.00000  0.15643
      17     H     0.42296  0.42296  0.00000  0.15408
      18     H     0.41846  0.41846  0.00000  0.16309
      19     H     0.42058  0.42058  0.00000  0.15885
      20     H     0.42118  0.42118  0.00000  0.15764

   Total alpha = 32.00000, Total beta = 32.00000, Total charge = -0.00000
