  ==> Input File <==

--------------------------------------------------------------------------
set {
	reference rhf
	basis 6-31G*
}

set_num_threads( 4 )
memory 2 gb

molecule MOL {
0 1

H	 -0.899941	 -1.173686	 -0.537613
N	 -1.172117	 -0.314371	 -0.100254
C	 -0.024542	 0.565565	 0.069209
H	 -1.855358	 0.111446	 -0.697698
C	 1.271298	 -0.229563	 -0.014192
H	 -0.049409	 1.297310	 -0.731596
H	 -0.046881	 1.125219	 1.006750
H	 1.332152	 -0.753033	 -0.961461
H	 2.134169	 0.422483	 0.080702
H	 1.326077	 -0.968298	 0.781395

	symmetry c1
}
set optking {
	frozen_dihedral = ("
		1 2 3 6
	")
}

ee = optimize('scf')
oeprop('DIPOLE', 'QUADRUPOLE', 'MULLIKEN_CHARGES')
f=open( 'psi4out.xyz', 'w' )
f.write( "10  " )
f.write( str(ee) + "\n" )
f.write( MOL.save_string_xyz() )
f.close()
--------------------------------------------------------------------------

    Molecular point group: c1
  Charge       = 0
  Multiplicity = 1
  Basis Set: 6-31G*
  Basis Set:
  @DF-RHF Final Energy:  -134.24242955352315
    Total Energy =                       -134.2424295535230954
    Molecular point group: c1
  Basis Set: 6-31G*
  Basis Set:
  Basis Set: 6-31G*
  Basis Set:
  @DF-RHF Final Energy:  -134.24415827996438
    Total Energy =                       -134.2441582799643527
  Basis Set: 6-31G*
  Basis Set:
  Basis Set: 6-31G*
  Basis Set:
  @DF-RHF Final Energy:  -134.24439268683480
    Total Energy =                       -134.2443926868347717
  Basis Set: 6-31G*
  Basis Set:
  Basis Set: 6-31G*
  Basis Set:
  @DF-RHF Final Energy:  -134.24440114485486
    Total Energy =                       -134.2444011448547485
  Basis Set: 6-31G*
  Basis Set:
  Charge       = 0
  Multiplicity = 1
  Basis Set: 6-31G*
  Basis Set:

    Orbital Energies (a.u.)
    -----------------------

    Doubly Occupied:

       1A    -15.529091     2A    -11.242059     3A    -11.212970
       4A     -1.173007     5A     -0.989443     6A     -0.828978
       7A     -0.660028     8A     -0.622946     9A     -0.592542
      10A     -0.523885    11A     -0.502787    12A     -0.495673
      13A     -0.374597

  @DF-RHF Final Energy:  -134.24440220648239

   => Energetics <=

    Nuclear Repulsion Energy =             83.3703178514040815
    One-Electron Energy =                -345.7334301913240324
    Two-Electron Energy =                 128.1187101334376166
    DFT Exchange-Correlation Energy =       0.0000000000000000
    Empirical Dispersion Energy =           0.0000000000000000
    PCM Polarization Energy =               0.0000000000000000
    EFP Energy =                            0.0000000000000000
    Total Energy =                       -134.2444022064823343
    Molecular point group: c1
  Basis Set: 6-31G*
  Basis Set:

  -Total Gradient:
     Atom            X                  Y                   Z
    ------   -----------------  -----------------  -----------------
       1        0.000730806382    -0.001272652438     0.002935498248
       2       -0.001406445354     0.002100040352    -0.003170070057
       3        0.002304499288    -0.002751628726    -0.001616730564
       4        0.000013651965     0.000002486663    -0.000006743450
       5       -0.000080104966     0.000034577463     0.000062068506
       6       -0.001601586659     0.001856520011     0.001774141646
       7        0.000036528170    -0.000005781578     0.000030191650
       8       -0.000024318573     0.000029611036     0.000022634401
       9        0.000035893385     0.000003683451    -0.000006736639
      10       -0.000008923639     0.000003143765    -0.000024253740

  **** Optimization is complete! (in 5 steps) ****
    Final optimized geometry and variables:
    Molecular point group: c1

    Geometry (in Angstrom), charge = 0, multiplicity = 1:

    H           -0.958693181160    -1.174783535088    -0.482273179757
    N           -1.190659605545    -0.308292237001    -0.040160510972
    C           -0.030742698615     0.569918416428     0.066168720764
    H           -1.941243599362     0.112554470886    -0.548099551563
    C            1.270169705472    -0.219873306830     0.035182465499
    H           -0.022071490469     1.332119868537    -0.712662464581
    H           -0.091819431662     1.109081260451     1.007616744443
    H            1.403048450338    -0.718520912127    -0.921367048214
    H            2.123437363869     0.431259677701     0.193975315814
    H            1.273138461645    -0.976117656014     0.814043178544

  Mulliken Charges: (a.u.)
   Center  Symbol    Alpha    Beta     Spin     Total
       1     H     0.33238  0.33238  0.00000  0.33524
       2     N     3.92945  3.92945  0.00000 -0.85889
       3     C     3.04961  3.04961  0.00000 -0.09922
       4     H     0.33129  0.33129  0.00000  0.33742
       5     C     3.25221  3.25221  0.00000 -0.50443
       6     H     0.43148  0.43148  0.00000  0.13704
       7     H     0.41984  0.41984  0.00000  0.16033
       8     H     0.42333  0.42333  0.00000  0.15334
       9     H     0.41706  0.41706  0.00000  0.16588
      10     H     0.41336  0.41336  0.00000  0.17329

   Total alpha = 13.00000, Total beta = 13.00000, Total charge =  0.00000
