  ==> Input File <==

--------------------------------------------------------------------------
set {
	reference rhf
	basis cc-pvtz
}

set_num_threads( 4 )
memory 2 gb

molecule MOL {
0 1

H	 -3.034039	 -0.667848	 0.004703
O	 -2.240597	 -1.171748	 0.000934
C	 -1.159675	 -0.364500	 0.000370
C	 0.120168	 -0.841075	 0.198594
C	 -1.377985	 0.988496	 -0.208906
H	 0.291477	 -1.889258	 0.362985
C	 1.178582	 0.051023	 0.186432
H	 -2.385181	 1.326742	 -0.357507
C	 -0.321147	 1.876342	 -0.223079
H	 2.175466	 -0.315574	 0.343278
C	 0.968758	 1.395632	 -0.020465
C	 -0.556022	 3.344455	 -0.474320
H	 1.800504	 2.074340	 -0.024225
H	 0.032797	 3.953381	 0.200456
H	 -1.597545	 3.605033	 -0.343648
H	 -0.271079	 3.609050	 -1.486960

	symmetry c1
}
set optking {
	frozen_dihedral = ("
		5 3 2 1
	")
}

ee = optimize('scf')
oeprop('DIPOLE', 'QUADRUPOLE', 'MULLIKEN_CHARGES')
f=open( 'psi4out.xyz', 'w' )
f.write( "16  " )
f.write( str(ee) + "\n" )
f.write( MOL.save_string_xyz() )
f.close()
--------------------------------------------------------------------------

    Molecular point group: c1
  Charge       = 0
  Multiplicity = 1
  Basis Set: CC-PVTZ
  Basis Set:
  @DF-RHF Final Energy:  -344.71858039664716
    Total Energy =                       -344.7185803966473259
    Molecular point group: c1
  Basis Set: CC-PVTZ
  Basis Set:
  Basis Set: CC-PVTZ
  Basis Set:
  @DF-RHF Final Energy:  -344.72032921745330
    Total Energy =                       -344.7203292174532976
  Basis Set: CC-PVTZ
  Basis Set:
  Basis Set: CC-PVTZ
  Basis Set:
  @DF-RHF Final Energy:  -344.72047785779478
    Total Energy =                       -344.7204778577951174
  Basis Set: CC-PVTZ
  Basis Set:
  Basis Set: CC-PVTZ
  Basis Set:
  @DF-RHF Final Energy:  -344.72049792806035
    Total Energy =                       -344.7204979280598991
  Basis Set: CC-PVTZ
  Basis Set:
  @DF-RHF Final Energy:  -344.72050485603012
    Total Energy =                       -344.7205048560303453
  @DF-RHF Final Energy:  -344.72050821389081
    Total Energy =                       -344.7205082138905254
  @DF-RHF Final Energy:  -344.72052019575591
    Total Energy =                       -344.7205201957556255
  @DF-RHF Final Energy:  -344.72054370505356
    Total Energy =                       -344.7205437050533874
  @DF-RHF Final Energy:  -344.72055439635875
    Total Energy =                       -344.7205543963589207
  @DF-RHF Final Energy:  -344.72056184910878
    Total Energy =                       -344.7205618491087762
  @DF-RHF Final Energy:  -344.72056857403715
    Total Energy =                       -344.7205685740372587
  @DF-RHF Final Energy:  -344.72057477603761
    Total Energy =                       -344.7205747760373242
  @DF-RHF Final Energy:  -344.72059063696986
    Total Energy =                       -344.7205906369696322
  @DF-RHF Final Energy:  -344.72060524194075
    Total Energy =                       -344.7206052419408593
  @DF-RHF Final Energy:  -344.72061725924073
    Total Energy =                       -344.7206172592404414
  @DF-RHF Final Energy:  -344.72062016275612
    Total Energy =                       -344.7206201627562336
  @DF-RHF Final Energy:  -344.72062246729166
    Total Energy =                       -344.7206224672917187
  @DF-RHF Final Energy:  -344.72062456838995
    Total Energy =                       -344.7206245683897805
  @DF-RHF Final Energy:  -344.72052754311329
    Total Energy =                       -344.7205275431134055
  @DF-RHF Final Energy:  -344.72062472614977
    Total Energy =                       -344.7206247261498788
  Basis Set: CC-PVTZ
  Basis Set:
  @DF-RHF Final Energy:  -344.72062608657183
    Total Energy =                       -344.7206260865721106
  Basis Set: CC-PVTZ
  Basis Set:
  Basis Set: CC-PVTZ
  Basis Set:
  @DF-RHF Final Energy:  -344.72062737898642
    Total Energy =                       -344.7206273789859665
  Basis Set: CC-PVTZ
  Basis Set:
  Basis Set: CC-PVTZ
  Basis Set:
  @DF-RHF Final Energy:  -344.72063064795782
    Total Energy =                       -344.7206306479578757
  Basis Set: CC-PVTZ
  Basis Set:
  Charge       = 0
  Multiplicity = 1
  Basis Set: CC-PVTZ
  Basis Set:

    Orbital Energies (a.u.)
    -----------------------

    Doubly Occupied:

       1A    -20.582968     2A    -11.295446     3A    -11.242209
       4A    -11.231005     5A    -11.221617     6A    -11.219004
       7A    -11.215091     8A    -11.213178     9A     -1.413637
      10A     -1.154489    11A     -1.047750    12A     -1.006782
      13A     -0.941000    14A     -0.845512    15A     -0.802686
      16A     -0.732924    17A     -0.683843    18A     -0.651851
      19A     -0.601673    20A     -0.597183    21A     -0.581647
      22A     -0.573637    23A     -0.570012    24A     -0.537316
      25A     -0.506895    26A     -0.484711    27A     -0.472692
      28A     -0.333803    29A     -0.310781

  @DF-RHF Final Energy:  -344.72063437930615

   => Energetics <=

    Nuclear Repulsion Energy =            346.4380754176454502
    One-Electron Energy =               -1154.1747350990433461
    Two-Electron Energy =                 463.0160253020919185
    DFT Exchange-Correlation Energy =       0.0000000000000000
    Empirical Dispersion Energy =           0.0000000000000000
    PCM Polarization Energy =               0.0000000000000000
    EFP Energy =                            0.0000000000000000
    Total Energy =                       -344.7206343793059773
    Molecular point group: c1
  Basis Set: CC-PVTZ
  Basis Set:

  -Total Gradient:
     Atom            X                  Y                   Z
    ------   -----------------  -----------------  -----------------
       1       -0.000055533606     0.000007129070     0.001003416489
       2        0.000113222338    -0.000051937525    -0.001454779723
       3       -0.000242886190     0.000256128064     0.000756466537
       4        0.000168762894     0.000074182606     0.000204953721
       5        0.000053856297    -0.000224854066    -0.000536930740
       6       -0.000001012281    -0.000001364849     0.000005246002
       7       -0.000064340150    -0.000213412859     0.000011402081
       8       -0.000024944763     0.000010856758    -0.000004040018
       9        0.000284085005     0.000061114893     0.000114439679
      10        0.000000123719    -0.000001852230     0.000000580287
      11       -0.000119966593     0.000119117618    -0.000045156703
      12       -0.000013294961    -0.000000338619    -0.000045267728
      13       -0.000017459347    -0.000021556456     0.000001685077
      14       -0.000028936222    -0.000036348052     0.000002139252
      15       -0.000023367523    -0.000000246081    -0.000002268742
      16       -0.000028308621     0.000023381732    -0.000011885472

  **** Optimization is complete! (in 24 steps) ****
    Final optimized geometry and variables:
    Molecular point group: c1

    Geometry (in Angstrom), charge = 0, multiplicity = 1:

    H           -2.526812099079    -1.459957567042    -0.088210115811
    O           -1.695217041228    -1.894369320426    -0.030730220088
    C           -0.687439932651    -0.998653541777     0.025669733135
    C            0.581536278370    -1.480060232264     0.310745393131
    C           -0.885871078414     0.346958306769    -0.202656539035
    H            0.718899122776    -2.528821235265     0.484504495744
    C            1.632106337246    -0.595054983615     0.362899080791
    H           -1.874598600425     0.706502153185    -0.429963279284
    C            0.176851264546     1.241487578121    -0.145114316856
    H            2.617329518774    -0.960604026663     0.583148743376
    C            1.439568988086     0.760135204785     0.138927530001
    C           -0.065427677372     2.708586557397    -0.395339808708
    H            2.273659258940     1.433418673049     0.186281817954
    H            0.854195272816     3.273416027893    -0.330057524397
    H           -0.761252073853     3.115698951753     0.329616731662
    H           -0.488817366419     2.869372060473    -1.380319358335

  Mulliken Charges: (a.u.)
   Center  Symbol    Alpha    Beta     Spin     Total
       1     H     0.38686  0.38686  0.00000  0.22628
       2     O     4.17535  4.17535  0.00000 -0.35071
       3     C     2.83878  2.83878  0.00000  0.32243
       4     C     3.12380  3.12380  0.00000 -0.24761
       5     C     3.15356  3.15356  0.00000 -0.30713
       6     H     0.41967  0.41967  0.00000  0.16066
       7     C     3.04697  3.04697  0.00000 -0.09394
       8     H     0.43727  0.43727  0.00000  0.12546
       9     C     2.94653  2.94653  0.00000  0.10695
      10     H     0.42327  0.42327  0.00000  0.15346
      11     C     3.12654  3.12654  0.00000 -0.25309
      12     C     3.14978  3.14978  0.00000 -0.29956
      13     H     0.42664  0.42664  0.00000  0.14672
      14     H     0.44962  0.44962  0.00000  0.10077
      15     H     0.44771  0.44771  0.00000  0.10458
      16     H     0.44764  0.44764  0.00000  0.10472

   Total alpha = 29.00000, Total beta = 29.00000, Total charge = -0.00000
