                              Psi4 1.0.54 Driver

  ==> Input File <==

--------------------------------------------------------------------------
set {
	reference rhf
	basis cc-pvtz
}

set_num_threads( 4 )
memory 2 gb

molecule MOL {
0 1

H	 1.118078	 -1.584147	 0.694345
C	 0.490307	 -0.707127	 0.862238
N	 -0.537714	 -0.645117	 0.000000
O	 0.728458	 0.078550	 1.724046
C	 -1.522613	 0.412524	 0.000000
H	 -0.614845	 -1.370708	 -0.668994
H	 -2.150256	 0.356137	 -0.880771
H	 -1.005621	 1.357208	 0.000000
H	 -2.150256	 0.356137	 0.880771

	symmetry c1
}
set optking {
	frozen_dihedral = ("
		6 3 5 7
	")
}

ee,wfn = optimize('scf', return_wfn=True)
oeprop( wfn, 'DIPOLE', 'QUADRUPOLE', 'MULLIKEN_CHARGES')
f=open( 'psi4out.xyz', 'w' )
f.write( "9  " )
f.write( str(ee) + "\n" )
f.write( MOL.save_string_xyz() )
f.close()
--------------------------------------------------------------------------

    Molecular point group: c1
  Charge       = 0
  Multiplicity = 1
  Basis Set: CC-PVTZ
  Basis Set:
  @DF-RHF Final Energy:  -208.04315299394295
    Total Energy =                       -208.0431529939430106
    Molecular point group: c1
  Basis Set: CC-PVTZ
  Basis Set:
  Basis Set: CC-PVTZ
  Basis Set:
  @DF-RHF Final Energy:  -208.04358344239142
    Total Energy =                       -208.0435834423915082
  Basis Set: CC-PVTZ
  Basis Set:
  Basis Set: CC-PVTZ
  Basis Set:
  @DF-RHF Final Energy:  -208.04363404019065
    Total Energy =                       -208.0436340401906534
  Basis Set: CC-PVTZ
  Basis Set:
  Basis Set: CC-PVTZ
  Basis Set:
  @DF-RHF Final Energy:  -208.04361275094658
    Total Energy =                       -208.0436127509465223
  Basis Set: CC-PVTZ
  Basis Set:
  Basis Set: CC-PVTZ
  Basis Set:
  @DF-RHF Final Energy:  -208.04366424870000
    Total Energy =                       -208.0436642486999972
  Basis Set: CC-PVTZ
  Basis Set:
  Basis Set: CC-PVTZ
  Basis Set:
  @DF-RHF Final Energy:  -208.04366689422858
    Total Energy =                       -208.0436668942286644
  Basis Set: CC-PVTZ
  Basis Set:
  Charge       = 0
  Multiplicity = 1
  Basis Set: CC-PVTZ
  Basis Set:

    Orbital Energies (a.u.)
    -----------------------

    Doubly Occupied:

       1A    -20.516637     2A    -15.584386     3A    -11.335985
       4A    -11.260555     5A     -1.393934     6A     -1.239314
       7A     -0.969759     8A     -0.809267     9A     -0.749139
      10A     -0.645797    11A     -0.629945    12A     -0.596139
      13A     -0.559561    14A     -0.536931    15A     -0.428245
      16A     -0.396757

  @DF-RHF Final Energy:  -208.04366943406109

   => Energetics <=

    Nuclear Repulsion Energy =            122.9348945828638335
    One-Electron Energy =                -526.6524253496770598
    Two-Electron Energy =                 195.6738613327520966
    DFT Exchange-Correlation Energy =       0.0000000000000000
    Empirical Dispersion Energy =           0.0000000000000000
    PCM Polarization Energy =               0.0000000000000000
    EFP Energy =                            0.0000000000000000
    Total Energy =                       -208.0436694340611439
    Molecular point group: c1
  Basis Set: CC-PVTZ
  Basis Set:

  -Total Gradient:
     Atom            X                  Y                   Z
    ------   -----------------  -----------------  -----------------
       1        0.000000397975     0.000007985923     0.000010174398
       2       -0.000019808808    -0.000040731752    -0.000058464100
       3       -0.000023799428    -0.000084794555    -0.000004581154
       4        0.000038485894     0.000058189177     0.000086867934
       5        0.000020695729     0.000081966054    -0.000001649772
       6        0.000020802041     0.000010257437    -0.000038979392
       7       -0.000042712917    -0.000034349865    -0.000017906037
       8        0.000028653866     0.000013523581    -0.000005718032
       9       -0.000022714349    -0.000012045999     0.000030256152

  **** Optimization is complete! (in 7 steps) ****
    Final optimized geometry and variables:
    Molecular point group: c1

    Geometry (in Angstrom), charge = 0, multiplicity = 1:

    H            1.350300302987    -1.377791384997     0.066809363998
    C            0.710641794923    -0.506630203324     0.220176985849
    N           -0.295225489736    -0.435426059174    -0.664618424420
    O            0.913219014367     0.282886239979     1.087853359961
    C           -1.277872080975     0.625063669045    -0.630694641205
    H           -0.391210920493    -1.167146829395    -1.323097856300
    H           -1.917090036555     0.533847719343    -1.496947168902
    H           -0.792952114789     1.590398552909    -0.652036181060
    H           -1.886615493108     0.570877223547     0.262654161591

  Mulliken Charges: (a.u.)
   Center  Symbol    Alpha    Beta     Spin     Total
       1     H     0.46441  0.46441  0.00000  0.07117
       2     C     2.87948  2.87948  0.00000  0.24103
       3     N     3.60567  3.60567  0.00000 -0.21134
       4     O     4.21438  4.21438  0.00000 -0.42876
       5     C     3.07505  3.07505  0.00000 -0.15009
       6     H     0.41002  0.41002  0.00000  0.17996
       7     H     0.45457  0.45457  0.00000  0.09087
       8     H     0.44539  0.44539  0.00000  0.10922
       9     H     0.45103  0.45103  0.00000  0.09793

   Total alpha = 16.00000, Total beta = 16.00000, Total charge = -0.00000

*** Psi4 exiting successfully. Buy a developer a beer!
