  ==> Input File <==

--------------------------------------------------------------------------
set {
	reference rhf
	basis 6-31G*
}

set_num_threads( 4 )
memory 2 gb

molecule MOL {
0 1

H	 -2.366138	 1.910184	 -2.224190
C	 -3.055681	 1.874132	 -1.371633
C	 -2.660244	 0.921717	 -0.272021
O	 -4.029898	 2.554252	 -1.362294
C	 -1.220012	 1.144545	 0.209990
H	 -3.371996	 1.021393	 0.539264
H	 -2.751332	 -0.086588	 -0.674114
C	 -0.252658	 0.041456	 -0.226725
H	 -0.873521	 2.100229	 -0.171974
H	 -1.211708	 1.231594	 1.295398
C	 1.180775	 0.282413	 0.250794
H	 -0.266029	 -0.034465	 -1.312038
H	 -0.597733	 -0.921000	 0.146291
C	 2.148627	 -0.814315	 -0.201312
H	 1.516199	 1.249228	 -0.115937
H	 1.192670	 0.346017	 1.338083
C	 3.580890	 -0.659131	 0.322722
H	 2.166869	 -0.852443	 -1.289387
H	 1.762857	 -1.776509	 0.128956
C	 4.324889	 0.564933	 -0.213704
H	 4.142010	 -1.551473	 0.056605
H	 3.564836	 -0.624694	 1.410140
H	 4.342616	 0.565491	 -1.300421
H	 3.866655	 1.493402	 0.110242
H	 5.353900	 0.572371	 0.132816

	symmetry c1
}
set optking {
	frozen_dihedral = ("
		6 3 5 8
	")
}

ee = optimize('scf')
oeprop('DIPOLE', 'QUADRUPOLE', 'MULLIKEN_CHARGES')
f=open( 'psi4out.xyz', 'w' )
f.write( "25  " )
f.write( str(ee) + "\n" )
f.write( MOL.save_string_xyz() )
f.close()
--------------------------------------------------------------------------

    Molecular point group: c1
  Charge       = 0
  Multiplicity = 1
  Basis Set: 6-31G*
  Basis Set:
  @DF-RHF Final Energy:  -387.11754421917584
    Total Energy =                       -387.1175442191757838
    Molecular point group: c1
  Basis Set: 6-31G*
  Basis Set:
  Basis Set: 6-31G*
  Basis Set:
  @DF-RHF Final Energy:  -387.11774624155390
    Total Energy =                       -387.1177462415537320
  Basis Set: 6-31G*
  Basis Set:
  Basis Set: 6-31G*
  Basis Set:
  @DF-RHF Final Energy:  -387.11413938370112
    Total Energy =                       -387.1141393837013993
  Basis Set: 6-31G*
  Basis Set:
  Basis Set: 6-31G*
  Basis Set:
  @DF-RHF Final Energy:  -387.11788789552742
    Total Energy =                       -387.1178878955277014
  Basis Set: 6-31G*
  Basis Set:
  @DF-RHF Final Energy:  -387.11793244313594
    Total Energy =                       -387.1179324431362829
  @DF-RHF Final Energy:  -387.11792860346486
    Total Energy =                       -387.1179286034646339
  @DF-RHF Final Energy:  -387.11794413951452
    Total Energy =                       -387.1179441395154299
  @DF-RHF Final Energy:  -387.11794508838767
    Total Energy =                       -387.1179450883877280
  Basis Set: 6-31G*
  Basis Set:
  @DF-RHF Final Energy:  -387.11794721288533
    Total Energy =                       -387.1179472128856105
  Basis Set: 6-31G*
  Basis Set:
  Basis Set: 6-31G*
  Basis Set:
  @DF-RHF Final Energy:  -387.11794535421194
    Total Energy =                       -387.1179453542122246
  Basis Set: 6-31G*
  Basis Set:
  Basis Set: 6-31G*
  Basis Set:
  @DF-RHF Final Energy:  -387.11794811008019
    Total Energy =                       -387.1179481100798512
  Basis Set: 6-31G*
  Basis Set:
  Charge       = 0
  Multiplicity = 1
  Basis Set: 6-31G*
  Basis Set:

    Orbital Energies (a.u.)
    -----------------------

    Doubly Occupied:

       1A    -20.561407     2A    -11.326606     3A    -11.235451
       4A    -11.234492     5A    -11.227760     6A    -11.221867
       7A    -11.220256     8A    -11.219661     9A    -11.212297
      10A     -1.401816    11A     -1.104730    12A     -1.070138
      13A     -1.014854    14A     -0.944891    15A     -0.876467
      16A     -0.818793    17A     -0.793143    18A     -0.783515
      19A     -0.667816    20A     -0.663082    21A     -0.633946
      22A     -0.620936    23A     -0.604298    24A     -0.595281
      25A     -0.571896    26A     -0.558040    27A     -0.540030
      28A     -0.521047    29A     -0.509325    30A     -0.501502
      31A     -0.485753    32A     -0.478434    33A     -0.466842
      34A     -0.461314    35A     -0.447520    36A     -0.408615

  @DF-RHF Final Energy:  -387.11794811138680

   => Energetics <=

    Nuclear Repulsion Energy =            433.2967308118332994
    One-Electron Energy =               -1382.8217148053886376
    Two-Electron Energy =                 562.4070358821688842
    DFT Exchange-Correlation Energy =       0.0000000000000000
    Empirical Dispersion Energy =           0.0000000000000000
    PCM Polarization Energy =               0.0000000000000000
    EFP Energy =                            0.0000000000000000
    Total Energy =                       -387.1179481113864540
    Molecular point group: c1
  Basis Set: 6-31G*
  Basis Set:

  -Total Gradient:
     Atom            X                  Y                   Z
    ------   -----------------  -----------------  -----------------
       1       -0.000000884704     0.000000958201     0.000000170567
       2       -0.000002498189    -0.000000588311     0.000000204898
       3       -0.000298358461     0.001935139579    -0.000006798640
       4        0.000002693542     0.000000196505    -0.000001124828
       5        0.000392348206     0.000446278316    -0.001390117703
       6        0.000154787927    -0.001734190578     0.000338054938
       7       -0.000000156508     0.000000089289     0.000000148600
       8       -0.000248601659    -0.000646487140     0.001057766844
       9        0.000001358294    -0.000000572582     0.000000318079
      10        0.000000085985     0.000000196226     0.000000078455
      11       -0.000000068765    -0.000000191633    -0.000000187184
      12       -0.000000582001    -0.000000540323    -0.000000160925
      13        0.000001172607     0.000001079372     0.000000809932
      14       -0.000000415666    -0.000001848584    -0.000004382686
      15       -0.000002338958    -0.000000018010     0.000000349737
      16        0.000000602932    -0.000000499376    -0.000000924174
      17        0.000000876431     0.000003061686     0.000003911268
      18       -0.000002102521    -0.000002675224    -0.000001181936
      19       -0.000001912467     0.000002174666     0.000000740400
      20       -0.000000441579    -0.000002720008     0.000000029255
      21        0.000003876432     0.000003530278    -0.000000238683
      22        0.000000518427    -0.000001201586     0.000001039983
      23       -0.000003036157     0.000000160729     0.000001410796
      24        0.000001915618    -0.000000276372     0.000001570871
      25        0.000001161243    -0.000001055122    -0.000001487864

  **** Optimization is complete! (in 12 steps) ****
    Final optimized geometry and variables:
    Molecular point group: c1

    Geometry (in Angstrom), charge = 0, multiplicity = 1:

    H           -2.326956462647     1.345354176546    -1.834471632340
    C           -3.070033643693     1.212310229644    -1.038464632335
    C           -2.664821018065     0.270728124977     0.066539715362
    O           -4.109016256037     1.785990160786    -1.089936487518
    C           -1.212407687326     0.493616903030     0.545531631402
    H           -3.382126620533     0.363718449065     0.872331764710
    H           -2.770007708634    -0.739515553383    -0.327122572993
    C           -0.242621428443    -0.604156130728     0.101753411723
    H           -0.848986384114     1.458050731836     0.195506298778
    H           -1.205317356347     0.554362166965     1.629140229449
    C            1.192494256325    -0.366064337575     0.573637909834
    H           -0.256417085403    -0.683649902789    -0.984610082765
    H           -0.595639079325    -1.561415306487     0.480489165951
    C            2.154506576629    -1.472294964884     0.131949079505
    H            1.532918701466     0.595585918473     0.198267293334
    H            1.204824735069    -0.292557623039     1.660075737402
    C            3.586275747494    -1.323072695458     0.659018077248
    H            2.176432893868    -1.517412279642    -0.955823148389
    H            1.761530233103    -2.429947226763     0.467177025792
    C            4.338487871512    -0.104982057023     0.119930943022
    H            4.143038211016    -2.219766605601     0.398592378249
    H            3.566665957398    -1.283991278947     1.746235175886
    H            4.362417314007    -0.110488659821    -0.966549463422
    H            3.882984471277     0.827483504540     0.436382998542
    H            5.365454104976    -0.100249834384     0.471777256762

  Mulliken Charges: (a.u.)
   Center  Symbol    Alpha    Beta     Spin     Total
       1     H     0.43191  0.43191  0.00000  0.13618
       2     C     2.83072  2.83072  0.00000  0.33856
       3     C     3.21147  3.21147  0.00000 -0.42294
       4     O     4.23908  4.23908  0.00000 -0.47816
       5     C     3.16801  3.16801  0.00000 -0.33603
       6     H     0.39624  0.39624  0.00000  0.20753
       7     H     0.40437  0.40437  0.00000  0.19126
       8     C     3.15441  3.15441  0.00000 -0.30881
       9     H     0.41628  0.41628  0.00000  0.16744
      10     H     0.41068  0.41068  0.00000  0.17863
      11     C     3.15503  3.15503  0.00000 -0.31006
      12     H     0.42318  0.42318  0.00000  0.15363
      13     H     0.42006  0.42006  0.00000  0.15987
      14     C     3.15294  3.15294  0.00000 -0.30588
      15     H     0.42022  0.42022  0.00000  0.15956
      16     H     0.42247  0.42247  0.00000  0.15506
      17     C     3.15270  3.15270  0.00000 -0.30540
      18     H     0.42373  0.42373  0.00000  0.15255
      19     H     0.42172  0.42172  0.00000  0.15657
      20     C     3.24153  3.24153  0.00000 -0.48306
      21     H     0.42005  0.42005  0.00000  0.15990
      22     H     0.42280  0.42280  0.00000  0.15440
      23     H     0.42200  0.42200  0.00000  0.15600
      24     H     0.42015  0.42015  0.00000  0.15971
      25     H     0.41825  0.41825  0.00000  0.16350

   Total alpha = 36.00000, Total beta = 36.00000, Total charge =  0.00000
