  ==> Input File <==

--------------------------------------------------------------------------
set {
	reference rhf
	basis 6-31G*
}

set_num_threads( 4 )
memory 2 gb

molecule MOL {
0 1

O	 -2.821601	 1.309235	 -0.000926
C	 -2.668563	 0.129746	 -0.000350
C	 -3.801571	 -0.864015	 -0.000845
O	 -1.481751	 -0.454642	 0.000584
H	 -4.417168	 -0.689360	 -0.875145
H	 -3.443783	 -1.883046	 -0.001187
H	 -4.417290	 -0.690060	 0.873517
C	 -0.334255	 0.388708	 0.000906
C	 0.891947	 -0.504646	 0.000751
H	 -0.365390	 1.025305	 -0.873475
H	 -0.365484	 1.024911	 0.875569
C	 2.191998	 0.301789	 0.000897
H	 0.855148	 -1.151283	 -0.871571
H	 0.855132	 -1.151660	 0.872805
C	 3.441114	 -0.581407	 0.000108
H	 2.215074	 0.954890	 -0.869742
H	 2.215465	 0.953923	 0.872248
C	 4.739576	 0.224112	 -0.001102
H	 3.419457	 -1.233487	 -0.870178
H	 3.420834	 -1.233096	 0.870717
H	 4.804918	 0.861552	 -0.878265
H	 5.606527	 -0.429058	 -0.001824
H	 4.806469	 0.861674	 0.875853

	symmetry c1
}
set optking {
	frozen_dihedral = ("
		1 2 4 8
	")
}

ee = optimize('scf')
oeprop('DIPOLE', 'QUADRUPOLE', 'MULLIKEN_CHARGES')
f=open( 'psi4out.xyz', 'w' )
f.write( "23  " )
f.write( str(ee) + "\n" )
f.write( MOL.save_string_xyz() )
f.close()
--------------------------------------------------------------------------

    Molecular point group: c1
  Charge       = 0
  Multiplicity = 1
  Basis Set: 6-31G*
  Basis Set:
  @DF-RHF Final Energy:  -422.97953177799110
    Total Energy =                       -422.9795317779912693
    Molecular point group: c1
  Basis Set: 6-31G*
  Basis Set:
  Charge       = 0
  Multiplicity = 1
  Basis Set: 6-31G*
  Basis Set:

    Orbital Energies (a.u.)
    -----------------------

    Doubly Occupied:

       1A    -20.603032     2A    -20.540559     3A    -11.374107
       4A    -11.281527     5A    -11.232395     6A    -11.224452
       7A    -11.223838     8A    -11.221728     9A    -11.212991
      10A     -1.467980    11A     -1.360764    12A     -1.094285
      13A     -1.042285    14A     -1.003470    15A     -0.930948
      16A     -0.841676    17A     -0.802731    18A     -0.774431
      19A     -0.692272    20A     -0.685065    21A     -0.667936
      22A     -0.646734    23A     -0.606063    24A     -0.588475
      25A     -0.582197    26A     -0.566698    27A     -0.558713
      28A     -0.537217    29A     -0.523327    30A     -0.504945
      31A     -0.491038    32A     -0.478002    33A     -0.471186
      34A     -0.465762    35A     -0.451254    36A     -0.435345

  @DF-RHF Final Energy:  -422.97953161516392

   => Energetics <=

    Nuclear Repulsion Energy =            449.6120336295086304
    One-Electron Energy =               -1466.8122727037300592
    Two-Electron Energy =                 594.2207074590572802
    DFT Exchange-Correlation Energy =       0.0000000000000000
    Empirical Dispersion Energy =           0.0000000000000000
    PCM Polarization Energy =               0.0000000000000000
    EFP Energy =                            0.0000000000000000
    Total Energy =                       -422.9795316151640918
    Molecular point group: c1
  Basis Set: 6-31G*
  Basis Set:

  -Total Gradient:
     Atom            X                  Y                   Z
    ------   -----------------  -----------------  -----------------
       1       -0.000010905331     0.000005361407     0.000078564317
       2       -0.000000674639    -0.000000547544    -0.000209893919
       3        0.000002273486     0.000004112200     0.000081444280
       4       -0.000001020680    -0.000012799636     0.000047991619
       5        0.000013717686     0.000009585812    -0.000001727123
       6        0.000001623281     0.000000550085     0.000003104953
       7       -0.000013579341    -0.000009746604    -0.000001746938
       8       -0.000000644906    -0.000003002714    -0.000011728891
       9        0.000002366340     0.000000020979     0.000017317536
      10        0.000008153305    -0.000001779394     0.000007646750
      11        0.000001810173     0.000003896918     0.000004623525
      12        0.000006011040    -0.000001373587    -0.000003137549
      13       -0.000004769955     0.000007805612    -0.000001453055
      14        0.000001771216    -0.000006015479    -0.000001679857
      15       -0.000003422523    -0.000002934355    -0.000006190839
      16       -0.000000867686    -0.000006926083    -0.000006819858
      17        0.000003895051     0.000005721091    -0.000005846055
      18        0.000000499007     0.000007284781     0.000014269543
      19       -0.000000722814     0.000005397112    -0.000004493777
      20       -0.000006469319    -0.000006268582    -0.000003638649
      21        0.000000576405    -0.000003218320    -0.000000540262
      22       -0.000003114055    -0.000000238660     0.000004287021
      23        0.000003494268     0.000005114960    -0.000000352771

  **** Optimization is complete! (in 2 steps) ****
    Final optimized geometry and variables:
    Molecular point group: c1

    Geometry (in Angstrom), charge = 0, multiplicity = 1:

    O           -2.821776404051     1.309242966111     0.001566235490
    C           -2.668572436386     0.129768965553     0.000207494546
    C           -3.801516942230    -0.864058541142     0.001940271656
    O           -1.481747046799    -0.454607454741    -0.001415005981
    H           -4.419388149626    -0.688780083884    -0.870622332209
    H           -3.443657053521    -1.883067047828    -0.000083214995
    H           -4.414980988783    -0.690799368392     0.878023939718
    C           -0.334188403613     0.388710054760    -0.001517695579
    C            0.891999808832    -0.504634201482    -0.001827718617
    H           -0.365404770427     1.025275506782    -0.875914837922
    H           -0.365143011152     1.024980464132     0.873114169112
    C            2.192045668248     0.301789798729    -0.001705369606
    H            0.855106647466    -1.151237679113    -0.874174691466
    H            0.855237707907    -1.151677816162     0.870200526021
    C            3.441096377511    -0.581436083545    -0.000408112196
    H            2.215828758908     0.953818937438    -0.873129526774
    H            2.214903419219     0.954984335026     0.868869989189
    C            4.739559925591     0.224106135595     0.002718554431
    H            3.421575026699    -1.232459123612    -0.871538182005
    H            3.418502549036    -1.234188086051     0.869353535116
    H            4.807521337236     0.862139641128    -0.873813355465
    H            5.606463466697    -0.429107563764     0.004084565057
    H            4.803970815078     0.861088303076     0.880284987935

  Mulliken Charges: (a.u.)
   Center  Symbol    Alpha    Beta     Spin     Total
       1     O     4.28390  4.28390  0.00000 -0.56781
       2     C     2.61531  2.61531  0.00000  0.76938
       3     C     3.28774  3.28774  0.00000 -0.57549
       4     O     4.31274  4.31274  0.00000 -0.62549
       5     H     0.39751  0.39751  0.00000  0.20497
       6     H     0.39986  0.39986  0.00000  0.20028
       7     H     0.39749  0.39749  0.00000  0.20503
       8     C     2.99559  2.99559  0.00000  0.00882
       9     C     3.16481  3.16481  0.00000 -0.32962
      10     H     0.41066  0.41066  0.00000  0.17867
      11     H     0.41064  0.41064  0.00000  0.17873
      12     C     3.16000  3.16000  0.00000 -0.32001
      13     H     0.41424  0.41424  0.00000  0.17152
      14     H     0.41424  0.41424  0.00000  0.17151
      15     C     3.15143  3.15143  0.00000 -0.30286
      16     H     0.42076  0.42076  0.00000  0.15848
      17     H     0.42078  0.42078  0.00000  0.15845
      18     C     3.23987  3.23987  0.00000 -0.47975
      19     H     0.42138  0.42138  0.00000  0.15724
      20     H     0.42139  0.42139  0.00000  0.15722
      21     H     0.42083  0.42083  0.00000  0.15833
      22     H     0.41799  0.41799  0.00000  0.16402
      23     H     0.42083  0.42083  0.00000  0.15833

   Total alpha = 36.00000, Total beta = 36.00000, Total charge =  0.00000
