  ==> Input File <==

--------------------------------------------------------------------------
set {
	reference rhf
	basis 6-31G*
}

set_num_threads( 1 )
memory 2 gb

molecule MOL {
0 1

H	 3.729471	 -0.928294	 -0.070608
O	 2.826016	 -1.159218	 0.122261
C	 2.077727	 -0.067559	 -0.035091
C	 0.624473	 -0.343591	 0.253101
O	 2.542965	 0.974826	 -0.363729
C	 -0.265902	 0.883932	 0.072916
H	 0.324016	 -1.163849	 -0.390541
H	 0.565024	 -0.726111	 1.268924
C	 -1.728698	 0.646073	 0.462102
H	 -0.209144	 1.219470	 -0.958188
H	 0.135059	 1.692851	 0.673903
C	 -1.968787	 0.402068	 1.954676
H	 -2.088920	 -0.217427	 -0.092307
H	 -2.334127	 1.489405	 0.132856
C	 -3.427257	 0.068569	 2.267918
H	 -1.331774	 -0.413424	 2.291176
H	 -1.676241	 1.276611	 2.529978
H	 -3.572894	 -0.098338	 3.330577
H	 -3.745057	 -0.828871	 1.745009
H	 -4.087465	 0.877013	 1.966618

	symmetry c1
}
set optking {
	frozen_dihedral = ("
		16 12 9 6,
		7 4 6 10,
		5 3 4 7,
		1 2 3 5
	")
}

ee = energy('scf')
oeprop('DIPOLE', 'QUADRUPOLE', 'MULLIKEN_CHARGES')
f=open( 'psi4out.xyz', 'w' )
f.write( "20  " )
f.write( str(ee) + "\n" )
f.write( MOL.save_string_xyz() )
f.close()
--------------------------------------------------------------------------

    Molecular point group: c1

    Geometry (in Angstrom), charge = 0, multiplicity = 1:

       Center              X                  Y                   Z               Mass
    ------------   -----------------  -----------------  -----------------  -----------------
           H          3.598434747348    -1.086116778346    -0.659578099067     1.007825032070
           O          2.694979747348    -1.317040778346    -0.466709099067    15.994914619560
           C          1.946690747348    -0.225381778346    -0.624061099067    12.000000000000
           C          0.493436747348    -0.501413778346    -0.335869099067    12.000000000000
           O          2.411928747348     0.817003221654    -0.952699099067    15.994914619560
           C         -0.396938252652     0.726109221654    -0.516054099067    12.000000000000
           H          0.192979747348    -1.321671778346    -0.979511099067     1.007825032070
           H          0.433987747348    -0.883933778346     0.679953900933     1.007825032070
           C         -1.859734252652     0.488250221654    -0.126868099067    12.000000000000
           H         -0.340180252652     1.061647221654    -1.547158099067     1.007825032070
           H          0.004022747348     1.535028221654     0.084932900933     1.007825032070
           C         -2.099823252652     0.244245221654     1.365705900933    12.000000000000
           H         -2.219956252652    -0.375249778346    -0.681277099067     1.007825032070
           H         -2.465163252652     1.331582221654    -0.456114099067     1.007825032070
           C         -3.558293252652    -0.089253778346     1.678947900933    12.000000000000
           H         -1.462810252652    -0.571246778346     1.702205900933     1.007825032070
           H         -1.807277252652     1.118788221654     1.941007900933     1.007825032070
           H         -3.703930252652    -0.256160778346     2.741606900933     1.007825032070
           H         -3.876093252652    -0.986693778346     1.156038900933     1.007825032070
           H         -4.218501252652     0.719190221654     1.377647900933     1.007825032070

  Charge       = 0
  Multiplicity = 1
  Basis Set: 6-31G*
  Basis Set:

    Orbital Energies (a.u.)
    -----------------------

    Doubly Occupied:

       1A    -20.612653     2A    -20.551659     3A    -11.381371
       4A    -11.240466     5A    -11.222856     6A    -11.220786
       7A    -11.220174     8A    -11.212538     9A     -1.474692
      10A     -1.365719    11A     -1.096580    12A     -1.040952
      13A     -0.961269    14A     -0.868906    15A     -0.816070
      16A     -0.777590    17A     -0.699591    18A     -0.690680
      19A     -0.663533    20A     -0.635295    21A     -0.604959
      22A     -0.593484    23A     -0.575931    24A     -0.555769
      25A     -0.538763    26A     -0.513528    27A     -0.496314
      28A     -0.479565    29A     -0.470479    30A     -0.466877
      31A     -0.457019    32A     -0.443910

  @DF-RHF Final Energy:  -383.94797565261075

   => Energetics <=

    Nuclear Repulsion Energy =            376.4755237525855023
    One-Electron Energy =               -1268.9470520032809873
    Two-Electron Energy =                 508.5235525980850184
    DFT Exchange-Correlation Energy =       0.0000000000000000
    Empirical Dispersion Energy =           0.0000000000000000
    PCM Polarization Energy =               0.0000000000000000
    EFP Energy =                            0.0000000000000000
    Total Energy =                       -383.9479756526104097

  Mulliken Charges: (a.u.)
   Center  Symbol    Alpha    Beta     Spin     Total
       1     H     0.26781  0.26781  0.00000  0.46438
       2     O     4.35157  4.35157  0.00000 -0.70314
       3     C     2.62204  2.62204  0.00000  0.75592
       4     C     3.21331  3.21331  0.00000 -0.42661
       5     O     4.27912  4.27912  0.00000 -0.55824
       6     C     3.15435  3.15435  0.00000 -0.30870
       7     H     0.39845  0.39845  0.00000  0.20310
       8     H     0.39730  0.39730  0.00000  0.20540
       9     C     3.15547  3.15547  0.00000 -0.31093
      10     H     0.40983  0.40983  0.00000  0.18034
      11     H     0.41054  0.41054  0.00000  0.17892
      12     C     3.15478  3.15478  0.00000 -0.30957
      13     H     0.42481  0.42481  0.00000  0.15038
      14     H     0.41721  0.41721  0.00000  0.16558
      15     C     3.23911  3.23911  0.00000 -0.47822
      16     H     0.42373  0.42373  0.00000  0.15254
      17     H     0.42031  0.42031  0.00000  0.15937
      18     H     0.41828  0.41828  0.00000  0.16344
      19     H     0.42135  0.42135  0.00000  0.15730
      20     H     0.42063  0.42063  0.00000  0.15874

   Total alpha = 32.00000, Total beta = 32.00000, Total charge = -0.00000
