                              Psi4 1.0.54 Driver

  ==> Input File <==

--------------------------------------------------------------------------
set {
	reference rhf
	basis cc-pvtz
}

set_num_threads( 4 )
memory 2 gb

molecule MOL {
0 1

O	 -1.510770	 1.240811	 -0.054933
C	 -1.081510	 0.147522	 0.122720
C	 0.327029	 -0.064006	 0.641890
C	 -1.903028	 -1.084121	 -0.174656
C	 1.349460	 -0.017068	 -0.500215
H	 0.399029	 -1.014606	 1.159950
H	 0.538021	 0.726928	 1.350471
C	 2.351579	 1.120106	 -0.337925
H	 1.882794	 -0.961796	 -0.553905
H	 0.816627	 0.092890	 -1.437406
H	 3.054309	 1.137627	 -1.162482
H	 2.919891	 1.015620	 0.580146
H	 1.849210	 2.080667	 -0.309325
H	 -1.341891	 -1.779207	 -0.789259
H	 -2.820449	 -0.808163	 -0.671328
H	 -2.133314	 -1.593056	 0.755831

	symmetry c1
}
set optking {
	frozen_dihedral = ("
		9 5 3 2
	")
}

ee,wfn = optimize('scf', return_wfn=True)
oeprop( wfn, 'DIPOLE', 'QUADRUPOLE', 'MULLIKEN_CHARGES')
f=open( 'psi4out.xyz', 'w' )
f.write( "16  " )
f.write( str(ee) + "\n" )
f.write( MOL.save_string_xyz() )
f.close()
--------------------------------------------------------------------------

    Molecular point group: c1
  Charge       = 0
  Multiplicity = 1
  Basis Set: CC-PVTZ
  Basis Set:
  @DF-RHF Final Energy:  -270.12360251980908
    Total Energy =                       -270.1236025198087987
    Molecular point group: c1
  Basis Set: CC-PVTZ
  Basis Set:
  Basis Set: CC-PVTZ
  Basis Set:
  @DF-RHF Final Energy:  -270.12372957412805
    Total Energy =                       -270.1237295741281059
  Basis Set: CC-PVTZ
  Basis Set:
  Basis Set: CC-PVTZ
  Basis Set:
  @DF-RHF Final Energy:  -270.12407458066855
    Total Energy =                       -270.1240745806683208
  Basis Set: CC-PVTZ
  Basis Set:
  Basis Set: CC-PVTZ
  Basis Set:
  @DF-RHF Final Energy:  -270.12419068982490
    Total Energy =                       -270.1241906898252410
  Basis Set: CC-PVTZ
  Basis Set:
  @DF-RHF Final Energy:  -270.12423733287193
    Total Energy =                       -270.1242373328715303
  Basis Set: CC-PVTZ
  Basis Set:
  @DF-RHF Final Energy:  -270.12425531332963
    Total Energy =                       -270.1242553133293995
  Basis Set: CC-PVTZ
  Basis Set:
  Basis Set: CC-PVTZ
  Basis Set:
  @DF-RHF Final Energy:  -270.12425913464517
    Total Energy =                       -270.1242591346451150
  Basis Set: CC-PVTZ
  Basis Set:
  Basis Set: CC-PVTZ
  Basis Set:
  @DF-RHF Final Energy:  -270.12426034016488
    Total Energy =                       -270.1242603401649376
  Basis Set: CC-PVTZ
  Basis Set:
  Charge       = 0
  Multiplicity = 1
  Basis Set: CC-PVTZ
  Basis Set:

    Orbital Energies (a.u.)
    -----------------------

    Doubly Occupied:

       1A    -20.537160     2A    -11.319676     3A    -11.233732
       4A    -11.228150     5A    -11.227013     6A    -11.215540
       7A     -1.397105     8A     -1.081990     9A     -1.013038
      10A     -0.949377    11A     -0.832234    12A     -0.736573
      13A     -0.660192    14A     -0.645315    15A     -0.621455
      16A     -0.599346    17A     -0.581928    18A     -0.558219
      19A     -0.544561    20A     -0.514611    21A     -0.498184
      22A     -0.485372    23A     -0.475471    24A     -0.399962

  @DF-RHF Final Energy:  -270.12426066461717

   => Energetics <=

    Nuclear Repulsion Energy =            238.6994271813975104
    One-Electron Energy =                -838.9349626658399757
    Two-Electron Energy =                 330.1112748198250415
    DFT Exchange-Correlation Energy =       0.0000000000000000
    Empirical Dispersion Energy =           0.0000000000000000
    PCM Polarization Energy =               0.0000000000000000
    EFP Energy =                            0.0000000000000000
    Total Energy =                       -270.1242606646174522
    Molecular point group: c1
  Basis Set: CC-PVTZ
  Basis Set:

  -Total Gradient:
     Atom            X                  Y                   Z
    ------   -----------------  -----------------  -----------------
       1       -0.000005412121    -0.000007508306     0.000001193068
       2       -0.000039802325    -0.000133808309    -0.000000042024
       3        0.000035523396     0.000222268691    -0.000081989861
       4       -0.000010942080    -0.000024142530     0.000013687760
       5        0.000203546323     0.000060571150     0.000226244240
       6       -0.000014441053    -0.000014958619     0.000017262150
       7       -0.000003373421     0.000010414094     0.000017674069
       8        0.000013526937    -0.000000279201    -0.000013941410
       9       -0.000177483110    -0.000103108308    -0.000159049805
      10        0.000004245633     0.000006752643    -0.000007692118
      11        0.000008405974     0.000002172204    -0.000002995659
      12       -0.000001815380    -0.000000436743     0.000005763117
      13       -0.000005282278    -0.000004965188    -0.000001720965
      14        0.000019461454    -0.000010232201    -0.000019414017
      15       -0.000019019439     0.000005121445    -0.000005570090
      16       -0.000007138512    -0.000007860823     0.000010591546

  **** Optimization is complete! (in 9 steps) ****
    Final optimized geometry and variables:
    Molecular point group: c1

    Geometry (in Angstrom), charge = 0, multiplicity = 1:

    O           -1.528534488951     1.007683367516     0.217396418080
    C           -1.009058509265    -0.060571358273     0.237482800459
    C            0.414340708990    -0.239995936613     0.721278159649
    C           -1.734985645685    -1.300739437965    -0.230734676704
    C            1.415442188652    -0.295520158556    -0.462223517974
    H            0.480883799090    -1.147972652545     1.309554709333
    H            0.642840857848     0.594599725220     1.368710753545
    C            2.425961570945     0.846399371639    -0.434015472760
    H            1.939696952427    -1.243548954981    -0.452357083744
    H            0.878843303148    -0.260613672006    -1.404605877633
    H            3.104995340754     0.784377027185    -1.276508068077
    H            3.017954729659     0.819908733358     0.474281956602
    H            1.924137106953     1.806047582015    -0.476334973014
    H           -1.110939028579    -1.893084073774    -0.889728297561
    H           -2.650898669401    -1.027936128727    -0.732119077302
    H           -1.968119477647    -1.917183363506     0.631746930836

  Mulliken Charges: (a.u.)
   Center  Symbol    Alpha    Beta     Spin     Total
       1     O     4.17649  4.17649  0.00000 -0.35298
       2     C     2.85827  2.85827  0.00000  0.28347
       3     C     3.10474  3.10474  0.00000 -0.20948
       4     C     3.15555  3.15555  0.00000 -0.31110
       5     C     3.08962  3.08962  0.00000 -0.17925
       6     H     0.44409  0.44409  0.00000  0.11182
       7     H     0.44012  0.44012  0.00000  0.11976
       8     C     3.14596  3.14596  0.00000 -0.29192
       9     H     0.44819  0.44819  0.00000  0.10361
      10     H     0.45322  0.45322  0.00000  0.09355
      11     H     0.44900  0.44900  0.00000  0.10200
      12     H     0.45385  0.45385  0.00000  0.09231
      13     H     0.44700  0.44700  0.00000  0.10600
      14     H     0.45004  0.45004  0.00000  0.09993
      15     H     0.43596  0.43596  0.00000  0.12809
      16     H     0.44791  0.44791  0.00000  0.10419

   Total alpha = 24.00000, Total beta = 24.00000, Total charge = -0.00000

*** Psi4 exiting successfully. Buy a developer a beer!
