  ==> Input File <==

--------------------------------------------------------------------------
set {
	reference rhf
	basis 6-31G*
}

set_num_threads( 4 )
memory 2 gb

molecule MOL {
0 1

O	 -1.276010	 1.052711	 -0.768302
C	 -1.204840	 0.067374	 -0.106123
C	 -2.388195	 -0.672128	 0.458071
O	 -0.067104	 -0.527208	 0.221609
H	 -2.388023	 -1.694060	 0.097175
H	 -3.300579	 -0.174919	 0.164318
H	 -2.315377	 -0.706351	 1.539059
C	 1.170111	 0.034140	 -0.238951
C	 2.268273	 -0.744405	 0.463542
C	 1.204986	 1.522937	 0.069127
H	 1.227065	 -0.119475	 -1.306503
H	 2.197907	 -1.800789	 0.230416
H	 3.242068	 -0.387164	 0.145055
H	 2.194295	 -0.625985	 1.539254
H	 2.148551	 1.949308	 -0.256309
H	 0.405364	 2.040350	 -0.445524
H	 1.103623	 1.691718	 1.136482

	symmetry c1
}
set optking {
	frozen_dihedral = ("
		11 8 4 2
	")
}

ee = optimize('scf')
oeprop('DIPOLE', 'QUADRUPOLE', 'MULLIKEN_CHARGES')
f=open( 'psi4out.xyz', 'w' )
f.write( "17  " )
f.write( str(ee) + "\n" )
f.write( MOL.save_string_xyz() )
f.close()
--------------------------------------------------------------------------

    Molecular point group: c1
  Charge       = 0
  Multiplicity = 1
  Basis Set: 6-31G*
  Basis Set:
  @DF-RHF Final Energy:  -344.90421047054633
    Total Energy =                       -344.9042104705463316
    Molecular point group: c1
  Basis Set: 6-31G*
  Basis Set:
  Basis Set: 6-31G*
  Basis Set:
  @DF-RHF Final Energy:  -344.91012351050074
    Total Energy =                       -344.9101235105009096
  Basis Set: 6-31G*
  Basis Set:
  Basis Set: 6-31G*
  Basis Set:
  @DF-RHF Final Energy:  -344.91065298024307
    Total Energy =                       -344.9106529802431282
  Basis Set: 6-31G*
  Basis Set:
  Basis Set: 6-31G*
  Basis Set:
  @DF-RHF Final Energy:  -344.90843005499516
    Total Energy =                       -344.9084300549951649
  Basis Set: 6-31G*
  Basis Set:
  Basis Set: 6-31G*
  Basis Set:
  @DF-RHF Final Energy:  -344.91081113992175
    Total Energy =                       -344.9108111399217478
  Basis Set: 6-31G*
  Basis Set:
  Basis Set: 6-31G*
  Basis Set:
  @DF-RHF Final Energy:  -344.91083099491988
    Total Energy =                       -344.9108309949197633
  Basis Set: 6-31G*
  Basis Set:
  Basis Set: 6-31G*
  Basis Set:
  @DF-RHF Final Energy:  -344.91083211894653
    Total Energy =                       -344.9108321189465869
  Basis Set: 6-31G*
  Basis Set:
  Charge       = 0
  Multiplicity = 1
  Basis Set: 6-31G*
  Basis Set:

    Orbital Energies (a.u.)
    -----------------------

    Doubly Occupied:

       1A    -20.598303     2A    -20.542498     3A    -11.374543
       4A    -11.293812     5A    -11.231688     6A    -11.218984
       7A    -11.213627     8A     -1.463520     9A     -1.361784
      10A     -1.079162    11A     -1.004425    12A     -0.946715
      13A     -0.852991    14A     -0.756292    15A     -0.691154
      16A     -0.675804    17A     -0.657701    18A     -0.615552
      19A     -0.585286    20A     -0.578464    21A     -0.553282
      22A     -0.549783    23A     -0.541048    24A     -0.518657
      25A     -0.500866    26A     -0.483893    27A     -0.447672
      28A     -0.431873

  @DF-RHF Final Energy:  -344.91083258110592

   => Energetics <=

    Nuclear Repulsion Energy =            323.7886399860513507
    One-Electron Energy =               -1111.8601870522575155
    Two-Electron Energy =                 443.1607144851002431
    DFT Exchange-Correlation Energy =       0.0000000000000000
    Empirical Dispersion Energy =           0.0000000000000000
    PCM Polarization Energy =               0.0000000000000000
    EFP Energy =                            0.0000000000000000
    Total Energy =                       -344.9108325811059785
    Molecular point group: c1
  Basis Set: 6-31G*
  Basis Set:

  -Total Gradient:
     Atom            X                  Y                   Z
    ------   -----------------  -----------------  -----------------
       1       -0.000009727965    -0.000041096383    -0.000016430058
       2        0.000038329985     0.003170632536     0.004712532752
       3       -0.000003128199     0.000032475370     0.000053445124
       4        0.000620583584    -0.005795857420    -0.006764958449
       5       -0.000002535988    -0.000008785613    -0.000021143732
       6       -0.000006173190    -0.000005029436     0.000000145873
       7       -0.000000550225    -0.000022711058    -0.000017025107
       8       -0.003612514720     0.008022486626     0.001057958832
       9        0.000025068205     0.000007433259    -0.000024935281
      10       -0.000034114344     0.000007605494     0.000030263903
      11        0.002964568920    -0.005354895844     0.001013413150
      12        0.000003420131    -0.000001733689     0.000000536743
      13        0.000009773519     0.000000864550     0.000001582314
      14       -0.000006192319     0.000005117732    -0.000014640733
      15       -0.000002392883    -0.000003636433    -0.000012076809
      16        0.000019369482    -0.000010526216     0.000000409023
      17       -0.000003783993    -0.000002343473     0.000000922455

  **** Optimization is complete! (in 8 steps) ****
    Final optimized geometry and variables:
    Molecular point group: c1

    Geometry (in Angstrom), charge = 0, multiplicity = 1:

    O           -1.324681980957     0.806729972359    -0.949690879697
    C           -1.184854007997    -0.080436492127    -0.170993641556
    C           -2.315927991640    -0.785438120953     0.530160675102
    O           -0.016138464160    -0.600097733321     0.173780881925
    H           -2.279889445571    -1.845780278420     0.308799574578
    H           -3.258508753657    -0.370633275125     0.205397452101
    H           -2.209485387040    -0.670814588373     1.602801715991
    C            1.222616689755     0.003990963387    -0.229161311413
    C            2.289857140570    -0.832885226271     0.462292767983
    C            1.325989860169     1.473752258568     0.149961228521
    H            1.324113952234    -0.142925146489    -1.297446141944
    H            2.179234775968    -1.879817567671     0.204692853256
    H            3.278256352591    -0.506307318352     0.156639455756
    H            2.212988339883    -0.736503288260     1.540057252129
    H            2.331449245848     1.822594131812    -0.062883087477
    H            0.626149494711     2.086125368864    -0.396139297705
    H            1.147938172119     1.596265378752     1.214375643349

  Mulliken Charges: (a.u.)
   Center  Symbol    Alpha    Beta     Spin     Total
       1     O     4.28518  4.28518  0.00000 -0.57036
       2     C     2.61454  2.61454  0.00000  0.77093
       3     C     3.28101  3.28101  0.00000 -0.56202
       4     O     4.31826  4.31826  0.00000 -0.63651
       5     H     0.40048  0.40048  0.00000  0.19903
       6     H     0.39765  0.39765  0.00000  0.20470
       7     H     0.40192  0.40192  0.00000  0.19615
       8     C     2.91692  2.91692  0.00000  0.16616
       9     C     3.24288  3.24288  0.00000 -0.48577
      10     C     3.26186  3.26186  0.00000 -0.52373
      11     H     0.41040  0.41040  0.00000  0.17920
      12     H     0.41088  0.41088  0.00000  0.17823
      13     H     0.41818  0.41818  0.00000  0.16363
      14     H     0.41496  0.41496  0.00000  0.17008
      15     H     0.41775  0.41775  0.00000  0.16449
      16     H     0.38874  0.38874  0.00000  0.22252
      17     H     0.41837  0.41837  0.00000  0.16326

   Total alpha = 28.00000, Total beta = 28.00000, Total charge =  0.00000
