  ==> Input File <==

--------------------------------------------------------------------------
set {
	reference rhf
	basis 6-31G*
}

set_num_threads( 4 )
memory 2 gb

molecule MOL {
0 1

H	 1.916900	 -3.787134	 0.348955
C	 2.167876	 -2.734802	 0.263172
C	 0.908473	 -1.875269	 0.162826
H	 2.758858	 -2.465008	 1.133906
H	 2.798497	 -2.616511	 -0.613510
C	 1.217350	 -0.386724	 0.039429
H	 0.280651	 -2.026904	 1.035314
H	 0.323642	 -2.192942	 -0.698829
N	 0.000003	 0.397874	 -0.023260
H	 1.778705	 -0.063596	 0.912030
H	 1.866931	 -0.217950	 -0.825983
C	 -1.217365	 -0.386708	 0.039277
H	 -0.000031	 1.072115	 0.718656
C	 -2.452633	 0.504241	 -0.042481
H	 -1.215291	 -1.074557	 -0.802042
H	 -1.269739	 -1.003477	 0.942735
C	 -3.758029	 -0.289423	 -0.010781
H	 -2.394220	 1.093569	 -0.952170
H	 -2.440793	 1.210787	 0.785871
H	 -3.816659	 -0.981993	 -0.845726
H	 -4.617837	 0.370165	 -0.069296
H	 -3.847478	 -0.867502	 0.904682

	symmetry c1
}
set optking {
	frozen_dihedral = ("
		10 6 9 12
	")
}

ee = optimize('scf')
oeprop('DIPOLE', 'QUADRUPOLE', 'MULLIKEN_CHARGES')
f=open( 'psi4out.xyz', 'w' )
f.write( "22  " )
f.write( str(ee) + "\n" )
f.write( MOL.save_string_xyz() )
f.close()
--------------------------------------------------------------------------

    Molecular point group: c1
  Charge       = 0
  Multiplicity = 1
  Basis Set: 6-31G*
  Basis Set:
  @DF-RHF Final Energy:  -290.36073483307160
    Total Energy =                       -290.3607348330716036
    Molecular point group: c1
  Basis Set: 6-31G*
  Basis Set:
  Basis Set: 6-31G*
  Basis Set:
  @DF-RHF Final Energy:  -290.35879153555879
    Total Energy =                       -290.3587915355588507
  Basis Set: 6-31G*
  Basis Set:
  Basis Set: 6-31G*
  Basis Set:
  @DF-RHF Final Energy:  -290.36859097918585
    Total Energy =                       -290.3685909791859103
  Basis Set: 6-31G*
  Basis Set:
  Basis Set: 6-31G*
  Basis Set:
  @DF-RHF Final Energy:  -290.37097579697564
    Total Energy =                       -290.3709757969753014
  Basis Set: 6-31G*
  Basis Set:
  @DF-RHF Final Energy:  -290.37138621287363
    Total Energy =                       -290.3713862128737446
  @DF-RHF Final Energy:  -290.37165683722600
    Total Energy =                       -290.3716568372265101
  Basis Set: 6-31G*
  Basis Set:
  @DF-RHF Final Energy:  -290.37167740010079
    Total Energy =                       -290.3716774001007934
  Basis Set: 6-31G*
  Basis Set:
  Basis Set: 6-31G*
  Basis Set:
  @DF-RHF Final Energy:  -290.37168877001966
    Total Energy =                       -290.3716887700201141
  Basis Set: 6-31G*
  Basis Set:
  Basis Set: 6-31G*
  Basis Set:
  @DF-RHF Final Energy:  -290.37169349352502
    Total Energy =                       -290.3716934935252425
  Basis Set: 6-31G*
  Basis Set:
  Charge       = 0
  Multiplicity = 1
  Basis Set: 6-31G*
  Basis Set:

    Orbital Energies (a.u.)
    -----------------------

    Doubly Occupied:

       1A    -15.528013     2A    -11.239049     3A    -11.237070
       4A    -11.216183     5A    -11.212016     6A    -11.211299
       7A    -11.208715     8A     -1.195320     9A     -1.057167
      10A     -1.027679    11A     -0.929470    12A     -0.874842
      13A     -0.813988    14A     -0.779380    15A     -0.666976
      16A     -0.626923    17A     -0.619340    18A     -0.612075
      19A     -0.569283    20A     -0.558687    21A     -0.539651
      22A     -0.532923    23A     -0.503482    24A     -0.488148
      25A     -0.480842    26A     -0.473561    27A     -0.464049
      28A     -0.459993    29A     -0.344104

  @DF-RHF Final Energy:  -290.37169359057157

   => Energetics <=

    Nuclear Repulsion Energy =            317.7203786290662038
    One-Electron Energy =               -1021.2436891460292827
    Two-Electron Energy =                 413.1516169263921938
    DFT Exchange-Correlation Energy =       0.0000000000000000
    Empirical Dispersion Energy =           0.0000000000000000
    PCM Polarization Energy =               0.0000000000000000
    EFP Energy =                            0.0000000000000000
    Total Energy =                       -290.3716935905708851
    Molecular point group: c1
  Basis Set: 6-31G*
  Basis Set:

  -Total Gradient:
     Atom            X                  Y                   Z
    ------   -----------------  -----------------  -----------------
       1       -0.000000928857     0.000001491470     0.000005692696
       2       -0.000000859583     0.000006024927     0.000011285969
       3        0.000004364332    -0.000009940046    -0.000013091858
       4        0.000004738514     0.000005085580    -0.000002885394
       5       -0.000000150036    -0.000006721558    -0.000005005737
       6        0.000065457144     0.000105618058    -0.000022625784
       7        0.000011583485    -0.000003530838    -0.000007023303
       8       -0.000004202519     0.000004894929    -0.000003608029
       9       -0.000024076987    -0.000044311732    -0.000120425572
      10       -0.000045473911    -0.000077777701     0.000064646368
      11       -0.000003660425    -0.000006591279     0.000001813069
      12       -0.000008246815     0.000014009418     0.000116832399
      13       -0.000001719230    -0.000002296669    -0.000006967793
      14        0.000003239255     0.000004905728    -0.000001411048
      15       -0.000000260500     0.000000522434    -0.000002995318
      16       -0.000000068994     0.000005579082    -0.000005859971
      17        0.000002406731    -0.000003355698    -0.000009492916
      18       -0.000006330450     0.000008446298     0.000000678266
      19        0.000001225217    -0.000002734988     0.000001706807
      20       -0.000001657061    -0.000002812756     0.000000537843
      21        0.000002845792     0.000000633181    -0.000002314050
      22        0.000001774895     0.000002862164     0.000000513356

  **** Optimization is complete! (in 10 steps) ****
    Final optimized geometry and variables:
    Molecular point group: c1

    Geometry (in Angstrom), charge = 0, multiplicity = 1:

    H            2.807235512823    -3.057376943597     0.192034495205
    C            2.890667049149    -1.976120036088     0.151243607727
    C            1.510109378490    -1.321287791562     0.092597094098
    H            3.443347847951    -1.654156114215     1.029370093551
    H            3.483312308360    -1.723248592062    -0.723164937164
    C            1.621774131372     0.203488721494     0.018812533955
    H            0.936357482470    -1.614387229813     0.966632577319
    H            0.976567116937    -1.698430860388    -0.774337600681
    N            0.367772385431     0.958615380574    -0.047956459443
    H            2.192416374520     0.535680182283     0.884118902170
    H            2.224353091485     0.452988352381    -0.852026366764
    C           -0.910649151442     0.277267408936     0.010850897039
    H            0.382311803160     1.695377438447     0.625858235316
    C           -2.046179383983     1.284221531082    -0.151995215000
    H           -0.965411143121    -0.440635238787    -0.799993013002
    H           -1.064767852356    -0.283943360037     0.936500106595
    C           -3.426275066609     0.628846622100    -0.123531714019
    H           -1.903026937112     1.818733467405    -1.085763558925
    H           -1.984677517733     2.026447707751     0.642490153675
    H           -3.533518374562    -0.096009420728    -0.925629538631
    H           -4.212158108489     1.368084424045    -0.241063213991
    H           -3.599256631882     0.110352777272     0.815382598271

  Mulliken Charges: (a.u.)
   Center  Symbol    Alpha    Beta     Spin     Total
       1     H     0.41744  0.41744  0.00000  0.16512
       2     C     3.24230  3.24230  0.00000 -0.48459
       3     C     3.16754  3.16754  0.00000 -0.33509
       4     H     0.42146  0.42146  0.00000  0.15708
       5     H     0.41973  0.41973  0.00000  0.16054
       6     C     3.03350  3.03350  0.00000 -0.06700
       7     H     0.41983  0.41983  0.00000  0.16034
       8     H     0.41808  0.41808  0.00000  0.16384
       9     N     3.87457  3.87457  0.00000 -0.74915
      10     H     0.43032  0.43032  0.00000  0.13936
      11     H     0.42241  0.42241  0.00000  0.15518
      12     C     3.04398  3.04398  0.00000 -0.08795
      13     H     0.33191  0.33191  0.00000  0.33617
      14     C     3.15478  3.15478  0.00000 -0.30956
      15     H     0.42113  0.42113  0.00000  0.15775
      16     H     0.43601  0.43601  0.00000  0.12797
      17     C     3.24315  3.24315  0.00000 -0.48630
      18     H     0.41323  0.41323  0.00000  0.17355
      19     H     0.42761  0.42761  0.00000  0.14479
      20     H     0.42106  0.42106  0.00000  0.15787
      21     H     0.41796  0.41796  0.00000  0.16409
      22     H     0.42200  0.42200  0.00000  0.15600

   Total alpha = 29.00000, Total beta = 29.00000, Total charge = -0.00000
