                              Psi4 1.0.54 Driver

  ==> Input File <==

--------------------------------------------------------------------------
set {
	reference rhf
	basis cc-pvtz
}

set_num_threads( 4 )
memory 2 gb

molecule MOL {
0 1

H	 -3.157333	 -1.188642	 -0.038286
O	 -2.321472	 -0.864941	 -0.318626
C	 -2.021813	 0.336996	 0.342658
C	 -0.669613	 0.837286	 -0.127252
H	 -2.780861	 1.084746	 0.127159
H	 -2.006390	 0.184138	 1.420053
C	 0.490865	 -0.082543	 0.241244
H	 -0.708709	 0.967192	 -1.204587
H	 -0.507562	 1.822272	 0.303070
C	 1.839800	 0.429565	 -0.255472
H	 0.305636	 -1.070211	 -0.165276
H	 0.527397	 -0.195943	 1.322876
C	 3.001144	 -0.485193	 0.119072
H	 1.804373	 0.541073	 -1.335756
H	 2.020437	 1.423114	 0.146921
H	 2.866892	 -1.477297	 -0.298806
H	 3.943543	 -0.095749	 -0.249061
H	 3.085064	 -0.590459	 1.195790

	symmetry c1
}
set optking {
	frozen_dihedral = ("
		1 2 3 4
	")
}

ee,wfn = optimize('scf', return_wfn=True)
oeprop( wfn, 'DIPOLE', 'QUADRUPOLE', 'MULLIKEN_CHARGES')
f=open( 'psi4out.xyz', 'w' )
f.write( "18  " )
f.write( str(ee) + "\n" )
f.write( MOL.save_string_xyz() )
f.close()
--------------------------------------------------------------------------

    Molecular point group: c1
  Charge       = 0
  Multiplicity = 1
  Basis Set: CC-PVTZ
  Basis Set:
  @DF-RHF Final Energy:  -271.28692622192614
    Total Energy =                       -271.2869262219260236
    Molecular point group: c1
  Basis Set: CC-PVTZ
  Basis Set:
  Charge       = 0
  Multiplicity = 1
  Basis Set: CC-PVTZ
  Basis Set:

    Orbital Energies (a.u.)
    -----------------------

    Doubly Occupied:

       1A    -20.546268     2A    -11.265960     3A    -11.210436
       4A    -11.209069     5A    -11.204907     6A    -11.202730
       7A     -1.364164     8A     -1.076560     9A     -1.010237
      10A     -0.914433    11A     -0.818388    12A     -0.784778
      13A     -0.708262    14A     -0.643637    15A     -0.626969
      16A     -0.582383    17A     -0.572196    18A     -0.559007
      19A     -0.524272    20A     -0.502494    21A     -0.489081
      22A     -0.468407    23A     -0.459244    24A     -0.449167
      25A     -0.431608

  @DF-RHF Final Energy:  -271.28692631108350

   => Energetics <=

    Nuclear Repulsion Energy =            249.3152407209121861
    One-Electron Energy =                -861.9550294058421969
    Two-Electron Energy =                 341.3528623738466194
    DFT Exchange-Correlation Energy =       0.0000000000000000
    Empirical Dispersion Energy =           0.0000000000000000
    PCM Polarization Energy =               0.0000000000000000
    EFP Energy =                            0.0000000000000000
    Total Energy =                       -271.2869263110833344
    Molecular point group: c1
  Basis Set: CC-PVTZ
  Basis Set:

  -Total Gradient:
     Atom            X                  Y                   Z
    ------   -----------------  -----------------  -----------------
       1       -0.000054074941     0.000070055859    -0.000093779963
       2        0.000083123471    -0.000089942589     0.000101069000
       3        0.000020983972    -0.000023466325     0.000025681947
       4       -0.000035856039     0.000036479363    -0.000047502319
       5        0.000006175235     0.000009699981     0.000004448987
       6        0.000001581624    -0.000007254128     0.000004573034
       7       -0.000014397465     0.000018546235     0.000005510508
       8       -0.000006673406     0.000002348036    -0.000001405821
       9        0.000005691708     0.000000549564     0.000002312541
      10        0.000000484647     0.000004746053     0.000017047123
      11       -0.000001366250    -0.000020261033    -0.000000526194
      12        0.000003216684     0.000008695343    -0.000004970637
      13       -0.000005380022    -0.000010138052    -0.000017430938
      14        0.000000838463     0.000003375912     0.000002174722
      15       -0.000004504147    -0.000000757425     0.000007978163
      16        0.000001793062    -0.000008110518     0.000003918151
      17        0.000000282039    -0.000002916443    -0.000007155585
      18       -0.000001918637     0.000008350163    -0.000001942720

  **** Optimization is complete! (in 2 steps) ****
    Final optimized geometry and variables:
    Molecular point group: c1

    Geometry (in Angstrom), charge = 0, multiplicity = 1:

    H           -3.154468607852    -1.191326605460    -0.037528917942
    O           -2.318587394735    -0.867222220029    -0.317085233434
    C           -2.022248093600     0.337076506952     0.341369911376
    C           -0.669895370180     0.838082786010    -0.127156589911
    H           -2.781681949216     1.083316127261     0.122094037748
    H           -2.009105190664     0.187087892412     1.419206981090
    C            0.490496429201    -0.081332724580     0.242556102975
    H           -0.708004323272     0.967771553342    -1.204517940917
    H           -0.508642219056     1.823082860375     0.303393676489
    C            1.839521216406     0.430452792235    -0.254057258051
    H            0.305550208533    -1.069338871082    -0.163254813303
    H            0.526608846705    -0.193855436619     1.324240881691
    C            3.000164261827    -0.486376489703     0.117421801201
    H            1.803309813921     0.544273375563    -1.334051938051
    H            2.021478538153     1.422917997886     0.150353040506
    H            2.863298490598    -1.478069178884    -0.300545498343
    H            3.942365171768    -0.098354207006    -0.252686838682
    H            3.086283922660    -0.592191222556     1.193889779469

  Mulliken Charges: (a.u.)
   Center  Symbol    Alpha    Beta     Spin     Total
       1     H     0.39571  0.39571  0.00000  0.20858
       2     O     4.19874  4.19874  0.00000 -0.39748
       3     C     2.97367  2.97367  0.00000  0.05267
       4     C     3.09103  3.09103  0.00000 -0.18206
       5     H     0.46542  0.46542  0.00000  0.06916
       6     H     0.47371  0.47371  0.00000  0.05258
       7     C     3.08668  3.08668  0.00000 -0.17336
       8     H     0.45231  0.45231  0.00000  0.09539
       9     H     0.45442  0.45442  0.00000  0.09116
      10     C     3.08359  3.08359  0.00000 -0.16718
      11     H     0.44438  0.44438  0.00000  0.11124
      12     H     0.45955  0.45955  0.00000  0.08090
      13     C     3.14980  3.14980  0.00000 -0.29959
      14     H     0.45434  0.45434  0.00000  0.09132
      15     H     0.45683  0.45683  0.00000  0.08635
      16     H     0.45442  0.45442  0.00000  0.09116
      17     H     0.44938  0.44938  0.00000  0.10123
      18     H     0.45603  0.45603  0.00000  0.08795

   Total alpha = 25.00000, Total beta = 25.00000, Total charge = -0.00000

*** Psi4 exiting successfully. Buy a developer a beer!
