  ==> Input File <==

--------------------------------------------------------------------------
set {
	reference rhf
	basis cc-pvtz
}

set_num_threads( 4 )
memory 2 gb

molecule MOL {
0 1

O	 2.102620	 1.755662	 -0.574728
C	 0.961850	 1.413950	 -0.445908
C	 -0.156095	 2.416298	 -0.646727
N	 0.622280	 0.144970	 -0.099307
H	 -0.758702	 2.519495	 0.246895
H	 0.299193	 3.364119	 -0.880911
H	 -0.807897	 2.122637	 -1.460294
C	 1.664396	 -0.854993	 0.000772
C	 -0.725232	 -0.370599	 -0.145710
H	 2.462727	 -0.615153	 -0.690869
H	 1.261798	 -1.821849	 -0.240651
H	 2.081615	 -0.891605	 1.003877
H	 -0.851403	 -1.107389	 0.637142
H	 -1.454303	 0.404629	 0.016687
H	 -0.942590	 -0.853757	 -1.095635

	symmetry c1
}
set optking {
	frozen_dihedral = ("
		2 4 8 10
	")
}

ee = optimize('scf')
oeprop('DIPOLE', 'QUADRUPOLE', 'MULLIKEN_CHARGES')
f=open( 'psi4out.xyz', 'w' )
f.write( "15  " )
f.write( str(ee) + "\n" )
f.write( MOL.save_string_xyz() )
f.close()
--------------------------------------------------------------------------

    Molecular point group: c1
  Charge       = 0
  Multiplicity = 1
  Basis Set: CC-PVTZ
  Basis Set:
  @DF-RHF Final Energy:  -286.13394638368959
    Total Energy =                       -286.1339463836896471
    Molecular point group: c1
  Basis Set: CC-PVTZ
  Basis Set:
  Basis Set: CC-PVTZ
  Basis Set:
  @DF-RHF Final Energy:  -286.13445258079139
    Total Energy =                       -286.1344525807917307
  Basis Set: CC-PVTZ
  Basis Set:
  Basis Set: CC-PVTZ
  Basis Set:
  @DF-RHF Final Energy:  -286.13456195237882
    Total Energy =                       -286.1345619523789310
  Basis Set: CC-PVTZ
  Basis Set:
  Basis Set: CC-PVTZ
  Basis Set:
  @DF-RHF Final Energy:  -286.13490422625046
    Total Energy =                       -286.1349042262503417
  Basis Set: CC-PVTZ
  Basis Set:
  @DF-RHF Final Energy:  -286.13509025249988
    Total Energy =                       -286.1350902524994240
  @DF-RHF Final Energy:  -286.13518835136892
    Total Energy =                       -286.1351883513688108
  @DF-RHF Final Energy:  -286.13527883186384
    Total Energy =                       -286.1352788318639000
  @DF-RHF Final Energy:  -286.13538950750853
    Total Energy =                       -286.1353895075083074
  @DF-RHF Final Energy:  -286.13550416745784
    Total Energy =                       -286.1355041674579525
  @DF-RHF Final Energy:  -286.13557750427026
    Total Energy =                       -286.1355775042703726
  Basis Set: CC-PVTZ
  Basis Set:
  @DF-RHF Final Energy:  -286.13559762882630
    Total Energy =                       -286.1355976288260763
  Basis Set: CC-PVTZ
  Basis Set:
  Basis Set: CC-PVTZ
  Basis Set:
  @DF-RHF Final Energy:  -286.13560874026984
    Total Energy =                       -286.1356087402699018
  Basis Set: CC-PVTZ
  Basis Set:
  Basis Set: CC-PVTZ
  Basis Set:
  @DF-RHF Final Energy:  -286.13560996625915
    Total Energy =                       -286.1356099662592669
  Basis Set: CC-PVTZ
  Basis Set:
  Charge       = 0
  Multiplicity = 1
  Basis Set: CC-PVTZ
  Basis Set:

    Orbital Energies (a.u.)
    -----------------------

    Doubly Occupied:

       1A    -20.504372     2A    -15.578189     3A    -11.334818
       4A    -11.263921     5A    -11.246522     6A    -11.226560
       7A     -1.387931     8A     -1.245950     9A     -1.015025
      10A     -0.973159    11A     -0.920324    12A     -0.738863
      13A     -0.683074    14A     -0.661625    15A     -0.653847
      16A     -0.590160    17A     -0.578332    18A     -0.568148
      19A     -0.562103    20A     -0.547986    21A     -0.530348
      22A     -0.506343    23A     -0.414357    24A     -0.370991

  @DF-RHF Final Energy:  -286.13561001945413

   => Energetics <=

    Nuclear Repulsion Energy =            252.9696084130405609
    One-Electron Energy =                -890.0045392453052955
    Two-Electron Energy =                 350.8993208128104015
    DFT Exchange-Correlation Energy =       0.0000000000000000
    Empirical Dispersion Energy =           0.0000000000000000
    PCM Polarization Energy =               0.0000000000000000
    EFP Energy =                            0.0000000000000000
    Total Energy =                       -286.1356100194543615
    Molecular point group: c1
  Basis Set: CC-PVTZ
  Basis Set:

  -Total Gradient:
     Atom            X                  Y                   Z
    ------   -----------------  -----------------  -----------------
       1       -0.000002124277     0.000002428098    -0.000003341636
       2       -0.000015979330     0.000021251747     0.000167525576
       3        0.000002177907     0.000005093021     0.000013325569
       4        0.000004007553    -0.000049123716    -0.000277776337
       5        0.000000885738    -0.000000321111    -0.000006208941
       6        0.000000206865     0.000000598724    -0.000001591161
       7        0.000000905896    -0.000000234711    -0.000003766500
       8        0.000056335726     0.000121288810     0.000295543953
       9        0.000007277937    -0.000000381267    -0.000009265175
      10       -0.000049579499    -0.000091504143    -0.000172538748
      11       -0.000002261981    -0.000003334900    -0.000002164975
      12       -0.000002514988     0.000001654716    -0.000001866994
      13        0.000005748111     0.000000248481    -0.000000176944
      14       -0.000000702486    -0.000003642543     0.000001157191
      15       -0.000004383169    -0.000004021206     0.000001145122

  **** Optimization is complete! (in 14 steps) ****
    Final optimized geometry and variables:
    Molecular point group: c1

    Geometry (in Angstrom), charge = 0, multiplicity = 1:

    O            1.362426856117     1.029511909621    -0.113601802535
    C            0.218911306091     0.673605536580    -0.114283676476
    C           -0.892715646062     1.693337810454    -0.250597788900
    N           -0.125704599345    -0.637464835240    -0.018523105485
    H           -1.520476206254     1.709969239519     0.631914024699
    H           -0.431045300255     2.658778728739    -0.374613099812
    H           -1.520787002624     1.482779801248    -1.106886847780
    C            0.923512744972    -1.607927117448     0.215252454456
    C           -1.467759821178    -1.098704032456     0.246982895677
    H            1.843658889726    -1.260484013302    -0.219308907637
    H            0.645200455208    -2.549198017534    -0.241212212467
    H            1.083852066665    -1.775954393650     1.277099834929
    H           -1.643769801860    -1.244530511999     1.310466567153
    H           -2.205594249288    -0.410466352012    -0.127937603189
    H           -1.624028472716    -2.048231405804    -0.248388222701

  Mulliken Charges: (a.u.)
   Center  Symbol    Alpha    Beta     Spin     Total
       1     O     4.21982  4.21982  0.00000 -0.43964
       2     C     2.84515  2.84515  0.00000  0.30971
       3     C     3.16083  3.16083  0.00000 -0.32166
       4     N     3.56320  3.56320  0.00000 -0.12640
       5     H     0.44904  0.44904  0.00000  0.10192
       6     H     0.42865  0.42865  0.00000  0.14270
       7     H     0.44886  0.44886  0.00000  0.10228
       8     C     3.09658  3.09658  0.00000 -0.19317
       9     C     3.09557  3.09557  0.00000 -0.19113
      10     H     0.42832  0.42832  0.00000  0.14336
      11     H     0.45730  0.45730  0.00000  0.08540
      12     H     0.45706  0.45706  0.00000  0.08588
      13     H     0.45532  0.45532  0.00000  0.08937
      14     H     0.44521  0.44521  0.00000  0.10957
      15     H     0.44910  0.44910  0.00000  0.10180

   Total alpha = 24.00000, Total beta = 24.00000, Total charge = -0.00000
