  ==> Input File <==

--------------------------------------------------------------------------
set {
	reference rhf
	basis 6-31G*
}

set_num_threads( 4 )
memory 2 gb

molecule MOL {
0 1

H	 -3.108377	 -0.333184	 0.027110
C	 -2.907052	 0.556856	 -0.565712
O	 -1.556000	 0.664541	 -0.879401
H	 -3.453451	 0.488594	 -1.496265
H	 -3.260758	 1.426511	 -0.013426
C	 -0.719715	 0.768384	 0.229244
C	 0.719720	 0.768376	 -0.229267
H	 -0.923293	 1.692827	 0.771145
H	 -0.878251	 -0.063139	 0.912939
O	 1.392611	 -0.295398	 0.366430
H	 0.750534	 0.687200	 -1.313918
H	 1.185043	 1.714359	 0.050526
C	 2.706965	 -0.449871	 -0.062409
H	 2.756559	 -0.644779	 -1.131878
H	 3.305899	 0.433456	 0.155466
H	 3.125548	 -1.294566	 0.467107

	symmetry c1
}
set optking {
	frozen_dihedral = ("
		3 6 7 11
	")
}

ee = optimize('scf')
oeprop('DIPOLE', 'QUADRUPOLE', 'MULLIKEN_CHARGES')
f=open( 'psi4out.xyz', 'w' )
f.write( "16  " )
f.write( str(ee) + "\n" )
f.write( MOL.save_string_xyz() )
f.close()
--------------------------------------------------------------------------

    Molecular point group: c1
  Charge       = 0
  Multiplicity = 1
  Basis Set: 6-31G*
  Basis Set:
  @DF-RHF Final Energy:  -306.97343067637962
    Total Energy =                       -306.9734306763796781
    Molecular point group: c1
  Basis Set: 6-31G*
  Basis Set:
  Basis Set: 6-31G*
  Basis Set:
  @DF-RHF Final Energy:  -306.97393707483252
    Total Energy =                       -306.9739370748326337
  Basis Set: 6-31G*
  Basis Set:
  Basis Set: 6-31G*
  Basis Set:
  @DF-RHF Final Energy:  -306.97400866707886
    Total Energy =                       -306.9740086670788060
  Basis Set: 6-31G*
  Basis Set:
  Charge       = 0
  Multiplicity = 1
  Basis Set: 6-31G*
  Basis Set:

    Orbital Energies (a.u.)
    -----------------------

    Doubly Occupied:

       1A    -20.556574     2A    -20.556470     3A    -11.267861
       4A    -11.267251     5A    -11.265318     6A    -11.265279
       7A     -1.387053     8A     -1.374678     9A     -1.027239
      10A     -0.939180    11A     -0.885848    12A     -0.831070
      13A     -0.685784    14A     -0.677220    15A     -0.656815
      16A     -0.642248    17A     -0.627044    18A     -0.598980
      19A     -0.556436    20A     -0.528704    21A     -0.507949
      22A     -0.480580    23A     -0.465520    24A     -0.420590
      25A     -0.411556

  @DF-RHF Final Energy:  -306.97401342223714

   => Energetics <=

    Nuclear Repulsion Energy =            255.3329325822954559
    One-Electron Energy =                -924.8474005033190224
    Two-Electron Energy =                 362.5404544987864028
    DFT Exchange-Correlation Energy =       0.0000000000000000
    Empirical Dispersion Energy =           0.0000000000000000
    PCM Polarization Energy =               0.0000000000000000
    EFP Energy =                            0.0000000000000000
    Total Energy =                       -306.9740134222371353
    Molecular point group: c1
  Basis Set: 6-31G*
  Basis Set:

  -Total Gradient:
     Atom            X                  Y                   Z
    ------   -----------------  -----------------  -----------------
       1       -0.000009115732     0.000010769865     0.000001844801
       2       -0.000035021053    -0.000025410649    -0.000064971206
       3        0.000098653856    -0.000371280958     0.000176959022
       4       -0.000035071774     0.000001168067     0.000012493842
       5        0.000002671917    -0.000000471424     0.000003698778
       6       -0.000118223505     0.000658246564    -0.000215750517
       7        0.000077322708    -0.000830336229     0.000095488971
       8        0.000001288190     0.000011350344     0.000027984297
       9        0.000022002049    -0.000015113313     0.000013093805
      10       -0.000005183575     0.000091969497    -0.000011879978
      11       -0.000046278660     0.000531777682    -0.000057290836
      12       -0.000007000775    -0.000007085536     0.000003283836
      13        0.000001626061    -0.000065393444     0.000028428522
      14        0.000014922628     0.000006102230     0.000001026811
      15        0.000000719236     0.000002782554    -0.000003064457
      16        0.000036688435     0.000000924750    -0.000011345690

  **** Optimization is complete! (in 4 steps) ****
    Final optimized geometry and variables:
    Molecular point group: c1

    Geometry (in Angstrom), charge = 0, multiplicity = 1:

    H           -3.095919649818    -0.588387555020     0.273927801207
    C           -2.863375130784     0.265522609627    -0.359467514388
    O           -1.510239563382     0.307045450359    -0.681713069972
    H           -3.417154542176     0.177287202425    -1.284048453129
    H           -3.179218662591     1.171729499907     0.154897104964
    C           -0.665498364681     0.420364099856     0.425474864831
    C            0.784076118124     0.426791530491    -0.053749014002
    H           -0.900151514845     1.330491094293     0.975115739830
    H           -0.802453235412    -0.420566236694     1.099401073114
    O            1.463094549997    -0.643430066281     0.533966102043
    H            0.790890644942     0.341427380472    -1.136663160426
    H            1.277308048857     1.361529511853     0.208393351910
    C            2.795750932158    -0.749147551425     0.147405677014
    H            2.888270054557    -0.899396663841    -0.926498077552
    H            3.362282072237     0.139614089068     0.420687850786
    H            3.217677110941    -1.603557989285     0.658546312503

  Mulliken Charges: (a.u.)
   Center  Symbol    Alpha    Beta     Spin     Total
       1     H     0.42810  0.42810  0.00000  0.14380
       2     C     3.08045  3.08045  0.00000 -0.16091
       3     O     4.30735  4.30735  0.00000 -0.61469
       4     H     0.41161  0.41161  0.00000  0.17679
       5     H     0.43040  0.43040  0.00000  0.13920
       6     C     3.00005  3.00005  0.00000 -0.00010
       7     C     2.99998  2.99998  0.00000  0.00005
       8     H     0.42940  0.42940  0.00000  0.14120
       9     H     0.41268  0.41268  0.00000  0.17465
      10     O     4.30726  4.30726  0.00000 -0.61453
      11     H     0.41265  0.41265  0.00000  0.17469
      12     H     0.42958  0.42958  0.00000  0.14085
      13     C     3.08047  3.08047  0.00000 -0.16094
      14     H     0.42805  0.42805  0.00000  0.14389
      15     H     0.43038  0.43038  0.00000  0.13924
      16     H     0.41159  0.41159  0.00000  0.17681

   Total alpha = 25.00000, Total beta = 25.00000, Total charge =  0.00000
