                              Psi4 1.0.54 Driver

  ==> Input File <==

--------------------------------------------------------------------------
set {
	reference rhf
	basis cc-pvtz
}

set_num_threads( 4 )
memory 2 gb

molecule MOL {
0 1

H	 -3.258660	 -0.290394	 1.471450
C	 -3.307964	 -0.275695	 0.374072
C	 -2.653809	 0.914422	 -0.273689
O	 -3.855140	 -1.148880	 -0.205112
C	 -2.883974	 0.966718	 -1.786951
H	 -3.009935	 1.811817	 0.215383
H	 -1.587435	 0.827391	 -0.077278
C	 -4.337084	 1.228372	 -2.177070
H	 -2.253402	 1.744963	 -2.202948
H	 -2.547681	 0.034626	 -2.234506
C	 -4.548822	 1.288604	 -3.687474
H	 -4.661812	 2.163612	 -1.728756
H	 -4.975953	 0.456264	 -1.756212
C	 -6.000903	 1.562389	 -4.074447
H	 -3.902271	 2.055269	 -4.102855
H	 -4.232042	 0.347628	 -4.131900
C	 -6.277713	 1.550739	 -5.578821
H	 -6.307367	 2.520947	 -3.662097
H	 -6.632488	 0.814932	 -3.602522
C	 -5.605317	 2.676654	 -6.360669
H	 -7.350756	 1.616111	 -5.729476
H	 -5.972688	 0.592860	 -5.992019
H	 -5.886923	 3.647362	 -5.965170
H	 -4.524782	 2.606381	 -6.326181
H	 -5.899143	 2.648519	 -7.403664

	symmetry c1
}
set optking {
	frozen_dihedral = ("
		6 3 2 4
	")
}

ee,wfn = optimize('scf', return_wfn=True)
oeprop( wfn, 'DIPOLE', 'QUADRUPOLE', 'MULLIKEN_CHARGES')
f=open( 'psi4out.xyz', 'w' )
f.write( "25  " )
f.write( str(ee) + "\n" )
f.write( MOL.save_string_xyz() )
f.close()
--------------------------------------------------------------------------

    Molecular point group: c1
  Charge       = 0
  Multiplicity = 1
  Basis Set: CC-PVTZ
  Basis Set:
  @DF-RHF Final Energy:  -387.26013541359276
    Total Energy =                       -387.2601354135931615
    Molecular point group: c1
  Basis Set: CC-PVTZ
  Basis Set:
  Basis Set: CC-PVTZ
  Basis Set:
  @DF-RHF Final Energy:  -387.26052394299097
    Total Energy =                       -387.2605239429908579
  Basis Set: CC-PVTZ
  Basis Set:
  Basis Set: CC-PVTZ
  Basis Set:
  @DF-RHF Final Energy:  -386.95575675116868
    Total Energy =                       -386.9557567511684510
  Basis Set: CC-PVTZ
  Basis Set:
  Basis Set: CC-PVTZ
  Basis Set:
  @DF-RHF Final Energy:  -387.12249831249989
    Total Energy =                       -387.1224983124993742
  Basis Set: CC-PVTZ
  Basis Set:
  @DF-RHF Final Energy:  -387.24503625265515
    Total Energy =                       -387.2450362526553818
  @DF-RHF Final Energy:  -387.25995148547378
    Total Energy =                       -387.2599514854737208
  @DF-RHF Final Energy:  -387.26109791598719
    Total Energy =                       -387.2610979159875342
  Basis Set: CC-PVTZ
  Basis Set:
  @DF-RHF Final Energy:  -387.26127622831018
    Total Energy =                       -387.2612762283099528
  Basis Set: CC-PVTZ
  Basis Set:
  Basis Set: CC-PVTZ
  Basis Set:
  @DF-RHF Final Energy:  -387.26128566435995
    Total Energy =                       -387.2612856643598889
  Basis Set: CC-PVTZ
  Basis Set:
  Basis Set: CC-PVTZ
  Basis Set:
  @DF-RHF Final Energy:  -387.26129465398805
    Total Energy =                       -387.2612946539877612
  Basis Set: CC-PVTZ
  Basis Set:
  Charge       = 0
  Multiplicity = 1
  Basis Set: CC-PVTZ
  Basis Set:

    Orbital Energies (a.u.)
    -----------------------

    Doubly Occupied:

       1A    -20.553041     2A    -11.323319     3A    -11.236485
       4A    -11.220444     5A    -11.211380     6A    -11.211297
       7A    -11.209628     8A    -11.208984     9A    -11.204769
      10A     -1.408746    11A     -1.096770    12A     -1.065247
      13A     -1.011043    14A     -0.942788    15A     -0.876976
      16A     -0.816722    17A     -0.777056    18A     -0.764556
      19A     -0.689576    20A     -0.649841    21A     -0.631150
      22A     -0.624797    23A     -0.606822    24A     -0.590227
      25A     -0.563773    26A     -0.547345    27A     -0.535294
      28A     -0.519880    29A     -0.502962    30A     -0.498092
      31A     -0.481142    32A     -0.472736    33A     -0.458637
      34A     -0.453097    35A     -0.437625    36A     -0.413275

  @DF-RHF Final Energy:  -387.26130488905113

   => Energetics <=

    Nuclear Repulsion Energy =            444.0646269063732348
    One-Electron Energy =               -1405.0208234236017688
    Two-Electron Energy =                 573.6948916281779702
    DFT Exchange-Correlation Energy =       0.0000000000000000
    Empirical Dispersion Energy =           0.0000000000000000
    PCM Polarization Energy =               0.0000000000000000
    EFP Energy =                            0.0000000000000000
    Total Energy =                       -387.2613048890506207
    Molecular point group: c1
  Basis Set: CC-PVTZ
  Basis Set:

  -Total Gradient:
     Atom            X                  Y                   Z
    ------   -----------------  -----------------  -----------------
       1        0.000002840800     0.000018124403    -0.000065269327
       2        0.000182963793    -0.000076460228     0.000012532563
       3        0.000008632484    -0.000023786345     0.000142113379
       4       -0.000133949532     0.000049205856     0.000035970535
       5        0.000004872591     0.000006021201    -0.000032294732
       6       -0.000064332527     0.000010056464    -0.000105381680
       7       -0.000008269138     0.000010433000    -0.000001440899
       8        0.000032806487     0.000038684119    -0.000038733020
       9       -0.000000238970     0.000000559317     0.000004164611
      10       -0.000000533703     0.000004723047    -0.000000922276
      11       -0.000040948655    -0.000020185468     0.000020410709
      12       -0.000003849003     0.000005106241     0.000016204180
      13       -0.000019951402    -0.000033785033     0.000003957147
      14        0.000020167900     0.000008367943     0.000005466799
      15        0.000004656425     0.000015733525    -0.000002954135
      16        0.000010698919    -0.000002384313    -0.000008254478
      17        0.000010420272     0.000007064727     0.000006674226
      18       -0.000002061943     0.000002963644     0.000008286206
      19       -0.000008792797    -0.000010226814     0.000000315470
      20        0.000023409547    -0.000023810573    -0.000009464290
      21        0.000017667762     0.000006699518     0.000008626622
      22       -0.000001997101     0.000004304489    -0.000003222940
      23       -0.000009839701     0.000007784027     0.000009599390
      24       -0.000022516033    -0.000005478229    -0.000009353251
      25       -0.000001856473     0.000000285479     0.000002969193

  **** Optimization is complete! (in 11 steps) ****
    Final optimized geometry and variables:
    Molecular point group: c1

    Geometry (in Angstrom), charge = 0, multiplicity = 1:

    H            0.918154999812    -2.142064443423     3.876790963092
    C            1.018467207533    -1.804318737883     2.837809088771
    C            1.097322051825    -0.309772556875     2.672806736729
    O            1.073932414136    -2.596050895649     1.961488456078
    C            1.142240739826     0.191322690822     1.233174312181
    H            0.260208299014     0.121888962288     3.217435674783
    H            1.985906163569     0.000499520711     3.219886364111
    C           -0.196388472500     0.095150992567     0.503975894001
    H            1.468221418430     1.226817326232     1.243284525231
    H            1.894002673930    -0.368307283777     0.688741439283
    C           -0.125212682895     0.597175484088    -0.935610205324
    H           -0.940356177054     0.673729839714     1.048026094918
    H           -0.537050179481    -0.934005910001     0.508369454690
    C           -1.467182990239     0.516194655706    -1.660551422638
    H            0.236721994859     1.620953342644    -0.936429021132
    H            0.610737323797     0.010928756330    -1.480637567831
    C           -1.427316809719     0.923675797955    -3.134394635018
    H           -2.195409430693     1.133834017006    -1.139229793348
    H           -1.834311137252    -0.504202856520    -1.595757831536
    C           -1.110218712227     2.396584783624    -3.381525675372
    H           -2.391606722221     0.696987678038    -3.578770515803
    H           -0.701418323792     0.306311451979    -3.656868164125
    H           -1.815863651704     3.038916037934    -2.864036416189
    H           -0.114954702810     2.659711466742    -3.044295257550
    H           -1.167127228130     2.629862067477    -4.438665050644

  Mulliken Charges: (a.u.)
   Center  Symbol    Alpha    Beta     Spin     Total
       1     H     0.45045  0.45045  0.00000  0.09910
       2     C     2.91742  2.91742  0.00000  0.16516
       3     C     3.10726  3.10726  0.00000 -0.21452
       4     O     4.16802  4.16802  0.00000 -0.33604
       5     C     3.09143  3.09143  0.00000 -0.18286
       6     H     0.44567  0.44567  0.00000  0.10866
       7     H     0.43646  0.43646  0.00000  0.12708
       8     C     3.09075  3.09075  0.00000 -0.18150
       9     H     0.44623  0.44623  0.00000  0.10754
      10     H     0.44568  0.44568  0.00000  0.10865
      11     C     3.09364  3.09364  0.00000 -0.18729
      12     H     0.45771  0.45771  0.00000  0.08458
      13     H     0.44281  0.44281  0.00000  0.11439
      14     C     3.09488  3.09488  0.00000 -0.18976
      15     H     0.45413  0.45413  0.00000  0.09174
      16     H     0.45205  0.45205  0.00000  0.09590
      17     C     3.09049  3.09049  0.00000 -0.18098
      18     H     0.45538  0.45538  0.00000  0.08924
      19     H     0.44805  0.44805  0.00000  0.10389
      20     C     3.15273  3.15273  0.00000 -0.30546
      21     H     0.44867  0.44867  0.00000  0.10266
      22     H     0.45411  0.45411  0.00000  0.09179
      23     H     0.45553  0.45553  0.00000  0.08893
      24     H     0.45400  0.45400  0.00000  0.09201
      25     H     0.44645  0.44645  0.00000  0.10710

   Total alpha = 36.00000, Total beta = 36.00000, Total charge = -0.00000

*** Psi4 exiting successfully. Buy a developer a beer!
