  ==> Input File <==

--------------------------------------------------------------------------
set {
	reference rhf
	basis 6-31G*
}

set_num_threads( 1 )
memory 2 gb

molecule MOL {
0 1

O	 1.660559	 1.621666	 -0.470427
C	 1.159295	 1.069610	 -1.396217
C	 -0.152489	 0.323721	 -1.369036
O	 1.703004	 1.041836	 -2.606484
C	 -0.823008	 0.326187	 0.001381
H	 -0.795427	 0.770056	 -2.122781
H	 0.042954	 -0.689345	 -1.709944
C	 -2.149452	 -0.435131	 -0.000098
H	 -0.986465	 1.351593	 0.317631
H	 -0.147786	 -0.110284	 0.730680
C	 -3.368779	 0.488503	 -0.000883
H	 -2.193746	 -1.087250	 -0.871175
H	 -2.195311	 -1.087803	 0.870418
C	 -4.693822	 -0.272754	 -0.001129
H	 -3.325798	 1.139422	 -0.871284
H	 -3.326423	 1.139959	 0.869145
H	 -4.781274	 -0.907928	 -0.878124
H	 -5.538651	 0.408946	 -0.001420
H	 -4.781694	 -0.907783	 0.875984
C	 2.940993	 1.709292	 -2.770312
H	 2.838835	 2.760720	 -2.543177
H	 3.213925	 1.575071	 -3.805381
H	 3.693426	 1.278232	 -2.125689

	symmetry c1
}
set optking {
	frozen_dihedral = ("
		15 11 8 12,
		1 2 3 6,
		9 5 3 6,
		1 2 4 20
	")
}

ee = energy('scf')
oeprop('DIPOLE', 'QUADRUPOLE', 'MULLIKEN_CHARGES')
f=open( 'psi4out.xyz', 'w' )
f.write( "23  " )
f.write( str(ee) + "\n" )
f.write( MOL.save_string_xyz() )
f.close()
--------------------------------------------------------------------------

    Molecular point group: c1

    Geometry (in Angstrom), charge = 0, multiplicity = 1:

       Center              X                  Y                   Z               Mass
    ------------   -----------------  -----------------  -----------------  -----------------
           O          2.042372845553     0.954535131008     0.505778451119    15.994914619560
           C          1.541108845553     0.402479131008    -0.420011548881    12.000000000000
           C          0.229324845553    -0.343409868992    -0.392830548881    12.000000000000
           O          2.084817845553     0.374705131008    -1.630278548881    15.994914619560
           C         -0.441194154447    -0.340943868992     0.977586451119    12.000000000000
           H         -0.413613154447     0.102925131008    -1.146575548881     1.007825032070
           H          0.424767845553    -1.356475868992    -0.733738548881     1.007825032070
           C         -1.767638154447    -1.102261868992     0.976107451119    12.000000000000
           H         -0.604651154447     0.684462131008     1.293836451119     1.007825032070
           H          0.234027845553    -0.777414868992     1.706885451119     1.007825032070
           C         -2.986965154447    -0.178627868992     0.975322451119    12.000000000000
           H         -1.811932154447    -1.754380868992     0.105030451119     1.007825032070
           H         -1.813497154447    -1.754933868992     1.846623451119     1.007825032070
           C         -4.312008154447    -0.939884868992     0.975076451119    12.000000000000
           H         -2.943984154447     0.472291131008     0.104921451119     1.007825032070
           H         -2.944609154447     0.472828131008     1.845350451119     1.007825032070
           H         -4.399460154447    -1.575058868992     0.098081451119     1.007825032070
           H         -5.156837154447    -0.258184868992     0.974785451119     1.007825032070
           H         -4.399880154447    -1.574913868992     1.852189451119     1.007825032070
           C          3.322806845553     1.042161131008    -1.794106548881    12.000000000000
           H          3.220648845553     2.093589131008    -1.566971548881     1.007825032070
           H          3.595738845553     0.907940131008    -2.829175548881     1.007825032070
           H          4.075239845553     0.611101131008    -1.149483548881     1.007825032070

  Charge       = 0
  Multiplicity = 1
  Basis Set: 6-31G*
  Basis Set:

    Orbital Energies (a.u.)
    -----------------------

    Doubly Occupied:

       1A    -20.603481     2A    -20.545334     3A    -11.371854
       4A    -11.280755     5A    -11.235783     6A    -11.217884
       7A    -11.217773     8A    -11.216348     9A    -11.209896
      10A     -1.469188    11A     -1.362621    12A     -1.094145
      13A     -1.042778    14A     -0.986952    15A     -0.932210
      16A     -0.845904    17A     -0.794340    18A     -0.767206
      19A     -0.700853    20A     -0.682234    21A     -0.672463
      22A     -0.634360    23A     -0.623695    24A     -0.598776
      25A     -0.573471    26A     -0.559198    27A     -0.556005
      28A     -0.528412    29A     -0.521069    30A     -0.497440
      31A     -0.496982    32A     -0.471315    33A     -0.464477
      34A     -0.458008    35A     -0.450892    36A     -0.435613

  @DF-RHF Final Energy:  -422.97136944257090

   => Energetics <=

    Nuclear Repulsion Energy =            455.3688442883138805
    One-Electron Energy =               -1478.4410777133584816
    Two-Electron Energy =                 600.1008639824723332
    DFT Exchange-Correlation Energy =       0.0000000000000000
    Empirical Dispersion Energy =           0.0000000000000000
    PCM Polarization Energy =               0.0000000000000000
    EFP Energy =                            0.0000000000000000
    Total Energy =                       -422.9713694425722679

  Mulliken Charges: (a.u.)
   Center  Symbol    Alpha    Beta     Spin     Total
       1     O     4.28592  4.28592  0.00000 -0.57185
       2     C     2.60560  2.60560  0.00000  0.78880
       3     C     3.20986  3.20986  0.00000 -0.41973
       4     O     4.30737  4.30737  0.00000 -0.61475
       5     C     3.15530  3.15530  0.00000 -0.31060
       6     H     0.40058  0.40058  0.00000  0.19883
       7     H     0.40014  0.40014  0.00000  0.19973
       8     C     3.15690  3.15690  0.00000 -0.31379
       9     H     0.40940  0.40940  0.00000  0.18121
      10     H     0.40934  0.40934  0.00000  0.18132
      11     C     3.15325  3.15325  0.00000 -0.30651
      12     H     0.42290  0.42290  0.00000  0.15420
      13     H     0.41845  0.41845  0.00000  0.16309
      14     C     3.23997  3.23997  0.00000 -0.47994
      15     H     0.42402  0.42402  0.00000  0.15197
      16     H     0.42007  0.42007  0.00000  0.15987
      17     H     0.42194  0.42194  0.00000  0.15611
      18     H     0.41879  0.41879  0.00000  0.16242
      19     H     0.42106  0.42106  0.00000  0.15787
      20     C     3.09245  3.09245  0.00000 -0.18491
      21     H     0.40908  0.40908  0.00000  0.18184
      22     H     0.40849  0.40849  0.00000  0.18302
      23     H     0.40910  0.40910  0.00000  0.18179

   Total alpha = 36.00000, Total beta = 36.00000, Total charge = -0.00000
