  ==> Input File <==

--------------------------------------------------------------------------
set {
	reference rhf
	basis 6-31G*
}

set_num_threads( 1 )
memory 2 gb

molecule MOL {
0 1

O	 0.749854	 1.307668	 -0.000040
C	 0.576249	 0.131685	 -0.000108
C	 -0.766779	 -0.556801	 -0.000461
O	 1.568443	 -0.749345	 -0.000005
C	 -1.945214	 0.412366	 0.000161
H	 -0.796911	 -1.211249	 -0.867467
H	 -0.796854	 -1.212390	 0.865687
C	 -3.287791	 -0.317055	 0.000105
H	 -1.876087	 1.060580	 -0.866812
H	 -1.875822	 1.059691	 0.867761
H	 -3.394745	 -0.949193	 -0.877058
H	 -4.111778	 0.388953	 0.000015
H	 -3.394954	 -0.949187	 0.877259
C	 1.223947	 -2.105249	 -0.219215
H	 0.550571	 -2.455311	 0.549916
H	 2.151531	 -2.654904	 -0.182668
H	 0.754348	 -2.226749	 -1.184733

	symmetry c1
}
set optking {
	frozen_dihedral = ("
		1 2 3 6,
		9 5 3 6
	")
}

ee = energy('scf')
oeprop('DIPOLE', 'QUADRUPOLE', 'MULLIKEN_CHARGES')
f=open( 'psi4out.xyz', 'w' )
f.write( "17  " )
f.write( str(ee) + "\n" )
f.write( MOL.save_string_xyz() )
f.close()
--------------------------------------------------------------------------

    Molecular point group: c1

    Geometry (in Angstrom), charge = 0, multiplicity = 1:

       Center              X                  Y                   Z               Mass
    ------------   -----------------  -----------------  -----------------  -----------------
           O          1.006593248752     1.596805167758     0.033853431177    15.994914619560
           C          0.832988248752     0.420822167758     0.033785431177    12.000000000000
           C         -0.510039751248    -0.267663832242     0.033432431177    12.000000000000
           O          1.825182248752    -0.460207832242     0.033888431177    15.994914619560
           C         -1.688474751248     0.701503167758     0.034054431177    12.000000000000
           H         -0.540171751248    -0.922111832242    -0.833573568823     1.007825032070
           H         -0.540114751248    -0.923252832242     0.899580431177     1.007825032070
           C         -3.031051751248    -0.027917832242     0.033998431177    12.000000000000
           H         -1.619347751248     1.349717167758    -0.832918568823     1.007825032070
           H         -1.619082751248     1.348828167758     0.901654431177     1.007825032070
           H         -3.138005751248    -0.660055832242    -0.843164568823     1.007825032070
           H         -3.855038751248     0.678090167758     0.033908431177     1.007825032070
           H         -3.138214751248    -0.660049832242     0.911152431177     1.007825032070
           C          1.480686248752    -1.816111832242    -0.185321568823    12.000000000000
           H          0.807310248752    -2.166173832242     0.583809431177     1.007825032070
           H          2.408270248752    -2.365766832242    -0.148774568823     1.007825032070
           H          1.011087248752    -1.937611832242    -1.150839568823     1.007825032070

  Charge       = 0
  Multiplicity = 1
  Basis Set: 6-31G*
  Basis Set:

    Orbital Energies (a.u.)
    -----------------------

    Doubly Occupied:

       1A    -20.608687     2A    -20.543592     3A    -11.375226
       4A    -11.297958     5A    -11.243087     6A    -11.225998
       7A    -11.219134     8A     -1.469227     9A     -1.369421
      10A     -1.084751    11A     -0.989932    12A     -0.978598
      13A     -0.844828    14A     -0.762569    15A     -0.707808
      16A     -0.702074    17A     -0.677509    18A     -0.637351
      19A     -0.603761    20A     -0.580460    21A     -0.570156
      22A     -0.550968    23A     -0.540269    24A     -0.499789
      25A     -0.490872    26A     -0.485026    27A     -0.449971
      28A     -0.430032

  @DF-RHF Final Energy:  -344.87938513984949

   => Energetics <=

    Nuclear Repulsion Energy =            317.6145600595907013
    One-Electron Energy =               -1099.1097975000295719
    Two-Electron Energy =                 436.6158523005887560
    DFT Exchange-Correlation Energy =       0.0000000000000000
    Empirical Dispersion Energy =           0.0000000000000000
    PCM Polarization Energy =               0.0000000000000000
    EFP Energy =                            0.0000000000000000
    Total Energy =                       -344.8793851398500578

  Mulliken Charges: (a.u.)
   Center  Symbol    Alpha    Beta     Spin     Total
       1     O     4.27335  4.27335  0.00000 -0.54671
       2     C     2.58837  2.58837  0.00000  0.82327
       3     C     3.24528  3.24528  0.00000 -0.49057
       4     O     4.30062  4.30062  0.00000 -0.60124
       5     C     3.14676  3.14676  0.00000 -0.29353
       6     H     0.40384  0.40384  0.00000  0.19231
       7     H     0.40088  0.40088  0.00000  0.19823
       8     C     3.24284  3.24284  0.00000 -0.48568
       9     H     0.40917  0.40917  0.00000  0.18166
      10     H     0.40868  0.40868  0.00000  0.18264
      11     H     0.42270  0.42270  0.00000  0.15460
      12     H     0.41358  0.41358  0.00000  0.17284
      13     H     0.42234  0.42234  0.00000  0.15532
      14     C     3.10085  3.10085  0.00000 -0.20169
      15     H     0.41421  0.41421  0.00000  0.17158
      16     H     0.39449  0.39449  0.00000  0.21103
      17     H     0.41203  0.41203  0.00000  0.17594

   Total alpha = 28.00000, Total beta = 28.00000, Total charge = -0.00000
