  ==> Input File <==

--------------------------------------------------------------------------
set {
	reference rhf
	basis 6-31G*
}

set_num_threads( 4 )
memory 2 gb

molecule MOL {
0 1

H	 -3.161837	 0.500524	 -0.000234
C	 -2.367097	 -0.232926	 -0.000000
O	 -1.158440	 0.455814	 -0.000122
H	 -2.468853	 -0.861886	 -0.882833
H	 -2.468942	 -0.861421	 0.883154
C	 -0.029776	 -0.365156	 0.000148
C	 1.212217	 0.508981	 0.000007
H	 -0.036772	 -1.013236	 -0.877259
H	 -0.036869	 -1.012778	 0.877897
C	 2.008974	 0.392105	 -1.298607
H	 0.908495	 1.538608	 0.162131
H	 1.831160	 0.227916	 0.846536
H	 1.414429	 0.692558	 -2.156901
H	 2.889279	 1.025471	 -1.271110
H	 2.343114	 -0.627719	 -1.468054

	symmetry c1
}
set optking {
	frozen_dihedral = ("
		11 7 6 8
	")
}

ee = optimize('scf')
oeprop('DIPOLE', 'QUADRUPOLE', 'MULLIKEN_CHARGES')
f=open( 'psi4out.xyz', 'w' )
f.write( "15  " )
f.write( str(ee) + "\n" )
f.write( MOL.save_string_xyz() )
f.close()
--------------------------------------------------------------------------

    Molecular point group: c1
  Charge       = 0
  Multiplicity = 1
  Basis Set: 6-31G*
  Basis Set:
  @DF-RHF Final Energy:  -232.13326102946223
    Total Energy =                       -232.1332610294624601
    Molecular point group: c1
  Basis Set: 6-31G*
  Basis Set:
  Basis Set: 6-31G*
  Basis Set:
  @DF-RHF Final Energy:  -232.13367007680932
    Total Energy =                       -232.1336700768092669
  Basis Set: 6-31G*
  Basis Set:
  Basis Set: 6-31G*
  Basis Set:
  @DF-RHF Final Energy:  -232.13381262011129
    Total Energy =                       -232.1338126201111436
  Basis Set: 6-31G*
  Basis Set:
  Basis Set: 6-31G*
  Basis Set:
  @DF-RHF Final Energy:  -232.13381529702590
    Total Energy =                       -232.1338152970257624
  Basis Set: 6-31G*
  Basis Set:
  Charge       = 0
  Multiplicity = 1
  Basis Set: 6-31G*
  Basis Set:

    Orbital Energies (a.u.)
    -----------------------

    Doubly Occupied:

       1A    -20.552925     2A    -11.266613     3A    -11.263394
       4A    -11.214062     5A    -11.209623     6A     -1.376965
       7A     -1.052866     8A     -0.952992     9A     -0.879194
      10A     -0.807603    11A     -0.668833    12A     -0.658189
      13A     -0.631173    14A     -0.589556    15A     -0.575949
      16A     -0.545558    17A     -0.489879    18A     -0.488598
      19A     -0.481988    20A     -0.460824    21A     -0.411278

  @DF-RHF Final Energy:  -232.13381553565776

   => Energetics <=

    Nuclear Repulsion Energy =            190.4580936484270239
    One-Electron Energy =                -692.0276949065571443
    Two-Electron Energy =                 269.4357857224723602
    DFT Exchange-Correlation Energy =       0.0000000000000000
    Empirical Dispersion Energy =           0.0000000000000000
    PCM Polarization Energy =               0.0000000000000000
    EFP Energy =                            0.0000000000000000
    Total Energy =                       -232.1338155356577317
    Molecular point group: c1
  Basis Set: 6-31G*
  Basis Set:

  -Total Gradient:
     Atom            X                  Y                   Z
    ------   -----------------  -----------------  -----------------
       1        0.000014653344     0.000007098829     0.000001134551
       2       -0.000011240343    -0.000024758298    -0.000002375941
       3        0.000021713168    -0.000012300749    -0.000001013556
       4       -0.000003017289     0.000002109881    -0.000002880726
       5       -0.000002631882     0.000002900882     0.000003456275
       6        0.001271992596    -0.001849147283     0.000967023608
       7        0.000004361135     0.000080754620     0.002294159938
       8       -0.001073229676     0.001542183323    -0.001126082061
       9        0.000008468607     0.000005786948    -0.000000862337
      10       -0.000013882733     0.000003339631     0.000004873824
      11       -0.000204973616     0.000264314472    -0.002134709825
      12       -0.000016977987    -0.000022821614    -0.000007990039
      13        0.000002092608    -0.000012107718     0.000000728586
      14        0.000001269441     0.000006170345    -0.000000799138
      15        0.000001402629     0.000006476731     0.000005336841

  **** Optimization is complete! (in 5 steps) ****
    Final optimized geometry and variables:
    Molecular point group: c1

    Geometry (in Angstrom), charge = 0, multiplicity = 1:

    H           -3.062486417652     0.369611026989     0.231580964977
    C           -2.271154974579    -0.367477257258     0.247759134530
    O           -1.059650232886     0.315039698813     0.261633162570
    H           -2.363380543781    -1.001626801168    -0.632644080659
    H           -2.389303993252    -0.990585551696     1.132926254948
    C            0.065242771864    -0.518441776808     0.286661780517
    C            1.328962449943     0.351185110520     0.269637331030
    H            0.038494235312    -1.174040607587    -0.583528577974
    H            0.031926904730    -1.150158903655     1.172971709236
    C            2.107345469605     0.263010329536    -1.043969721238
    H            1.015614597679     1.376339062642     0.428432436927
    H            1.979682896269     0.081053369351     1.095631040060
    H            1.481585752167     0.551539689790    -1.883310022785
    H            2.971118663303     0.920254554823    -1.031074748041
    H            2.464055056883    -0.746928195129    -1.226708295200

  Mulliken Charges: (a.u.)
   Center  Symbol    Alpha    Beta     Spin     Total
       1     H     0.41236  0.41236  0.00000  0.17528
       2     C     3.07959  3.07959  0.00000 -0.15918
       3     O     4.30543  4.30543  0.00000 -0.61087
       4     H     0.43074  0.43074  0.00000  0.13851
       5     H     0.43071  0.43071  0.00000  0.13858
       6     C     2.98928  2.98928  0.00000  0.02143
       7     C     3.16594  3.16594  0.00000 -0.33188
       8     H     0.42986  0.42986  0.00000  0.14027
       9     H     0.42987  0.42987  0.00000  0.14025
      10     C     3.24430  3.24430  0.00000 -0.48861
      11     H     0.40294  0.40294  0.00000  0.19412
      12     H     0.42005  0.42005  0.00000  0.15989
      13     H     0.41684  0.41684  0.00000  0.16632
      14     H     0.41892  0.41892  0.00000  0.16216
      15     H     0.42314  0.42314  0.00000  0.15372

   Total alpha = 21.00000, Total beta = 21.00000, Total charge =  0.00000
