  ==> Input File <==

--------------------------------------------------------------------------
set {
	reference rhf
	basis 6-31G*
}

set_num_threads( 1 )
memory 2 gb

molecule MOL {
0 1

O	 -0.174557	 0.462173	 -0.943240
C	 0.486307	 0.169203	 0.000779
C	 1.608116	 -0.841643	 0.000302
O	 0.318989	 0.702220	 1.203071
C	 2.990107	 -0.200498	 -0.000684
H	 1.468623	 -1.481519	 -0.865924
H	 1.469683	 -1.481289	 0.866878
H	 3.129736	 0.423364	 -0.875135
H	 3.757882	 -0.966877	 -0.001197
H	 3.130964	 0.423383	 0.873533
C	 -0.709431	 1.675357	 1.353923
C	 -0.700519	 2.124663	 2.799729
H	 -1.656926	 1.232461	 1.078819
H	 -0.518318	 2.497985	 0.678387
H	 -0.887940	 1.288454	 3.463646
H	 -1.472820	 2.870055	 2.959704
H	 0.256851	 2.560984	 3.061115

	symmetry c1
}
set optking {
	frozen_dihedral = ("
		2 4 11 13,
		11 4 2 3
	")
}

ee = energy('scf')
oeprop('DIPOLE', 'QUADRUPOLE', 'MULLIKEN_CHARGES')
f=open( 'psi4out.xyz', 'w' )
f.write( "17  " )
f.write( str(ee) + "\n" )
f.write( MOL.save_string_xyz() )
f.close()
--------------------------------------------------------------------------

    Molecular point group: c1

    Geometry (in Angstrom), charge = 0, multiplicity = 1:

       Center              X                  Y                   Z               Mass
    ------------   -----------------  -----------------  -----------------  -----------------
           O         -0.714890239352    -0.137172053826    -1.583325920507    15.994914619560
           C         -0.054026239352    -0.430142053826    -0.639306920507    12.000000000000
           C          1.067782760648    -1.440988053826    -0.639783920507    12.000000000000
           O         -0.221344239352     0.102874946174     0.562985079493    15.994914619560
           C          2.449773760648    -0.799843053826    -0.640769920507    12.000000000000
           H          0.928289760648    -2.080864053826    -1.506009920507     1.007825032070
           H          0.929349760648    -2.080634053826     0.226792079493     1.007825032070
           H          2.589402760648    -0.175981053826    -1.515220920507     1.007825032070
           H          3.217548760648    -1.566222053826    -0.641282920507     1.007825032070
           H          2.590630760648    -0.175962053826     0.233447079493     1.007825032070
           C         -1.249764239352     1.076011946174     0.713837079493    12.000000000000
           C         -1.240852239352     1.525317946174     2.159643079493    12.000000000000
           H         -2.197259239352     0.633115946174     0.438733079493     1.007825032070
           H         -1.058651239352     1.898639946174     0.038301079493     1.007825032070
           H         -1.428273239352     0.689108946174     2.823560079493     1.007825032070
           H         -2.013153239352     2.270709946174     2.319618079493     1.007825032070
           H         -0.283482239352     1.961638946174     2.421029079493     1.007825032070

  Charge       = 0
  Multiplicity = 1
  Basis Set: 6-31G*
  Basis Set:

    Orbital Energies (a.u.)
    -----------------------

    Doubly Occupied:

       1A    -20.601468     2A    -20.542912     3A    -11.370263
       4A    -11.284663     5A    -11.235944     6A    -11.226417
       7A    -11.222456     8A     -1.467198     9A     -1.360791
      10A     -1.073574    11A     -1.031411    12A     -0.909153
      13A     -0.855232    14A     -0.777356    15A     -0.692934
      16A     -0.680770    17A     -0.669341    18A     -0.614667
      19A     -0.597606    20A     -0.574926    21A     -0.553817
      22A     -0.541827    23A     -0.528721    24A     -0.505950
      25A     -0.502404    26A     -0.498460    27A     -0.451405
      28A     -0.431120

  @DF-RHF Final Energy:  -344.90989763779754

   => Energetics <=

    Nuclear Repulsion Energy =            316.5091860880355057
    One-Electron Energy =               -1097.2326373374737614
    Two-Electron Energy =                 435.8135536116400317
    DFT Exchange-Correlation Energy =       0.0000000000000000
    Empirical Dispersion Energy =           0.0000000000000000
    PCM Polarization Energy =               0.0000000000000000
    EFP Energy =                            0.0000000000000000
    Total Energy =                       -344.9098976377982808

  Mulliken Charges: (a.u.)
   Center  Symbol    Alpha    Beta     Spin     Total
       1     O     4.28496  4.28496  0.00000 -0.56993
       2     C     2.61563  2.61563  0.00000  0.76873
       3     C     3.19409  3.19409  0.00000 -0.38817
       4     O     4.30908  4.30908  0.00000 -0.61815
       5     C     3.24945  3.24945  0.00000 -0.49890
       6     H     0.40010  0.40010  0.00000  0.19980
       7     H     0.40473  0.40473  0.00000  0.19054
       8     H     0.40981  0.40981  0.00000  0.18038
       9     H     0.41165  0.41165  0.00000  0.17669
      10     H     0.40904  0.40904  0.00000  0.18191
      11     C     3.00241  3.00241  0.00000 -0.00483
      12     C     3.24851  3.24851  0.00000 -0.49701
      13     H     0.40993  0.40993  0.00000  0.18013
      14     H     0.41032  0.41032  0.00000  0.17935
      15     H     0.41185  0.41185  0.00000  0.17629
      16     H     0.41623  0.41623  0.00000  0.16754
      17     H     0.41219  0.41219  0.00000  0.17561

   Total alpha = 28.00000, Total beta = 28.00000, Total charge =  0.00000
