  ==> Input File <==

--------------------------------------------------------------------------
set {
	reference rhf
	basis 6-31G*
}

set_num_threads( 1 )
memory 2 gb

molecule MOL {
0 1

O	 -2.042549	 -1.228399	 -0.269030
C	 -1.653912	 -0.146171	 0.050137
C	 -0.332303	 0.024011	 0.778412
C	 -2.438579	 1.106236	 -0.272369
C	 0.845713	 -0.001731	 -0.208243
H	 -0.323783	 0.953829	 1.340327
H	 -0.235459	 -0.796807	 1.480410
C	 1.827510	 1.149139	 0.016714
H	 0.471315	 0.041029	 -1.229556
H	 1.362365	 -0.951315	 -0.105766
C	 3.004679	 1.120870	 -0.957288
H	 1.301755	 2.096767	 -0.078194
H	 2.200928	 1.106453	 1.037158
H	 2.664948	 1.196381	 -1.986333
H	 3.569210	 0.197958	 -0.862522
H	 3.685323	 1.945869	 -0.772552
H	 -3.277823	 0.863061	 -0.908988
H	 -1.806773	 1.843019	 -0.759671
H	 -2.802853	 1.554979	 0.648059

	symmetry c1
}
set optking {
	frozen_dihedral = ("
		11 8 5 9,
		5 3 2 4
	")
}

ee = energy('scf')
oeprop('DIPOLE', 'QUADRUPOLE', 'MULLIKEN_CHARGES')
f=open( 'psi4out.xyz', 'w' )
f.write( "19  " )
f.write( str(ee) + "\n" )
f.write( MOL.save_string_xyz() )
f.close()
--------------------------------------------------------------------------

    Molecular point group: c1

    Geometry (in Angstrom), charge = 0, multiplicity = 1:

       Center              X                  Y                   Z               Mass
    ------------   -----------------  -----------------  -----------------  -----------------
           O         -1.934937914584    -1.523236989812    -0.132855139811    15.994914619560
           C         -1.546300914584    -0.441008989812     0.186311860189    12.000000000000
           C         -0.224691914584    -0.270826989812     0.914586860189    12.000000000000
           C         -2.330967914584     0.811398010188    -0.136194139811    12.000000000000
           C          0.953324085416    -0.296568989812    -0.072068139811    12.000000000000
           H         -0.216171914584     0.658991010188     1.476501860189     1.007825032070
           H         -0.127847914584    -1.091644989812     1.616584860189     1.007825032070
           C          1.935121085416     0.854301010188     0.152888860189    12.000000000000
           H          0.578926085416    -0.253808989812    -1.093381139811     1.007825032070
           H          1.469976085416    -1.246152989812     0.030408860189     1.007825032070
           C          3.112290085416     0.826032010188    -0.821113139811    12.000000000000
           H          1.409366085416     1.801929010188     0.057980860189     1.007825032070
           H          2.308539085416     0.811615010188     1.173332860189     1.007825032070
           H          2.772559085416     0.901543010188    -1.850158139811     1.007825032070
           H          3.676821085416    -0.096879989812    -0.726347139811     1.007825032070
           H          3.792934085416     1.651031010188    -0.636377139811     1.007825032070
           H         -3.170211914584     0.568223010188    -0.772813139811     1.007825032070
           H         -1.699161914584     1.548181010188    -0.623496139811     1.007825032070
           H         -2.695241914584     1.260141010188     0.784233860189     1.007825032070

  Charge       = 0
  Multiplicity = 1
  Basis Set: 6-31G*
  Basis Set:

    Orbital Energies (a.u.)
    -----------------------

    Doubly Occupied:

       1A    -20.546322     2A    -11.324359     3A    -11.229949
       4A    -11.228712     5A    -11.227870     6A    -11.226389
       7A    -11.215583     8A     -1.392519     9A     -1.092427
      10A     -1.028871    11A     -0.984448    12A     -0.890143
      13A     -0.808578    14A     -0.734659    15A     -0.659412
      16A     -0.647250    17A     -0.621842    18A     -0.611660
      19A     -0.585044    20A     -0.575762    21A     -0.556099
      22A     -0.533512    23A     -0.512086    24A     -0.504962
      25A     -0.481887    26A     -0.475101    27A     -0.463739
      28A     -0.396337

  @DF-RHF Final Energy:  -309.05965098690496

   => Energetics <=

    Nuclear Repulsion Energy =            303.0147302607709321
    One-Electron Energy =               -1019.0377543524712110
    Two-Electron Energy =                 406.9633731047949823
    DFT Exchange-Correlation Energy =       0.0000000000000000
    Empirical Dispersion Energy =           0.0000000000000000
    PCM Polarization Energy =               0.0000000000000000
    EFP Energy =                            0.0000000000000000
    Total Energy =                       -309.0596509869053534

  Mulliken Charges: (a.u.)
   Center  Symbol    Alpha    Beta     Spin     Total
       1     O     4.26169  4.26169  0.00000 -0.52338
       2     C     2.74146  2.74146  0.00000  0.51707
       3     C     3.20210  3.20210  0.00000 -0.40421
       4     C     3.28939  3.28939  0.00000 -0.57879
       5     C     3.15726  3.15726  0.00000 -0.31452
       6     H     0.41442  0.41442  0.00000  0.17117
       7     H     0.39911  0.39911  0.00000  0.20178
       8     C     3.15548  3.15548  0.00000 -0.31096
       9     H     0.41468  0.41468  0.00000  0.17064
      10     H     0.40942  0.40942  0.00000  0.18115
      11     C     3.24071  3.24071  0.00000 -0.48143
      12     H     0.42331  0.42331  0.00000  0.15337
      13     H     0.41998  0.41998  0.00000  0.16003
      14     H     0.42014  0.42014  0.00000  0.15973
      15     H     0.41932  0.41932  0.00000  0.16136
      16     H     0.41770  0.41770  0.00000  0.16461
      17     H     0.39695  0.39695  0.00000  0.20609
      18     H     0.41037  0.41037  0.00000  0.17927
      19     H     0.40649  0.40649  0.00000  0.18701

   Total alpha = 28.00000, Total beta = 28.00000, Total charge =  0.00000
