  ==> Input File <==

--------------------------------------------------------------------------
set {
	reference rhf
	basis 6-31G*
}

set_num_threads( 4 )
memory 2 gb

molecule MOL {
0 1

H	 1.136379	 0.211822	 1.465562
C	 1.135357	 0.094285	 0.374742
C	 0.065331	 0.871482	 -0.349150
O	 1.941633	 -0.601957	 -0.151457
C	 -0.765785	 1.747107	 0.599538
H	 -0.559191	 0.170468	 -0.890874
H	 0.566195	 1.507249	 -1.077914
C	 -1.619199	 0.937975	 1.576990
H	 -1.407672	 2.387602	 0.003083
H	 -0.103844	 2.410922	 1.151647
H	 -2.312355	 0.293220	 1.045623
H	 -2.198529	 1.594099	 2.218235
H	 -1.009659	 0.306334	 2.216428

	symmetry c1
}
set optking {
	frozen_dihedral = ("
		6 3 2 4
	")
}

ee = optimize('scf')
oeprop('DIPOLE', 'QUADRUPOLE', 'MULLIKEN_CHARGES')
f=open( 'psi4out.xyz', 'w' )
f.write( "13  " )
f.write( str(ee) + "\n" )
f.write( MOL.save_string_xyz() )
f.close()
--------------------------------------------------------------------------

    Molecular point group: c1
  Charge       = 0
  Multiplicity = 1
  Basis Set: 6-31G*
  Basis Set:
  @DF-RHF Final Energy:  -230.98216990994052
    Total Energy =                       -230.9821699099404668
    Molecular point group: c1
  Basis Set: 6-31G*
  Basis Set:
  Basis Set: 6-31G*
  Basis Set:
  @DF-RHF Final Energy:  -230.98217386084681
    Total Energy =                       -230.9821738608469559
  Basis Set: 6-31G*
  Basis Set:
  Basis Set: 6-31G*
  Basis Set:
  @DF-RHF Final Energy:  -230.98196645927067
    Total Energy =                       -230.9819664592705521
  Basis Set: 6-31G*
  Basis Set:
  Basis Set: 6-31G*
  Basis Set:
  @DF-RHF Final Energy:  -230.98283335860236
    Total Energy =                       -230.9828333586021358
  Basis Set: 6-31G*
  Basis Set:
  Basis Set: 6-31G*
  Basis Set:
  @DF-RHF Final Energy:  -230.98265072244229
    Total Energy =                       -230.9826507224422301
  Basis Set: 6-31G*
  Basis Set:
  Basis Set: 6-31G*
  Basis Set:
  @DF-RHF Final Energy:  -230.98293153657104
    Total Energy =                       -230.9829315365711864
  Basis Set: 6-31G*
  Basis Set:
  Basis Set: 6-31G*
  Basis Set:
  @DF-RHF Final Energy:  -230.98293297275626
    Total Energy =                       -230.9829329727561458
  Basis Set: 6-31G*
  Basis Set:
  Charge       = 0
  Multiplicity = 1
  Basis Set: 6-31G*
  Basis Set:

    Orbital Energies (a.u.)
    -----------------------

    Doubly Occupied:

       1A    -20.561595     2A    -11.328129     3A    -11.236988
       4A    -11.236087     5A    -11.225181     6A     -1.402719
       7A     -1.087140     8A     -0.972275     9A     -0.848947
      10A     -0.792484    11A     -0.661621    12A     -0.650377
      13A     -0.625664    14A     -0.592815    15A     -0.575947
      16A     -0.525259    17A     -0.508170    18A     -0.493514
      19A     -0.482771    20A     -0.409711

  @DF-RHF Final Energy:  -230.98293320988887

   => Energetics <=

    Nuclear Repulsion Energy =            172.1573544247406744
    One-Electron Energy =                -653.8457864772944959
    Two-Electron Energy =                 250.7054988426649800
    DFT Exchange-Correlation Energy =       0.0000000000000000
    Empirical Dispersion Energy =           0.0000000000000000
    PCM Polarization Energy =               0.0000000000000000
    EFP Energy =                            0.0000000000000000
    Total Energy =                       -230.9829332098888415
    Molecular point group: c1
  Basis Set: 6-31G*
  Basis Set:

  -Total Gradient:
     Atom            X                  Y                   Z
    ------   -----------------  -----------------  -----------------
       1        0.000000961648     0.000002861521     0.000014772520
       2       -0.000762526590    -0.000842155398     0.000259088590
       3        0.000701016827     0.000324198318    -0.000757521700
       4        0.000461404517     0.000577559075    -0.000098169563
       5       -0.000016279790    -0.000023631918    -0.000024482843
       6       -0.000392058409    -0.000049746263     0.000591639199
       7       -0.000009246085    -0.000003878222    -0.000006167339
       8       -0.000011918422     0.000030672213    -0.000000394497
       9       -0.000001602253     0.000018399431     0.000010210094
      10        0.000007226667    -0.000021543602     0.000004516482
      11        0.000015995518    -0.000005714996     0.000000187896
      12       -0.000013728871    -0.000002817993     0.000002778422
      13        0.000020755243    -0.000004202165     0.000003542742

  **** Optimization is complete! (in 8 steps) ****
    Final optimized geometry and variables:
    Molecular point group: c1

    Geometry (in Angstrom), charge = 0, multiplicity = 1:

    H            1.119413986270    -0.363308977407     1.040445042963
    C            1.031203160012    -0.495149803416    -0.043995145630
    C           -0.091819493123     0.255435124046    -0.728856777129
    O            1.807300180055    -1.182813546113    -0.623864756688
    C           -0.920737004836     1.137496062717     0.207879182382
    H           -0.724447106146    -0.478879913459    -1.221333971392
    H            0.363156956010     0.845966445452    -1.518868894654
    C           -1.822434202410     0.342641159096     1.154383872170
    H           -1.534484673128     1.802540148289    -0.391527493557
    H           -0.256976503371     1.778353320638     0.784701829335
    H           -2.530758144936    -0.262740012507     0.596411282560
    H           -2.388862193194     1.006163997009     1.799368834081
    H           -1.252818479588    -0.325484392822     1.793972416288

  Mulliken Charges: (a.u.)
   Center  Symbol    Alpha    Beta     Spin     Total
       1     H     0.42855  0.42855  0.00000  0.14290
       2     C     2.83696  2.83696  0.00000  0.32609
       3     C     3.20616  3.20616  0.00000 -0.41231
       4     O     4.24057  4.24057  0.00000 -0.48114
       5     C     3.16702  3.16702  0.00000 -0.33404
       6     H     0.39968  0.39968  0.00000  0.20064
       7     H     0.39670  0.39670  0.00000  0.20659
       8     C     3.24350  3.24350  0.00000 -0.48700
       9     H     0.41188  0.41188  0.00000  0.17624
      10     H     0.41803  0.41803  0.00000  0.16394
      11     H     0.41728  0.41728  0.00000  0.16543
      12     H     0.41373  0.41373  0.00000  0.17255
      13     H     0.41995  0.41995  0.00000  0.16011

   Total alpha = 20.00000, Total beta = 20.00000, Total charge = -0.00000
