  ==> Input File <==

--------------------------------------------------------------------------
set {
	reference rhf
	basis 6-31G*
}

set_num_threads( 1 )
memory 2 gb

molecule MOL {
0 1

H	 -2.410653	 0.000862	 0.740251
N	 -1.852125	 0.165761	 -0.074816
C	 -0.563778	 -0.502042	 0.037919
H	 -1.728543	 1.157983	 -0.145372
C	 0.575259	 0.508231	 -0.048326
H	 -0.482092	 -1.204004	 -0.786564
H	 -0.460411	 -1.085169	 0.956626
C	 1.954651	 -0.143624	 0.035137
H	 0.475158	 1.060484	 -0.977307
H	 0.469181	 1.234488	 0.755973
H	 2.103292	 -0.853109	 -0.774172
H	 2.742821	 0.599562	 -0.030094
H	 2.083613	 -0.679371	 0.971560

	symmetry c1
}
set optking {
	frozen_dihedral = ("
		6 3 5 9
	")
}

ee = energy('scf')
oeprop('DIPOLE', 'QUADRUPOLE', 'MULLIKEN_CHARGES')
f=open( 'psi4out.xyz', 'w' )
f.write( "13  " )
f.write( str(ee) + "\n" )
f.write( MOL.save_string_xyz() )
f.close()
--------------------------------------------------------------------------

    Molecular point group: c1

    Geometry (in Angstrom), charge = 0, multiplicity = 1:

       Center              X                  Y                   Z               Mass
    ------------   -----------------  -----------------  -----------------  -----------------
           H         -2.418649088230    -0.014466071374     0.740833835993     1.007825032070
           N         -1.860121088230     0.150432928626    -0.074233164007    14.003074004780
           C         -0.571774088230    -0.517370071374     0.038501835993    12.000000000000
           H         -1.736539088230     1.142654928626    -0.144789164007     1.007825032070
           C          0.567262911770     0.492902928626    -0.047743164007    12.000000000000
           H         -0.490088088230    -1.219332071374    -0.785981164007     1.007825032070
           H         -0.468407088230    -1.100497071374     0.957208835993     1.007825032070
           C          1.946654911770    -0.158952071374     0.035719835993    12.000000000000
           H          0.467161911770     1.045155928626    -0.976724164007     1.007825032070
           H          0.461184911770     1.219159928626     0.756555835993     1.007825032070
           H          2.095295911770    -0.868437071374    -0.773589164007     1.007825032070
           H          2.734824911770     0.584233928626    -0.029511164007     1.007825032070
           H          2.075616911770    -0.694699071374     0.972142835993     1.007825032070

  Charge       = 0
  Multiplicity = 1
  Basis Set: 6-31G*
  Basis Set:

    Orbital Energies (a.u.)
    -----------------------

    Doubly Occupied:

       1A    -15.529619     2A    -11.239202     3A    -11.218535
       4A    -11.212581     5A     -1.177347     6A     -1.037423
       7A     -0.899179     8A     -0.808891     9A     -0.661887
      10A     -0.626851    11A     -0.604327    12A     -0.553201
      13A     -0.547278    14A     -0.499865    15A     -0.483377
      16A     -0.470408    17A     -0.376161

  @DF-RHF Final Energy:  -173.27714005715501

   => Energetics <=

    Nuclear Repulsion Energy =            132.1330086512369348
    One-Electron Energy =                -494.9280092526406634
    Two-Electron Energy =                 189.5178605442487196
    DFT Exchange-Correlation Energy =       0.0000000000000000
    Empirical Dispersion Energy =           0.0000000000000000
    PCM Polarization Energy =               0.0000000000000000
    EFP Energy =                            0.0000000000000000
    Total Energy =                       -173.2771400571550089

  Mulliken Charges: (a.u.)
   Center  Symbol    Alpha    Beta     Spin     Total
       1     H     0.33272  0.33272  0.00000  0.33456
       2     N     3.92844  3.92844  0.00000 -0.85688
       3     C     3.04733  3.04733  0.00000 -0.09467
       4     H     0.33153  0.33153  0.00000  0.33694
       5     C     3.16884  3.16884  0.00000 -0.33768
       6     H     0.41987  0.41987  0.00000  0.16026
       7     H     0.42798  0.42798  0.00000  0.14404
       8     C     3.24277  3.24277  0.00000 -0.48554
       9     H     0.41790  0.41790  0.00000  0.16421
      10     H     0.42481  0.42481  0.00000  0.15037
      11     H     0.41893  0.41893  0.00000  0.16214
      12     H     0.41782  0.41782  0.00000  0.16435
      13     H     0.42106  0.42106  0.00000  0.15789

   Total alpha = 17.00000, Total beta = 17.00000, Total charge =  0.00000
