  ==> Input File <==

--------------------------------------------------------------------------
set {
	reference rhf
	basis 6-31G*
}

set_num_threads( 1 )
memory 2 gb

molecule MOL {
0 1

H	 -1.772485	 -2.217704	 -4.759210
O	 -2.118120	 -3.085001	 -4.912192
C	 -1.433830	 -4.015407	 -4.112100
C	 -1.802904	 -3.924837	 -2.635514
H	 -1.704387	 -4.990115	 -4.497349
H	 -0.357121	 -3.906170	 -4.236781
C	 -1.418133	 -2.597181	 -1.978134
H	 -2.873613	 -4.083917	 -2.537309
H	 -1.311238	 -4.743317	 -2.112329
C	 -1.752473	 -2.558211	 -0.484308
H	 -1.931206	 -1.785316	 -2.486068
H	 -0.349901	 -2.424200	 -2.109661
C	 -1.309753	 -1.282496	 0.241564
H	 -2.824719	 -2.692781	 -0.353821
H	 -1.279480	 -3.410756	 -0.001456
C	 -2.037799	 -0.007733	 -0.193645
H	 -1.467210	 -1.424432	 1.308746
H	 -0.237137	 -1.148070	 0.110178
C	 -3.489788	 0.042957	 0.286558
H	 -2.017067	 0.064384	 -1.280144
H	 -1.513726	 0.868678	 0.179924
C	 -4.216917	 1.317354	 -0.141063
H	 -4.025645	 -0.823308	 -0.095450
H	 -3.513059	 -0.038752	 1.371301
H	 -4.239342	 1.411634	 -1.223113
H	 -5.243387	 1.322503	 0.212445
H	 -3.726170	 2.201406	 0.256408

	symmetry c1
}
set optking {
	frozen_dihedral = ("
		14 10 7 4,
		14 10 13 16,
		10 7 4 8,
		8 4 3 2,
		20 16 19 22,
		4 3 2 1
	")
}

ee = energy('scf')
oeprop('DIPOLE', 'QUADRUPOLE', 'MULLIKEN_CHARGES')
f=open( 'psi4out.xyz', 'w' )
f.write( "27  " )
f.write( str(ee) + "\n" )
f.write( MOL.save_string_xyz() )
f.close()
--------------------------------------------------------------------------

    Molecular point group: c1

    Geometry (in Angstrom), charge = 0, multiplicity = 1:

       Center              X                  Y                   Z               Mass
    ------------   -----------------  -----------------  -----------------  -----------------
           H          0.410782865350    -0.421972423379    -3.151676358894     1.007825032070
           O          0.065147865350    -1.289269423379    -3.304658358894    15.994914619560
           C          0.749437865350    -2.219675423379    -2.504566358894    12.000000000000
           C          0.380363865350    -2.129105423379    -1.027980358894    12.000000000000
           H          0.478880865350    -3.194383423379    -2.889815358894     1.007825032070
           H          1.826146865350    -2.110438423379    -2.629247358894     1.007825032070
           C          0.765134865350    -0.801449423379    -0.370600358894    12.000000000000
           H         -0.690345134650    -2.288185423379    -0.929775358894     1.007825032070
           H          0.872029865350    -2.947585423379    -0.504795358894     1.007825032070
           C          0.430794865350    -0.762479423379     1.123225641106    12.000000000000
           H          0.252061865350     0.010415576621    -0.878534358894     1.007825032070
           H          1.833366865350    -0.628468423379    -0.502127358894     1.007825032070
           C          0.873514865350     0.513235576621     1.849097641106    12.000000000000
           H         -0.641451134650    -0.897049423379     1.253712641106     1.007825032070
           H          0.903787865350    -1.615024423379     1.606077641106     1.007825032070
           C          0.145468865350     1.787998576621     1.413888641106    12.000000000000
           H          0.716057865350     0.371299576621     2.916279641106     1.007825032070
           H          1.946130865350     0.647661576621     1.717711641106     1.007825032070
           C         -1.306520134650     1.838688576621     1.894091641106    12.000000000000
           H          0.166200865350     1.860115576621     0.327389641106     1.007825032070
           H          0.669541865350     2.664409576621     1.787457641106     1.007825032070
           C         -2.033649134650     3.113085576621     1.466470641106    12.000000000000
           H         -1.842377134650     0.972423576621     1.512083641106     1.007825032070
           H         -1.329791134650     1.756979576621     2.978834641106     1.007825032070
           H         -2.056074134650     3.207365576621     0.384420641106     1.007825032070
           H         -3.060119134650     3.118234576621     1.819978641106     1.007825032070
           H         -1.542902134650     3.997137576621     1.863941641106     1.007825032070

  Charge       = 0
  Multiplicity = 1
  Basis Set: 6-31G*
  Basis Set:

    Orbital Energies (a.u.)
    -----------------------

    Doubly Occupied:

       1A    -20.552584     2A    -11.267295     3A    -11.220119
       4A    -11.217029     5A    -11.215584     6A    -11.215432
       7A    -11.215114     8A    -11.213849     9A    -11.208868
      10A     -1.359319    11A     -1.096672    12A     -1.060488
      13A     -1.010064    14A     -0.949001    15A     -0.887336
      16A     -0.828585    17A     -0.803867    18A     -0.766702
      19A     -0.693792    20A     -0.654598    21A     -0.635166
      22A     -0.611576    23A     -0.602694    24A     -0.589571
      25A     -0.576280    26A     -0.564116    27A     -0.533306
      28A     -0.525005    29A     -0.510325    30A     -0.493194
      31A     -0.489483    32A     -0.481121    33A     -0.467160
      34A     -0.452606    35A     -0.447424    36A     -0.444095
      37A     -0.423984

  @DF-RHF Final Energy:  -388.27945419352864

   => Energetics <=

    Nuclear Repulsion Energy =            467.4286276200255088
    One-Electron Energy =               -1452.8496315507948111
    Two-Electron Energy =                 597.1415497372415757
    DFT Exchange-Correlation Energy =       0.0000000000000000
    Empirical Dispersion Energy =           0.0000000000000000
    PCM Polarization Energy =               0.0000000000000000
    EFP Energy =                            0.0000000000000000
    Total Energy =                       -388.2794541935277266

  Mulliken Charges: (a.u.)
   Center  Symbol    Alpha    Beta     Spin     Total
       1     H     0.27985  0.27985  0.00000  0.44030
       2     O     4.37097  4.37097  0.00000 -0.74194
       3     C     2.99741  2.99741  0.00000  0.00518
       4     C     3.16068  3.16068  0.00000 -0.32136
       5     H     0.41438  0.41438  0.00000  0.17124
       6     H     0.43194  0.43194  0.00000  0.13613
       7     C     3.16296  3.16296  0.00000 -0.32593
       8     H     0.41514  0.41514  0.00000  0.16972
       9     H     0.42418  0.42418  0.00000  0.15163
      10     C     3.15452  3.15452  0.00000 -0.30904
      11     H     0.42373  0.42373  0.00000  0.15254
      12     H     0.42510  0.42510  0.00000  0.14979
      13     C     3.15594  3.15594  0.00000 -0.31188
      14     H     0.41995  0.41995  0.00000  0.16010
      15     H     0.42082  0.42082  0.00000  0.15835
      16     C     3.15412  3.15412  0.00000 -0.30825
      17     H     0.42126  0.42126  0.00000  0.15748
      18     H     0.42225  0.42225  0.00000  0.15549
      19     C     3.15358  3.15358  0.00000 -0.30715
      20     H     0.42413  0.42413  0.00000  0.15173
      21     H     0.42095  0.42095  0.00000  0.15810
      22     C     3.23865  3.23865  0.00000 -0.47730
      23     H     0.42134  0.42134  0.00000  0.15732
      24     H     0.42295  0.42295  0.00000  0.15411
      25     H     0.42203  0.42203  0.00000  0.15593
      26     H     0.41911  0.41911  0.00000  0.16178
      27     H     0.42204  0.42204  0.00000  0.15593

   Total alpha = 37.00000, Total beta = 37.00000, Total charge =  0.00000
