  ==> Input File <==

--------------------------------------------------------------------------
set {
	reference rhf
	basis 6-31G*
}

set_num_threads( 4 )
memory 2 gb

molecule MOL {
0 1

H	 0.933250	 2.161082	 -1.195887
O	 1.228383	 1.902367	 -0.333440
C	 0.709265	 0.639550	 -0.033818
C	 -0.793441	 0.596080	 0.058728
H	 1.141164	 0.353203	 0.918375
H	 1.043747	 -0.099000	 -0.761616
C	 -1.530462	 -0.493172	 -0.025500
H	 -1.268471	 1.554324	 0.202247
H	 -1.092586	 -1.461565	 -0.186463
H	 -2.602122	 -0.450675	 0.050101

	symmetry c1
}
set optking {
	frozen_dihedral = ("
		5 3 4 7
	")
}

ee = optimize('scf')
oeprop('DIPOLE', 'QUADRUPOLE', 'MULLIKEN_CHARGES')
f=open( 'psi4out.xyz', 'w' )
f.write( "10  " )
f.write( str(ee) + "\n" )
f.write( MOL.save_string_xyz() )
f.close()
--------------------------------------------------------------------------

    Molecular point group: c1
  Charge       = 0
  Multiplicity = 1
  Basis Set: 6-31G*
  Basis Set:
  @DF-RHF Final Energy:  -191.91455348135759
    Total Energy =                       -191.9145534813575580
    Molecular point group: c1
  Basis Set: 6-31G*
  Basis Set:
  Basis Set: 6-31G*
  Basis Set:
  @DF-RHF Final Energy:  -191.91488481543598
    Total Energy =                       -191.9148848154360962
  Basis Set: 6-31G*
  Basis Set:
  Basis Set: 6-31G*
  Basis Set:
  @DF-RHF Final Energy:  -191.91496818242481
    Total Energy =                       -191.9149681824248148
  Basis Set: 6-31G*
  Basis Set:
  Basis Set: 6-31G*
  Basis Set:
  @DF-RHF Final Energy:  -191.91497138415383
    Total Energy =                       -191.9149713841538869
  Basis Set: 6-31G*
  Basis Set:
  Charge       = 0
  Multiplicity = 1
  Basis Set: 6-31G*
  Basis Set:

    Orbital Energies (a.u.)
    -----------------------

    Doubly Occupied:

       1A    -20.559959     2A    -11.277119     3A    -11.230671
       4A    -11.222961     5A     -1.367755     6A     -1.061782
       7A     -0.920148     8A     -0.775695     9A     -0.702445
      10A     -0.623749    11A     -0.622660    12A     -0.596585
      13A     -0.524113    14A     -0.497582    15A     -0.446257
      16A     -0.365962

  @DF-RHF Final Energy:  -191.91497161490759

   => Energetics <=

    Nuclear Repulsion Energy =            116.9907867293412522
    One-Electron Energy =                -492.2206287456152154
    Two-Electron Energy =                 183.3148704013663632
    DFT Exchange-Correlation Energy =       0.0000000000000000
    Empirical Dispersion Energy =           0.0000000000000000
    PCM Polarization Energy =               0.0000000000000000
    EFP Energy =                            0.0000000000000000
    Total Energy =                       -191.9149716149075857
    Molecular point group: c1
  Basis Set: 6-31G*
  Basis Set:

  -Total Gradient:
     Atom            X                  Y                   Z
    ------   -----------------  -----------------  -----------------
       1       -0.000003601407    -0.000002056385    -0.000002735760
       2       -0.000011513246    -0.000036087023     0.000008835590
       3        0.000033179535     0.003819884428     0.002665945339
       4       -0.000212214355    -0.000309453913    -0.004843969130
       5        0.000027741747    -0.003173305641    -0.000900106338
       6        0.000000972782     0.000001198326    -0.000008121924
       7        0.000177037930    -0.000309394645     0.003086957458
       8       -0.000006652114     0.000000844666    -0.000005024845
       9       -0.000004828004     0.000005845287    -0.000003245214
      10       -0.000000122872     0.000002524899     0.000001464824

  **** Optimization is complete! (in 5 steps) ****
    Final optimized geometry and variables:
    Molecular point group: c1

    Geometry (in Angstrom), charge = 0, multiplicity = 1:

    H            0.985466509965     1.424874352238    -1.104735515136
    O            1.242214479494     1.192311600878    -0.223017134307
    C            0.742753998851    -0.080097817634     0.084377058994
    C           -0.764752644751    -0.113594714466     0.155796548143
    H            1.164260610106    -0.351838429095     1.044264180545
    H            1.099863394441    -0.820616886978    -0.628728294160
    C           -1.498308846131    -1.205698500795     0.078030407165
    H           -1.232005391218     0.837783215174     0.354368952410
    H           -1.063454257892    -2.174300343071    -0.106520512619
    H           -2.566935253661    -1.176442963238     0.191994265201

  Mulliken Charges: (a.u.)
   Center  Symbol    Alpha    Beta     Spin     Total
       1     H     0.28112  0.28112  0.00000  0.43776
       2     O     4.36972  4.36972  0.00000 -0.73945
       3     C     3.00413  3.00413  0.00000 -0.00825
       4     C     3.09282  3.09282  0.00000 -0.18563
       5     H     0.40596  0.40596  0.00000  0.18808
       6     H     0.42349  0.42349  0.00000  0.15302
       7     C     3.19781  3.19781  0.00000 -0.39563
       8     H     0.40242  0.40242  0.00000  0.19515
       9     H     0.41370  0.41370  0.00000  0.17260
      10     H     0.40883  0.40883  0.00000  0.18235

   Total alpha = 16.00000, Total beta = 16.00000, Total charge = -0.00000
