                              Psi4 1.0.54 Driver

  ==> Input File <==

--------------------------------------------------------------------------
set {
	reference rhf
	basis cc-pvtz
}

set_num_threads( 4 )
memory 2 gb

molecule MOL {
0 1

H	 2.015993	 -0.773785	 -0.961549
C	 1.672861	 0.268951	 -0.936740
C	 0.692262	 0.592428	 0.156232
O	 2.072548	 1.042162	 -1.736758
C	 -0.554654	 -0.292621	 0.086567
H	 0.435518	 1.641316	 0.087286
H	 1.197867	 0.429500	 1.105809
C	 -1.846385	 0.513195	 -0.016346
H	 -0.473986	 -0.956115	 -0.769708
H	 -0.597929	 -0.929215	 0.966651
C	 -3.089953	 -0.365049	 -0.098564
H	 -1.798267	 1.154820	 -0.891143
H	 -1.925398	 1.173265	 0.842889
H	 -3.055079	 -1.012299	 -0.968245
H	 -3.988403	 0.236438	 -0.170014
H	 -3.183055	 -0.995885	 0.779079

	symmetry c1
}
set optking {
	frozen_dihedral = ("
		6 3 5 9
	")
}

ee,wfn = optimize('scf', return_wfn=True)
oeprop( wfn, 'DIPOLE', 'QUADRUPOLE', 'MULLIKEN_CHARGES')
f=open( 'psi4out.xyz', 'w' )
f.write( "16  " )
f.write( str(ee) + "\n" )
f.write( MOL.save_string_xyz() )
f.close()
--------------------------------------------------------------------------

    Molecular point group: c1
  Charge       = 0
  Multiplicity = 1
  Basis Set: CC-PVTZ
  Basis Set:
  @DF-RHF Final Energy:  -270.11399549227548
    Total Energy =                       -270.1139954922755351
    Molecular point group: c1
  Basis Set: CC-PVTZ
  Basis Set:
  Basis Set: CC-PVTZ
  Basis Set:
  @DF-RHF Final Energy:  -270.11394449241385
    Total Energy =                       -270.1139444924138502
  Basis Set: CC-PVTZ
  Basis Set:
  Basis Set: CC-PVTZ
  Basis Set:
  @DF-RHF Final Energy:  -270.11084523416343
    Total Energy =                       -270.1108452341634916
  Basis Set: CC-PVTZ
  Basis Set:
  Basis Set: CC-PVTZ
  Basis Set:
  @DF-RHF Final Energy:  -270.11427201825859
    Total Energy =                       -270.1142720182586459
  Basis Set: CC-PVTZ
  Basis Set:
  @DF-RHF Final Energy:  -270.11431755015946
    Total Energy =                       -270.1143175501593987
  Basis Set: CC-PVTZ
  Basis Set:
  @DF-RHF Final Energy:  -270.11432096019746
    Total Energy =                       -270.1143209601974604
  Basis Set: CC-PVTZ
  Basis Set:
  Basis Set: CC-PVTZ
  Basis Set:
  @DF-RHF Final Energy:  -270.11432462069172
    Total Energy =                       -270.1143246206918320
  Basis Set: CC-PVTZ
  Basis Set:
  Basis Set: CC-PVTZ
  Basis Set:
  @DF-RHF Final Energy:  -270.11432613960164
    Total Energy =                       -270.1143261396018715
  Basis Set: CC-PVTZ
  Basis Set:
  Charge       = 0
  Multiplicity = 1
  Basis Set: CC-PVTZ
  Basis Set:

    Orbital Energies (a.u.)
    -----------------------

    Doubly Occupied:

       1A    -20.551688     2A    -11.321550     3A    -11.234446
       4A    -11.233756     5A    -11.226258     6A    -11.215624
       7A     -1.406865     8A     -1.095162     9A     -1.018552
      10A     -0.906938    11A     -0.813046    12A     -0.795296
      13A     -0.674812    14A     -0.653687    15A     -0.625116
      16A     -0.605154    17A     -0.591810    18A     -0.537853
      19A     -0.529857    20A     -0.524150    21A     -0.486211
      22A     -0.482489    23A     -0.470350    24A     -0.412526

  @DF-RHF Final Energy:  -270.11432624163319

   => Energetics <=

    Nuclear Repulsion Energy =            230.3205878158221935
    One-Electron Energy =                -822.0434365246949255
    Two-Electron Energy =                 321.6085224672395384
    DFT Exchange-Correlation Energy =       0.0000000000000000
    Empirical Dispersion Energy =           0.0000000000000000
    PCM Polarization Energy =               0.0000000000000000
    EFP Energy =                            0.0000000000000000
    Total Energy =                       -270.1143262416332504
    Molecular point group: c1
  Basis Set: CC-PVTZ
  Basis Set:

  -Total Gradient:
     Atom            X                  Y                   Z
    ------   -----------------  -----------------  -----------------
       1       -0.000004436380    -0.000010913823     0.000008038283
       2        0.000008869123     0.000020077001    -0.000022508112
       3        0.000073198089    -0.000030711343    -0.000248081763
       4       -0.000016602908    -0.000012582968     0.000025303017
       5       -0.000154536999     0.000177969728    -0.000115417960
       6       -0.000021397947     0.000009021813     0.000227543401
       7        0.000003790912    -0.000001958867    -0.000009115483
       8        0.000004461959     0.000001870960     0.000001093277
       9        0.000103525035    -0.000152388305     0.000133496996
      10        0.000003326039     0.000004497096    -0.000000737805
      11       -0.000001677334    -0.000001706748    -0.000000128601
      12        0.000002393273    -0.000000791873     0.000001510565
      13        0.000000826429    -0.000001721169    -0.000001283104
      14       -0.000000865177     0.000000334727     0.000001345284
      15       -0.000000222478    -0.000000766757    -0.000000087739
      16       -0.000000651634    -0.000000229471    -0.000000970258

  **** Optimization is complete! (in 9 steps) ****
    Final optimized geometry and variables:
    Molecular point group: c1

    Geometry (in Angstrom), charge = 0, multiplicity = 1:

    H            2.132216212691    -1.080896199205    -0.596817470971
    C            1.855819551299    -0.021311161164    -0.515555155758
    C            0.868514683352     0.298450933238     0.573401926424
    O            2.327330645975     0.771745334687    -1.254425589439
    C           -0.391901267428    -0.593272697670     0.512418739408
    H            0.619747718630     1.348336320758     0.500649300321
    H            1.385442360397     0.152479960809     1.517573478932
    C           -1.685540984404     0.211199037514     0.406295285367
    H           -0.328514872030    -1.267274232627    -0.337778453773
    H           -0.438335860675    -1.229056211138     1.389175816623
    C           -2.928371187362    -0.668703364640     0.340516890608
    H           -1.640002421051     0.843494546357    -0.475408336362
    H           -1.759687094236     0.880544207270     1.258455857856
    H           -2.898164811421    -1.325547431315    -0.522341264649
    H           -3.827600014637    -0.068618319951     0.267401854138
    H           -3.016345437615    -1.290054912733     1.225515265604

  Mulliken Charges: (a.u.)
   Center  Symbol    Alpha    Beta     Spin     Total
       1     H     0.46503  0.46503  0.00000  0.06994
       2     C     2.90407  2.90407  0.00000  0.19186
       3     C     3.08726  3.08726  0.00000 -0.17452
       4     O     4.16529  4.16529  0.00000 -0.33058
       5     C     3.10154  3.10154  0.00000 -0.20308
       6     H     0.44253  0.44253  0.00000  0.11495
       7     H     0.44401  0.44401  0.00000  0.11199
       8     C     3.08391  3.08391  0.00000 -0.16782
       9     H     0.45466  0.45466  0.00000  0.09068
      10     H     0.44724  0.44724  0.00000  0.10552
      11     C     3.14953  3.14953  0.00000 -0.29906
      12     H     0.44854  0.44854  0.00000  0.10293
      13     H     0.45124  0.45124  0.00000  0.09751
      14     H     0.45390  0.45390  0.00000  0.09220
      15     H     0.44637  0.44637  0.00000  0.10727
      16     H     0.45489  0.45489  0.00000  0.09023

   Total alpha = 24.00000, Total beta = 24.00000, Total charge =  0.00000

*** Psi4 exiting successfully. Buy a developer a beer!
