  ==> Input File <==

--------------------------------------------------------------------------
set {
	reference rhf
	basis cc-pvtz
}

set_num_threads( 4 )
memory 2 gb

molecule MOL {
0 1

H	 3.442172	 0.414151	 -0.713295
C	 2.732421	 0.225749	 0.081714
C	 1.322304	 0.099773	 -0.484271
H	 3.036122	 -0.682920	 0.589116
H	 2.801601	 1.044372	 0.789110
C	 0.308557	 -0.162619	 0.622645
H	 1.278785	 -0.711927	 -1.199801
H	 1.046675	 1.008881	 -1.004355
N	 -1.069352	 -0.004081	 0.085342
H	 0.371632	 -1.172932	 0.991288
H	 0.400391	 0.548875	 1.426218
O	 -1.584901	 -0.965470	 -0.377818
O	 -1.548033	 1.079343	 0.130056

	symmetry c1
}
set optking {
	frozen_dihedral = ("
		7 3 6 9
	")
}

ee = optimize('scf')
oeprop('DIPOLE', 'QUADRUPOLE', 'MULLIKEN_CHARGES')
f=open( 'psi4out.xyz', 'w' )
f.write( "13  " )
f.write( str(ee) + "\n" )
f.write( MOL.save_string_xyz() )
f.close()
--------------------------------------------------------------------------

    Molecular point group: c1
  Charge       = 0
  Multiplicity = 1
  Basis Set: CC-PVTZ
  Basis Set:
  @DF-RHF Final Energy:  -321.86103122291320
    Total Energy =                       -321.8610312229128567
    Molecular point group: c1
  Basis Set: CC-PVTZ
  Basis Set:
  Basis Set: CC-PVTZ
  Basis Set:
  @DF-RHF Final Energy:  -321.86105519295933
    Total Energy =                       -321.8610551929595545
  Basis Set: CC-PVTZ
  Basis Set:
  Basis Set: CC-PVTZ
  Basis Set:
  @DF-RHF Final Energy:  -321.86065825891853
    Total Energy =                       -321.8606582589183631
  Basis Set: CC-PVTZ
  Basis Set:
  Basis Set: CC-PVTZ
  Basis Set:
  @DF-RHF Final Energy:  -321.86103381836688
    Total Energy =                       -321.8610338183667636
  Basis Set: CC-PVTZ
  Basis Set:
  Basis Set: CC-PVTZ
  Basis Set:
  @DF-RHF Final Energy:  -321.86107301309369
    Total Energy =                       -321.8610730130934598
  Basis Set: CC-PVTZ
  Basis Set:
  Basis Set: CC-PVTZ
  Basis Set:
  @DF-RHF Final Energy:  -321.86109165429593
    Total Energy =                       -321.8610916542958194
  Basis Set: CC-PVTZ
  Basis Set:
  Charge       = 0
  Multiplicity = 1
  Basis Set: CC-PVTZ
  Basis Set:

    Orbital Energies (a.u.)
    -----------------------

    Doubly Occupied:

       1A    -20.590344     2A    -20.590286     3A    -15.836847
       4A    -11.297285     5A    -11.254507     6A    -11.237095
       7A     -1.635902     8A     -1.420224     9A     -1.134202
      10A     -1.027880    11A     -0.883826    12A     -0.834473
      13A     -0.761550    14A     -0.738529    15A     -0.727598
      16A     -0.673317    17A     -0.604393    18A     -0.589362
      19A     -0.549961    20A     -0.520489    21A     -0.515608
      22A     -0.486677    23A     -0.474983    24A     -0.453002

  @DF-RHF Final Energy:  -321.86109252498022

   => Energetics <=

    Nuclear Repulsion Energy =            248.0384541796016720
    One-Electron Energy =                -930.1224164296377239
    Two-Electron Energy =                 360.2228697250559435
    DFT Exchange-Correlation Energy =       0.0000000000000000
    Empirical Dispersion Energy =           0.0000000000000000
    PCM Polarization Energy =               0.0000000000000000
    EFP Energy =                            0.0000000000000000
    Total Energy =                       -321.8610925249801085
    Molecular point group: c1
  Basis Set: CC-PVTZ
  Basis Set:

  -Total Gradient:
     Atom            X                  Y                   Z
    ------   -----------------  -----------------  -----------------
       1       -0.000009030439    -0.000003520555     0.000003305215
       2        0.000017013342    -0.000002718843     0.000020648744
       3       -0.001985621273     0.001951076936    -0.001336293088
       4        0.000006217301    -0.000006093871     0.000000487991
       5       -0.000006515523    -0.000001198082     0.000000641529
       6        0.000372683226    -0.002436800798    -0.000286955442
       7        0.001591398112    -0.001131146599     0.001184529326
       8       -0.000001817687    -0.000007326074     0.000014442989
       9        0.000021177359     0.001540534212     0.000407776493
      10        0.000014289614     0.000013720981    -0.000006264517
      11        0.000004485008     0.000016691491     0.000001359772
      12       -0.000013601350     0.000043608678     0.000015273281
      13       -0.000010677689     0.000023172523    -0.000018952293

  **** Optimization is complete! (in 7 steps) ****
    Final optimized geometry and variables:
    Molecular point group: c1

    Geometry (in Angstrom), charge = 0, multiplicity = 1:

    H            3.451372206941     0.337960209873    -0.725027597556
    C            2.736474899010     0.177387512357     0.071527903746
    C            1.324874905389     0.064429962361    -0.496180936235
    H            3.024070381980    -0.726976144795     0.596388874632
    H            2.817299357640     1.007280429325     0.764023775789
    C            0.312854980991    -0.203723218237     0.612523820899
    H            1.286746765111    -0.746841184141    -1.211987715146
    H            1.056503028092     0.979421419939    -1.008942480240
    N           -1.067079394987    -0.054037830959     0.078085523467
    H            0.386201387348    -1.209037262749     0.992150932192
    H            0.397529047287     0.517055123831     1.408619386924
    O           -1.565201302378    -1.010217717820    -0.414476783107
    O           -1.564854329504     1.018936674774     0.153800733022

  Mulliken Charges: (a.u.)
   Center  Symbol    Alpha    Beta     Spin     Total
       1     H     0.44187  0.44187  0.00000  0.11626
       2     C     3.15108  3.15108  0.00000 -0.30216
       3     C     3.09517  3.09517  0.00000 -0.19033
       4     H     0.45227  0.45227  0.00000  0.09547
       5     H     0.45083  0.45083  0.00000  0.09833
       6     C     3.03882  3.03882  0.00000 -0.07765
       7     H     0.43892  0.43892  0.00000  0.12217
       8     H     0.43760  0.43760  0.00000  0.12479
       9     N     3.27682  3.27682  0.00000  0.44636
      10     H     0.43350  0.43350  0.00000  0.13300
      11     H     0.43599  0.43599  0.00000  0.12803
      12     O     4.17433  4.17433  0.00000 -0.34866
      13     O     4.17281  4.17281  0.00000 -0.34561

   Total alpha = 24.00000, Total beta = 24.00000, Total charge = -0.00000
