  ==> Input File <==

--------------------------------------------------------------------------
set {
	reference rhf
	basis cc-pvtz
}

set_num_threads( 4 )
memory 2 gb

molecule MOL {
0 1

H	 2.256809	 -1.261077	 0.315481
N	 2.433987	 -0.362316	 -0.080024
C	 1.263552	 0.494993	 0.021953
H	 2.688579	 -0.505710	 -1.034989
C	 -0.016533	 -0.325589	 -0.026925
H	 1.280915	 1.180773	 -0.818522
H	 1.263064	 1.106893	 0.925038
C	 -1.280353	 0.525521	 0.047747
H	 -0.016686	 -0.912532	 -0.939714
H	 -0.014099	 -1.037598	 0.796369
C	 -2.560681	 -0.301323	 -0.007747
H	 -1.279957	 1.241025	 -0.770189
H	 -1.270445	 1.110526	 0.963468
H	 -2.617064	 -0.872870	 -0.928010
H	 -3.439525	 0.331102	 0.043462
H	 -2.609427	 -1.002736	 0.818585

	symmetry c1
}
set optking {
	frozen_dihedral = ("
		1 2 3 6
	")
}

ee = optimize('scf')
oeprop('DIPOLE', 'QUADRUPOLE', 'MULLIKEN_CHARGES')
f=open( 'psi4out.xyz', 'w' )
f.write( "16  " )
f.write( str(ee) + "\n" )
f.write( MOL.save_string_xyz() )
f.close()
--------------------------------------------------------------------------

    Molecular point group: c1
  Charge       = 0
  Multiplicity = 1
  Basis Set: CC-PVTZ
  Basis Set:
  @DF-RHF Final Energy:  -212.39701084782746
    Total Energy =                       -212.3970108478272891
    Molecular point group: c1
  Basis Set: CC-PVTZ
  Basis Set:
  Basis Set: CC-PVTZ
  Basis Set:
  @DF-RHF Final Energy:  -212.39814258661190
    Total Energy =                       -212.3981425866118116
  Basis Set: CC-PVTZ
  Basis Set:
  Basis Set: CC-PVTZ
  Basis Set:
  @DF-RHF Final Energy:  -212.39830567454922
    Total Energy =                       -212.3983056745493059
  Basis Set: CC-PVTZ
  Basis Set:
  Basis Set: CC-PVTZ
  Basis Set:
  @DF-RHF Final Energy:  -212.39830849680172
    Total Energy =                       -212.3983084968019170
  Basis Set: CC-PVTZ
  Basis Set:
  Charge       = 0
  Multiplicity = 1
  Basis Set: CC-PVTZ
  Basis Set:

    Orbital Energies (a.u.)
    -----------------------

    Doubly Occupied:

       1A    -15.525998     2A    -11.238362     3A    -11.215990
       4A    -11.212534     5A    -11.208841     6A     -1.177855
       7A     -1.063418     8A     -0.960847     9A     -0.848305
      10A     -0.797621    11A     -0.675136    12A     -0.629190
      13A     -0.598273    14A     -0.587429    15A     -0.558740
      16A     -0.523754    17A     -0.506682    18A     -0.483076
      19A     -0.472128    20A     -0.466452    21A     -0.379824

  @DF-RHF Final Energy:  -212.39830875119688

   => Energetics <=

    Nuclear Repulsion Energy =            186.4068818655908046
    One-Electron Energy =                -655.3494640954384067
    Two-Electron Energy =                 256.5442734786506662
    DFT Exchange-Correlation Energy =       0.0000000000000000
    Empirical Dispersion Energy =           0.0000000000000000
    PCM Polarization Energy =               0.0000000000000000
    EFP Energy =                            0.0000000000000000
    Total Energy =                       -212.3983087511969643
    Molecular point group: c1
  Basis Set: CC-PVTZ
  Basis Set:

  -Total Gradient:
     Atom            X                  Y                   Z
    ------   -----------------  -----------------  -----------------
       1       -0.000836703146    -0.001085457785    -0.002848655119
       2        0.000689727917     0.000904846536     0.003195752205
       3        0.001500691610     0.002101049446     0.001282421420
       4       -0.000005626855     0.000004509511    -0.000001291471
       5        0.000052889675     0.000013205288    -0.000007771505
       6       -0.001359118122    -0.001936719214    -0.001627700515
       7       -0.000007510376     0.000003642209     0.000006799649
       8        0.000018115107    -0.000007034997    -0.000009811811
       9        0.000002110182     0.000003541730     0.000003698976
      10       -0.000005026533    -0.000007150157    -0.000011370741
      11       -0.000035219682     0.000010672716     0.000021978960
      12        0.000005677706    -0.000004519708     0.000000753354
      13       -0.000009508449     0.000002361490    -0.000006710592
      14        0.000006885644     0.000009898566     0.000001022615
      15       -0.000015906917    -0.000009795444     0.000003102153
      16       -0.000001477763    -0.000003050187    -0.000002217576

  **** Optimization is complete! (in 5 steps) ****
    Final optimized geometry and variables:
    Molecular point group: c1

    Geometry (in Angstrom), charge = 0, multiplicity = 1:

    H            2.344323708591    -1.226221412769     0.347753482568
    N            2.489912105260    -0.316250248798    -0.036946661289
    C            1.270146198113     0.480026075954     0.025924820358
    H            2.768310527426    -0.457616932426    -0.984509717985
    C           -0.023518023423    -0.328528693790    -0.026036575973
    H            1.277545172726     1.173467515585    -0.807994998391
    H            1.283586723125     1.075360534809     0.933125726654
    C           -1.278623828281     0.534822929020     0.058800435309
    H           -0.042322660974    -0.910938175584    -0.944531701326
    H           -0.025533551982    -1.045730701620     0.792779148093
    C           -2.569236456661    -0.276902476429     0.019775117993
    H           -1.278861253815     1.249365342679    -0.759959753939
    H           -1.250114608474     1.120793170702     0.973238544350
    H           -2.644428514269    -0.848245184864    -0.899443706697
    H           -3.439742800601     0.365945981300     0.081366088122
    H           -2.616048566312    -0.976956427040     0.847271744826

  Mulliken Charges: (a.u.)
   Center  Symbol    Alpha    Beta     Spin     Total
       1     H     0.43066  0.43066  0.00000  0.13868
       2     N     3.69075  3.69075  0.00000 -0.38151
       3     C     3.02240  3.02240  0.00000 -0.04479
       4     H     0.43110  0.43110  0.00000  0.13779
       5     C     3.08729  3.08729  0.00000 -0.17458
       6     H     0.45831  0.45831  0.00000  0.08338
       7     H     0.45647  0.45647  0.00000  0.08707
       8     C     3.09026  3.09026  0.00000 -0.18053
       9     H     0.45878  0.45878  0.00000  0.08244
      10     H     0.45879  0.45879  0.00000  0.08243
      11     C     3.14877  3.14877  0.00000 -0.29754
      12     H     0.45447  0.45447  0.00000  0.09106
      13     H     0.45388  0.45388  0.00000  0.09225
      14     H     0.45509  0.45509  0.00000  0.08982
      15     H     0.44818  0.44818  0.00000  0.10365
      16     H     0.45481  0.45481  0.00000  0.09039

   Total alpha = 21.00000, Total beta = 21.00000, Total charge =  0.00000
