  ==> Input File <==

--------------------------------------------------------------------------
set {
	reference rhf
	basis 6-31G*
}

set_num_threads( 4 )
memory 2 gb

molecule MOL {
0 1

O	 3.225979	 0.970355	 -0.599647
C	 2.701189	 0.057885	 -0.047330
C	 1.245376	 -0.013843	 0.345420
O	 3.347903	 -1.046386	 0.304773
C	 0.455112	 1.231400	 -0.050772
H	 0.838542	 -0.913825	 -0.103701
H	 1.208210	 -0.175333	 1.419774
C	 -0.998893	 1.219485	 0.433193
H	 0.482531	 1.345121	 -1.130325
H	 0.957290	 2.103070	 0.354729
C	 -1.723953	 -0.118896	 0.265457
H	 -1.543950	 1.981423	 -0.119155
H	 -1.035419	 1.521358	 1.478921
C	 -3.200613	 -0.049104	 0.659924
H	 -1.643735	 -0.441656	 -0.771467
H	 -1.236925	 -0.886314	 0.862822
C	 -3.934013	 -1.382185	 0.501334
H	 -3.698709	 0.708070	 0.056747
H	 -3.281894	 0.283922	 1.693455
C	 -5.408967	 -1.302989	 0.893686
H	 -3.852926	 -1.716923	 -0.530663
H	 -3.440200	 -2.139289	 1.106911
H	 -5.901263	 -2.262725	 0.770564
H	 -5.939036	 -0.578577	 0.281763
H	 -5.523029	 -1.003598	 1.931775
C	 4.728119	 -1.109107	 -0.004993
H	 4.882018	 -1.033965	 -1.071845
H	 5.068212	 -2.067527	 0.355250
H	 5.265056	 -0.311663	 0.488280

	symmetry c1
}
set optking {
	frozen_dihedral = ("
		11 8 5 9
	")
}

ee = optimize('scf')
oeprop('DIPOLE', 'QUADRUPOLE', 'MULLIKEN_CHARGES')
f=open( 'psi4out.xyz', 'w' )
f.write( "29  " )
f.write( str(ee) + "\n" )
f.write( MOL.save_string_xyz() )
f.close()
--------------------------------------------------------------------------

    Molecular point group: c1
  Charge       = 0
  Multiplicity = 1
  Basis Set: 6-31G*
  Basis Set:
  @DF-RHF Final Energy:  -501.04176914893173
    Total Energy =                       -501.0417691489309391
    Molecular point group: c1
  Basis Set: 6-31G*
  Basis Set:
  Basis Set: 6-31G*
  Basis Set:
  @DF-RHF Final Energy:  -501.04195732506992
    Total Energy =                       -501.0419573250694611
  Basis Set: 6-31G*
  Basis Set:
  Basis Set: 6-31G*
  Basis Set:
  @DF-RHF Final Energy:  -501.04214901598323
    Total Energy =                       -501.0421490159832274
  Basis Set: 6-31G*
  Basis Set:
  Basis Set: 6-31G*
  Basis Set:
  @DF-RHF Final Energy:  -501.04189771551592
    Total Energy =                       -501.0418977155162565
  Basis Set: 6-31G*
  Basis Set:
  Basis Set: 6-31G*
  Basis Set:
  @DF-RHF Final Energy:  -501.04221840616049
    Total Energy =                       -501.0422184061607140
  Basis Set: 6-31G*
  Basis Set:
  Basis Set: 6-31G*
  Basis Set:
  @DF-RHF Final Energy:  -501.04219686377962
    Total Energy =                       -501.0421968637797363
  Basis Set: 6-31G*
  Basis Set:
  Basis Set: 6-31G*
  Basis Set:
  @DF-RHF Final Energy:  -501.04223345568914
    Total Energy =                       -501.0422334556890291
  Basis Set: 6-31G*
  Basis Set:
  Charge       = 0
  Multiplicity = 1
  Basis Set: 6-31G*
  Basis Set:

    Orbital Energies (a.u.)
    -----------------------

    Doubly Occupied:

       1A    -20.603411     2A    -20.545292     3A    -11.372115
       4A    -11.280694     5A    -11.235136     6A    -11.218841
       7A    -11.217656     8A    -11.216284     9A    -11.216028
      10A    -11.214593    11A    -11.209188    12A     -1.469155
      13A     -1.362602    14A     -1.097859    15A     -1.066608
      16A     -1.019151    17A     -0.977169    18A     -0.929014
      19A     -0.863613    20A     -0.798977    21A     -0.790724
      22A     -0.761452    23A     -0.700370    24A     -0.682694
      25A     -0.671788    26A     -0.653487    27A     -0.628385
      28A     -0.603908    29A     -0.593347    30A     -0.580576
      31A     -0.567552    32A     -0.551597    33A     -0.531168
      34A     -0.528218    35A     -0.518105    36A     -0.513030
      37A     -0.496912    38A     -0.479073    39A     -0.468350
      40A     -0.461442    41A     -0.458781    42A     -0.454528
      43A     -0.439971    44A     -0.436415

  @DF-RHF Final Energy:  -501.04223331047092

   => Energetics <=

    Nuclear Repulsion Energy =            611.6803380720175483
    One-Electron Energy =               -1894.4746244751270297
    Two-Electron Energy =                 781.7520530926383344
    DFT Exchange-Correlation Energy =       0.0000000000000000
    Empirical Dispersion Energy =           0.0000000000000000
    PCM Polarization Energy =               0.0000000000000000
    EFP Energy =                            0.0000000000000000
    Total Energy =                       -501.0422333104711470
    Molecular point group: c1
  Basis Set: 6-31G*
  Basis Set:

  -Total Gradient:
     Atom            X                  Y                   Z
    ------   -----------------  -----------------  -----------------
       1        0.000011493974     0.000003742577     0.000016235565
       2       -0.000005190518    -0.000025914305    -0.000054828347
       3        0.000012392428     0.000014170027     0.000049833036
       4       -0.000000349035     0.000006614187     0.000009191892
       5        0.000267466363    -0.006315954247     0.000669378266
       6       -0.000013540715    -0.000007790643     0.000002770659
       7        0.000009429692    -0.000004746171     0.000002778826
       8       -0.001560740389     0.002671928990    -0.004475668434
       9        0.000166716578     0.004735251964     0.000591077404
      10       -0.000012955851    -0.000010214607    -0.000015149032
      11        0.001103672828    -0.001055660297     0.003173378212
      12       -0.000010117138     0.000016207923     0.000012704663
      13        0.000018141390    -0.000024414106    -0.000006146168
      14        0.000001852737     0.000001288495     0.000009140694
      15        0.000011150815    -0.000007545100    -0.000000338828
      16        0.000000323422     0.000001294384     0.000005036113
      17        0.000002066843    -0.000000650310     0.000005370548
      18       -0.000005650408     0.000004091454     0.000012355534
      19        0.000008113016    -0.000008440357     0.000006067268
      20       -0.000004800434     0.000005956111    -0.000020587536
      21        0.000007973083    -0.000008057942     0.000002872082
      22       -0.000004994676     0.000005276093     0.000009085496
      23       -0.000001275098     0.000001458250    -0.000006105498
      24       -0.000005032682     0.000004349979     0.000002848505
      25        0.000005046282    -0.000004505818    -0.000002207079
      26       -0.000001508276     0.000002164400     0.000001380484
      27       -0.000000831899     0.000000108635    -0.000000340729
      28       -0.000000050493     0.000000221193     0.000000134975
      29        0.000001198146    -0.000000230760    -0.000000268569

  **** Optimization is complete! (in 8 steps) ****
    Final optimized geometry and variables:
    Molecular point group: c1

    Geometry (in Angstrom), charge = 0, multiplicity = 1:

    O            3.147924434081     1.148563552276    -0.840904905474
    C            2.649554451162     0.219241295526    -0.292347503765
    C            1.195221035671     0.099836115866     0.095378520720
    O            3.328819660083    -0.865355289617     0.059681766818
    C            0.370949278442     1.319741356232    -0.303331599158
    H            0.819490764790    -0.811967525550    -0.356377946499
    H            1.160452037103    -0.064499381416     1.169425378879
    C           -1.081978145863     1.310962908215     0.196172179171
    H            0.393921394807     1.454437289749    -1.380471961148
    H            0.859311701040     2.204801559406     0.091574686184
    C           -1.841083328472    -0.007612094735     0.019603810062
    H           -1.619144871856     2.108584301880    -0.310207608392
    H           -1.091234668840     1.567520157855     1.254505864180
    C           -3.315103847662     0.102640993106     0.414812466871
    H           -1.772635820572    -0.335087283702    -1.017371002471
    H           -1.373799677438    -0.785694971931     0.617787932820
    C           -4.082229723778    -1.212640721249     0.267664431624
    H           -3.794698881232     0.867458108825    -0.193558663876
    H           -3.386341615329     0.445752834445     1.445840592131
    C           -5.555208386558    -1.091884890748     0.656862967003
    H           -4.008440469387    -1.559187441460    -0.760996385786
    H           -3.608847640523    -1.976376156116     0.881181358062
    H           -6.071925623083    -2.039688414095     0.541605823684
    H           -6.065560775135    -0.359608214083     0.037585517721
    H           -5.662925568370    -0.780249431371     1.692009649401
    C            4.711278309481    -0.884944181961    -0.245745108673
    H            4.866151848078    -0.802939845820    -1.311954246026
    H            5.079532657911    -1.833181429505     0.113739983763
    H            5.221860425417    -0.072362257634     0.250799323412

  Mulliken Charges: (a.u.)
   Center  Symbol    Alpha    Beta     Spin     Total
       1     O     4.28582  4.28582  0.00000 -0.57164
       2     C     2.60438  2.60438  0.00000  0.79125
       3     C     3.21119  3.21119  0.00000 -0.42238
       4     O     4.30758  4.30758  0.00000 -0.61516
       5     C     3.15465  3.15465  0.00000 -0.30931
       6     H     0.39795  0.39795  0.00000  0.20410
       7     H     0.40102  0.40102  0.00000  0.19796
       8     C     3.15501  3.15501  0.00000 -0.31001
       9     H     0.41272  0.41272  0.00000  0.17457
      10     H     0.40894  0.40894  0.00000  0.18211
      11     C     3.15729  3.15729  0.00000 -0.31458
      12     H     0.41806  0.41806  0.00000  0.16388
      13     H     0.42332  0.42332  0.00000  0.15336
      14     C     3.15020  3.15020  0.00000 -0.30039
      15     H     0.42358  0.42358  0.00000  0.15284
      16     H     0.42243  0.42243  0.00000  0.15513
      17     C     3.15141  3.15141  0.00000 -0.30283
      18     H     0.42325  0.42325  0.00000  0.15349
      19     H     0.42384  0.42384  0.00000  0.15233
      20     C     3.23935  3.23935  0.00000 -0.47870
      21     H     0.42299  0.42299  0.00000  0.15401
      22     H     0.42340  0.42340  0.00000  0.15321
      23     H     0.41924  0.41924  0.00000  0.16153
      24     H     0.42155  0.42155  0.00000  0.15691
      25     H     0.42175  0.42175  0.00000  0.15650
      26     C     3.09240  3.09240  0.00000 -0.18479
      27     H     0.40907  0.40907  0.00000  0.18186
      28     H     0.40850  0.40850  0.00000  0.18301
      29     H     0.40912  0.40912  0.00000  0.18175

   Total alpha = 44.00000, Total beta = 44.00000, Total charge =  0.00000
