  ==> Input File <==

--------------------------------------------------------------------------
set {
	reference rhf
	basis 6-31G*
}

set_num_threads( 1 )
memory 2 gb

molecule MOL {
0 1

H	 -2.399516	 -0.691956	 0.935818
O	 -2.347518	 -0.290803	 0.079804
C	 -1.184022	 0.487508	 -0.006784
C	 0.062599	 -0.378592	 0.031606
H	 -1.176523	 1.099369	 -0.904519
H	 -1.187323	 1.153111	 0.844927
O	 1.171513	 0.459272	 -0.058250
H	 0.050699	 -1.089204	 -0.797170
H	 0.078739	 -0.954914	 0.954740
C	 2.397842	 -0.198080	 -0.002151
H	 2.508049	 -0.905315	 -0.822092
H	 3.173794	 0.550865	 -0.078850
H	 2.517602	 -0.735921	 0.936026

	symmetry c1
}
set optking {
	frozen_dihedral = ("
		8 4 3 5,
		10 7 4 8,
		4 7 10 13
	")
}

ee = energy('scf')
oeprop('DIPOLE', 'QUADRUPOLE', 'MULLIKEN_CHARGES')
f=open( 'psi4out.xyz', 'w' )
f.write( "13  " )
f.write( str(ee) + "\n" )
f.write( MOL.save_string_xyz() )
f.close()
--------------------------------------------------------------------------

    Molecular point group: c1

    Geometry (in Angstrom), charge = 0, multiplicity = 1:

       Center              X                  Y                   Z               Mass
    ------------   -----------------  -----------------  -----------------  -----------------
           H         -2.400835481175    -0.692460887808     0.913543229539     1.007825032070
           O         -2.348837481175    -0.291307887808     0.057529229539    15.994914619560
           C         -1.185341481175     0.487003112192    -0.029058770461    12.000000000000
           C          0.061279518825    -0.379096887808     0.009331229539    12.000000000000
           H         -1.177842481175     1.098864112192    -0.926793770461     1.007825032070
           H         -1.188642481175     1.152606112192     0.822652229539     1.007825032070
           O          1.170193518825     0.458767112192    -0.080524770461    15.994914619560
           H          0.049379518825    -1.089708887808    -0.819444770461     1.007825032070
           H          0.077419518825    -0.955418887808     0.932465229539     1.007825032070
           C          2.396522518825    -0.198584887808    -0.024425770461    12.000000000000
           H          2.506729518825    -0.905819887808    -0.844366770461     1.007825032070
           H          3.172474518825     0.550360112192    -0.101124770461     1.007825032070
           H          2.516282518825    -0.736425887808     0.913751229539     1.007825032070

  Charge       = 0
  Multiplicity = 1
  Basis Set: 6-31G*
  Basis Set:

    Orbital Energies (a.u.)
    -----------------------

    Doubly Occupied:

       1A    -20.563396     2A    -20.558591     3A    -11.272199
       4A    -11.271003     5A    -11.269584     6A     -1.389801
       7A     -1.364892     8A     -1.019057     9A     -0.913608
      10A     -0.843201    11A     -0.706801    12A     -0.675771
      13A     -0.662382    14A     -0.638787    15A     -0.597753
      16A     -0.571369    17A     -0.547386    18A     -0.489791
      19A     -0.478624    20A     -0.437829    21A     -0.422907

  @DF-RHF Final Energy:  -267.94869075053066

   => Energetics <=

    Nuclear Repulsion Energy =            190.3084484351941512
    One-Electron Energy =                -743.1247950499388253
    Two-Electron Energy =                 284.8676558642133614
    DFT Exchange-Correlation Energy =       0.0000000000000000
    Empirical Dispersion Energy =           0.0000000000000000
    PCM Polarization Energy =               0.0000000000000000
    EFP Energy =                            0.0000000000000000
    Total Energy =                       -267.9486907505313411

  Mulliken Charges: (a.u.)
   Center  Symbol    Alpha    Beta     Spin     Total
       1     H     0.28085  0.28085  0.00000  0.43829
       2     O     4.37176  4.37176  0.00000 -0.74352
       3     C     3.00318  3.00318  0.00000 -0.00636
       4     C     2.99754  2.99754  0.00000  0.00493
       5     H     0.40686  0.40686  0.00000  0.18628
       6     H     0.42355  0.42355  0.00000  0.15290
       7     O     4.30716  4.30716  0.00000 -0.61433
       8     H     0.42363  0.42363  0.00000  0.15274
       9     H     0.43792  0.43792  0.00000  0.12416
      10     C     3.08021  3.08021  0.00000 -0.16042
      11     H     0.42777  0.42777  0.00000  0.14446
      12     H     0.41046  0.41046  0.00000  0.17907
      13     H     0.42910  0.42910  0.00000  0.14180

   Total alpha = 21.00000, Total beta = 21.00000, Total charge =  0.00000
