  ==> Input File <==

--------------------------------------------------------------------------
set {
	reference rhf
	basis 6-31G*
}

set_num_threads( 4 )
memory 2 gb

molecule MOL {
0 1

O	 2.773411	 -0.393144	 -0.110583
C	 1.705091	 0.115954	 0.001797
C	 0.381791	 -0.609817	 0.001258
O	 1.535917	 1.423798	 0.150327
C	 -0.823008	 0.326187	 0.001381
H	 0.371250	 -1.265087	 -0.865474
H	 0.370908	 -1.265746	 0.867490
C	 -2.149452	 -0.435131	 -0.000098
H	 -0.770201	 0.977095	 -0.865636
H	 -0.771220	 0.975655	 0.869608
C	 -3.368779	 0.488503	 -0.000883
H	 -2.193746	 -1.087250	 -0.871175
H	 -2.195311	 -1.087803	 0.870418
C	 -4.693822	 -0.272754	 -0.001129
H	 -3.325798	 1.139422	 -0.871284
H	 -3.326423	 1.139959	 0.869145
H	 -4.781274	 -0.907928	 -0.878124
H	 -5.538651	 0.408946	 -0.001420
H	 -4.781694	 -0.907783	 0.875984
C	 2.703446	 2.224705	 0.169837
H	 3.346152	 1.939670	 0.990333
H	 2.362544	 3.240307	 0.297168
H	 3.247660	 2.125950	 -0.758378

	symmetry c1
}
set optking {
	frozen_dihedral = ("
		1 2 3 6
	")
}

ee = optimize('scf')
oeprop('DIPOLE', 'QUADRUPOLE', 'MULLIKEN_CHARGES')
f=open( 'psi4out.xyz', 'w' )
f.write( "23  " )
f.write( str(ee) + "\n" )
f.write( MOL.save_string_xyz() )
f.close()
--------------------------------------------------------------------------

    Molecular point group: c1
  Charge       = 0
  Multiplicity = 1
  Basis Set: 6-31G*
  Basis Set:
  @DF-RHF Final Energy:  -422.97226952278288
    Total Energy =                       -422.9722695227831082
    Molecular point group: c1
  Basis Set: 6-31G*
  Basis Set:
  Basis Set: 6-31G*
  Basis Set:
  @DF-RHF Final Energy:  -422.97312680256096
    Total Energy =                       -422.9731268025607278
  Basis Set: 6-31G*
  Basis Set:
  Basis Set: 6-31G*
  Basis Set:
  @DF-RHF Final Energy:  -422.97361638479958
    Total Energy =                       -422.9736163847995840
  Basis Set: 6-31G*
  Basis Set:
  Basis Set: 6-31G*
  Basis Set:
  @DF-RHF Final Energy:  -422.97361269853934
    Total Energy =                       -422.9736126985397959
  Basis Set: 6-31G*
  Basis Set:
  Basis Set: 6-31G*
  Basis Set:
  @DF-RHF Final Energy:  -422.97368505316848
    Total Energy =                       -422.9736850531693335
  Basis Set: 6-31G*
  Basis Set:
  Basis Set: 6-31G*
  Basis Set:
  @DF-RHF Final Energy:  -422.97369348501820
    Total Energy =                       -422.9736934850188845
  Basis Set: 6-31G*
  Basis Set:
  Charge       = 0
  Multiplicity = 1
  Basis Set: 6-31G*
  Basis Set:

    Orbital Energies (a.u.)
    -----------------------

    Doubly Occupied:

       1A    -20.606629     2A    -20.540020     3A    -11.372418
       4A    -11.281637     5A    -11.235750     6A    -11.223082
       7A    -11.220101     8A    -11.219019     9A    -11.211478
      10A     -1.470247    11A     -1.360696    12A     -1.095672
      13A     -1.044494    14A     -0.983002    15A     -0.936270
      16A     -0.848063    17A     -0.797106    18A     -0.774548
      19A     -0.692677    20A     -0.684534    21A     -0.669554
      22A     -0.653340    23A     -0.610385    24A     -0.592182
      25A     -0.576841    26A     -0.560770    27A     -0.557777
      28A     -0.522746    29A     -0.521686    30A     -0.506869
      31A     -0.488578    32A     -0.481237    33A     -0.469777
      34A     -0.469200    35A     -0.451259    36A     -0.425126

  @DF-RHF Final Energy:  -422.97369343124035

   => Energetics <=

    Nuclear Repulsion Energy =            455.1017208497702313
    One-Electron Energy =               -1477.8412897620908097
    Two-Electron Energy =                 599.7658754810797745
    DFT Exchange-Correlation Energy =       0.0000000000000000
    Empirical Dispersion Energy =           0.0000000000000000
    PCM Polarization Energy =               0.0000000000000000
    EFP Energy =                            0.0000000000000000
    Total Energy =                       -422.9736934312408039
    Molecular point group: c1
  Basis Set: 6-31G*
  Basis Set:

  -Total Gradient:
     Atom            X                  Y                   Z
    ------   -----------------  -----------------  -----------------
       1       -0.000012493603    -0.000013588505     0.000270289533
       2       -0.000002966273     0.000022498084    -0.000392353287
       3        0.000134499038    -0.000247546882     0.000313349382
       4        0.000023141718     0.000051740771    -0.000001430238
       5       -0.000015268136     0.000001566265    -0.000030352003
       6       -0.000105970215     0.000208598733    -0.000159433901
       7        0.000006112517    -0.000002509480     0.000003357539
       8       -0.000001832516    -0.000001820774    -0.000004027345
       9        0.000000026324    -0.000008888940    -0.000002447376
      10       -0.000006392671     0.000005431531    -0.000006803978
      11        0.000003031029     0.000000538657     0.000020788706
      12       -0.000006142664     0.000006359444    -0.000006121375
      13        0.000006187844    -0.000006409237    -0.000004293772
      14        0.000002206950    -0.000001107289     0.000000430666
      15        0.000001428601    -0.000004633389     0.000002210401
      16       -0.000002185122     0.000005179304     0.000002387487
      17        0.000001246041    -0.000001769581     0.000000824911
      18        0.000000432800     0.000000475476    -0.000002022763
      19       -0.000001042186     0.000001949944     0.000000098799
      20       -0.000026695112    -0.000014539294    -0.000006411668
      21       -0.000000779938    -0.000004037930     0.000001931142
      22        0.000002103246     0.000003282597     0.000000688206
      23        0.000001352312    -0.000000769505    -0.000000659067

  **** Optimization is complete! (in 7 steps) ****
    Final optimized geometry and variables:
    Molecular point group: c1

    Geometry (in Angstrom), charge = 0, multiplicity = 1:

    O            2.914748254788    -0.766123931510    -0.120551940161
    C            1.886133769241    -0.176870298781    -0.018800093824
    C            0.536868465481    -0.862362063297    -0.016704386026
    O            1.817712202508     1.138179401207     0.116652075723
    C           -0.697512492013     0.038201350864    -0.016999197827
    H            0.535027432581    -1.521028194767    -0.879444086742
    H            0.534976424969    -1.514754456644     0.852342375726
    C           -1.995377920455    -0.771671580385    -0.029141858751
    H           -0.669193783153     0.694024320061    -0.882157769471
    H           -0.677820197488     0.683669758923     0.855211540837
    C           -3.248340713549     0.105744626799    -0.024475560332
    H           -2.012885961184    -1.416845416923    -0.906051789212
    H           -2.018127373077    -1.433340510544     0.835371767430
    C           -4.543948532245    -0.704553884587    -0.036421593981
    H           -3.227720624708     0.766429663688    -0.888420921720
    H           -3.233117276259     0.749583965087     0.852197621137
    H           -4.604638777519    -1.334277116978    -0.919539540916
    H           -5.413708201263    -0.055027752200    -0.033330625953
    H           -4.610601168983    -1.350599512172     0.834396685676
    C            3.045216750589     1.845060952910     0.135512516511
    H            3.657625805626     1.518203151565     0.963261941956
    H            2.784094531132     2.885573772451     0.249632913284
    H            3.584598695753     1.691958665100    -0.787869353176

  Mulliken Charges: (a.u.)
   Center  Symbol    Alpha    Beta     Spin     Total
       1     O     4.28947  4.28947  0.00000 -0.57893
       2     C     2.60380  2.60380  0.00000  0.79241
       3     C     3.21237  3.21237  0.00000 -0.42474
       4     O     4.30448  4.30448  0.00000 -0.60897
       5     C     3.15106  3.15106  0.00000 -0.30212
       6     H     0.39795  0.39795  0.00000  0.20411
       7     H     0.39848  0.39848  0.00000  0.20304
       8     C     3.15396  3.15396  0.00000 -0.30792
       9     H     0.41542  0.41542  0.00000  0.16916
      10     H     0.41336  0.41336  0.00000  0.17327
      11     C     3.15148  3.15148  0.00000 -0.30296
      12     H     0.42280  0.42280  0.00000  0.15440
      13     H     0.42306  0.42306  0.00000  0.15389
      14     C     3.23961  3.23961  0.00000 -0.47923
      15     H     0.42201  0.42201  0.00000  0.15598
      16     H     0.42199  0.42199  0.00000  0.15601
      17     H     0.42128  0.42128  0.00000  0.15744
      18     H     0.41847  0.41847  0.00000  0.16306
      19     H     0.42133  0.42133  0.00000  0.15734
      20     C     3.09274  3.09274  0.00000 -0.18548
      21     H     0.40820  0.40820  0.00000  0.18359
      22     H     0.40857  0.40857  0.00000  0.18285
      23     H     0.40811  0.40811  0.00000  0.18379

   Total alpha = 36.00000, Total beta = 36.00000, Total charge = -0.00000
