  ==> Input File <==

--------------------------------------------------------------------------
set {
	reference rhf
	basis 6-31G*
}

set_num_threads( 4 )
memory 2 gb

molecule MOL {
0 1

H	 2.591676	 2.013956	 0.335017
O	 3.341076	 1.666752	 -0.126416
C	 3.569581	 0.339145	 0.272707
C	 2.539767	 -0.640285	 -0.279495
H	 4.553106	 0.084646	 -0.100901
H	 3.608576	 0.269204	 1.359154
C	 1.115811	 -0.397273	 0.226630
H	 2.556196	 -0.582511	 -1.364741
H	 2.852081	 -1.648031	 -0.010655
C	 0.115918	 -1.429151	 -0.302766
H	 0.797950	 0.599468	 -0.066350
H	 1.109961	 -0.420744	 1.316472
C	 -1.188920	 -0.839366	 -0.850389
H	 0.593906	 -2.026189	 -1.077311
H	 -0.129181	 -2.118386	 0.502580
C	 -1.032383	 0.005244	 -2.117910
H	 -1.872026	 -1.659273	 -1.062367
H	 -1.666337	 -0.241721	 -0.075321
C	 -2.370890	 0.483189	 -2.684837
H	 -0.510080	 -0.577473	 -2.875373
H	 -0.407431	 0.871710	 -1.915493
C	 -2.217101	 1.331866	 -3.946487
H	 -2.997164	 -0.378838	 -2.904329
H	 -2.898521	 1.057451	 -1.926079
H	 -1.721488	 0.774152	 -4.736137
H	 -3.182550	 1.653376	 -4.324870
H	 -1.625745	 2.222066	 -3.751024

	symmetry c1
}
set optking {
	frozen_dihedral = ("
		14 10 7 4
	")
}

ee = optimize('scf')
oeprop('DIPOLE', 'QUADRUPOLE', 'MULLIKEN_CHARGES')
f=open( 'psi4out.xyz', 'w' )
f.write( "27  " )
f.write( str(ee) + "\n" )
f.write( MOL.save_string_xyz() )
f.close()
--------------------------------------------------------------------------

    Molecular point group: c1
  Charge       = 0
  Multiplicity = 1
  Basis Set: 6-31G*
  Basis Set:
  @DF-RHF Final Energy:  -388.27665142232280
    Total Energy =                       -388.2766514223230843
    Molecular point group: c1
  Basis Set: 6-31G*
  Basis Set:
  Basis Set: 6-31G*
  Basis Set:
  @DF-RHF Final Energy:  -388.27689164556483
    Total Energy =                       -388.2768916455647741
  Basis Set: 6-31G*
  Basis Set:
  Basis Set: 6-31G*
  Basis Set:
  @DF-RHF Final Energy:  -388.27705179520188
    Total Energy =                       -388.2770517952019418
  Basis Set: 6-31G*
  Basis Set:
  Basis Set: 6-31G*
  Basis Set:
  @DF-RHF Final Energy:  -388.27714181587100
    Total Energy =                       -388.2771418158714596
  Basis Set: 6-31G*
  Basis Set:
  Basis Set: 6-31G*
  Basis Set:
  @DF-RHF Final Energy:  -388.27715750659593
    Total Energy =                       -388.2771575065954721
  Basis Set: 6-31G*
  Basis Set:
  Basis Set: 6-31G*
  Basis Set:
  @DF-RHF Final Energy:  -388.27716058064715
    Total Energy =                       -388.2771605806469779
  Basis Set: 6-31G*
  Basis Set:
  Charge       = 0
  Multiplicity = 1
  Basis Set: 6-31G*
  Basis Set:

    Orbital Energies (a.u.)
    -----------------------

    Doubly Occupied:

       1A    -20.552387     2A    -11.266847     3A    -11.219622
       4A    -11.216731     5A    -11.215397     6A    -11.215206
       7A    -11.214833     8A    -11.212787     9A    -11.207771
      10A     -1.359048    11A     -1.093516    12A     -1.059690
      13A     -1.010766    14A     -0.947223    15A     -0.887448
      16A     -0.821080    17A     -0.797570    18A     -0.780387
      19A     -0.694763    20A     -0.646247    21A     -0.634231
      22A     -0.615570    23A     -0.607242    24A     -0.582634
      25A     -0.574486    26A     -0.552577    27A     -0.542133
      28A     -0.524415    29A     -0.504751    30A     -0.499523
      31A     -0.481210    32A     -0.472791    33A     -0.469108
      34A     -0.459299    35A     -0.451280    36A     -0.439444
      37A     -0.422613

  @DF-RHF Final Energy:  -388.27716075674772

   => Energetics <=

    Nuclear Repulsion Energy =            464.5090263605380301
    One-Electron Energy =               -1447.0671124022844651
    Two-Electron Energy =                 594.2809252849988297
    DFT Exchange-Correlation Energy =       0.0000000000000000
    Empirical Dispersion Energy =           0.0000000000000000
    PCM Polarization Energy =               0.0000000000000000
    EFP Energy =                            0.0000000000000000
    Total Energy =                       -388.2771607567476622
    Molecular point group: c1
  Basis Set: 6-31G*
  Basis Set:

  -Total Gradient:
     Atom            X                  Y                   Z
    ------   -----------------  -----------------  -----------------
       1       -0.000014227149     0.000008358356    -0.000002885912
       2       -0.000027699790    -0.000006589600     0.000022009782
       3        0.000034022671    -0.000008381407    -0.000052433661
       4       -0.000306808315     0.001007736039    -0.001247313123
       5        0.000005060851    -0.000016682905     0.000000155293
       6       -0.000012499809    -0.000001282270    -0.000005583981
       7        0.000610001095    -0.001749039248     0.002155289399
       8        0.000010460109     0.000001486277     0.000004080248
       9        0.000006286493     0.000001282390     0.000009315240
      10       -0.001020076301     0.002282088770    -0.002394417101
      11        0.000006303827     0.000016622898     0.000009561831
      12        0.000000519873     0.000006075564    -0.000006659210
      13        0.000000444511    -0.000018517225    -0.000009632530
      14        0.000707835425    -0.001516750824     0.001515741816
      15       -0.000006331636    -0.000006956374    -0.000011100947
      16        0.000008480883     0.000005442730     0.000011008286
      17       -0.000003959014    -0.000003738833     0.000006868269
      18        0.000005393803     0.000009682132    -0.000005846736
      19       -0.000006559069    -0.000005590042     0.000001026655
      20       -0.000005010094    -0.000010548726     0.000012069759
      21        0.000009173444     0.000005217669    -0.000012792330
      22        0.000001713023     0.000000575959     0.000002660945
      23       -0.000005215961     0.000004516867    -0.000011888267
      24        0.000001688855    -0.000009312117     0.000007712096
      25        0.000001515607     0.000001280837     0.000001692403
      26        0.000000332575     0.000000337017     0.000000913551
      27       -0.000000845913     0.000002686061     0.000000448222

  **** Optimization is complete! (in 7 steps) ****
    Final optimized geometry and variables:
    Molecular point group: c1

    Geometry (in Angstrom), charge = 0, multiplicity = 1:

    H            2.093534366920     1.908474908431     1.568795410604
    O            2.846066828631     1.604015784653     1.082872532454
    C            3.101023070942     0.258823346599     1.399438204593
    C            2.089998215149    -0.703710193593     0.787375157631
    H            4.089226508089     0.047102987035     1.011669566773
    H            3.141804871224     0.122843808061     2.479549657765
    C            0.657945645000    -0.507238790044     1.291873234142
    H            2.109843880667    -0.588945526142    -0.293214943696
    H            2.415229107916    -1.720268651286     1.003869041217
    C           -0.341857761436    -1.540834201911     0.726907448903
    H            0.331953477702     0.494378796067     1.025299011542
    H            0.647176779313    -0.548501268156     2.379266054770
    C           -1.657454543533    -0.946307746637     0.211960686553
    H            0.131047835799    -2.113798126502    -0.067709139167
    H           -0.570223258822    -2.266957105313     1.502635940376
    C           -1.521014004105    -0.167222511407    -1.098845549592
    H           -2.372723539791    -1.752511497263     0.063828858757
    H           -2.083891296204    -0.300656744712     0.978299890136
    C           -2.842417437838     0.436741418071    -1.578684695077
    H           -1.131390460538    -0.833204418378    -1.867139668844
    H           -0.787609999516     0.628565941012    -0.988282891114
    C           -2.707605453636     1.198865134028    -2.896510349766
    H           -3.579736453430    -0.355021607495    -1.693790115274
    H           -3.231079793284     1.105552820655    -0.813514716748
    H           -2.353916103799     0.548070662832    -3.691206308270
    H           -3.660065641984     1.615322823611    -3.209686497824
    H           -2.001879383324     2.019630414105    -2.804563021038

  Mulliken Charges: (a.u.)
   Center  Symbol    Alpha    Beta     Spin     Total
       1     H     0.27985  0.27985  0.00000  0.44030
       2     O     4.37105  4.37105  0.00000 -0.74211
       3     C     2.99806  2.99806  0.00000  0.00388
       4     C     3.16294  3.16294  0.00000 -0.32588
       5     H     0.41442  0.41442  0.00000  0.17116
       6     H     0.43199  0.43199  0.00000  0.13602
       7     C     3.16488  3.16488  0.00000 -0.32976
       8     H     0.41450  0.41450  0.00000  0.17100
       9     H     0.42391  0.42391  0.00000  0.15218
      10     C     3.15570  3.15570  0.00000 -0.31140
      11     H     0.42285  0.42285  0.00000  0.15430
      12     H     0.42253  0.42253  0.00000  0.15494
      13     C     3.15501  3.15501  0.00000 -0.31002
      14     H     0.41964  0.41964  0.00000  0.16072
      15     H     0.41920  0.41920  0.00000  0.16159
      16     C     3.15277  3.15277  0.00000 -0.30555
      17     H     0.42183  0.42183  0.00000  0.15633
      18     H     0.42436  0.42436  0.00000  0.15128
      19     C     3.15114  3.15114  0.00000 -0.30228
      20     H     0.42381  0.42381  0.00000  0.15238
      21     H     0.42103  0.42103  0.00000  0.15794
      22     C     3.23932  3.23932  0.00000 -0.47864
      23     H     0.42323  0.42323  0.00000  0.15354
      24     H     0.42366  0.42366  0.00000  0.15269
      25     H     0.42161  0.42161  0.00000  0.15678
      26     H     0.41958  0.41958  0.00000  0.16083
      27     H     0.42112  0.42112  0.00000  0.15776

   Total alpha = 37.00000, Total beta = 37.00000, Total charge =  0.00000
