  ==> Input File <==

--------------------------------------------------------------------------
set {
	reference rhf
	basis cc-pvtz
}

set_num_threads( 4 )
memory 2 gb

molecule MOL {
0 1

H	 -2.633000	 -0.492000	 -0.097000
N	 -1.886000	 0.175000	 -0.086000
C	 -0.598000	 -0.492000	 0.027000
H	 -2.043000	 0.772000	 0.705000
C	 0.541000	 0.518000	 -0.059000
H	 -0.516000	 -1.194000	 -0.797000
H	 -0.494000	 -1.075000	 0.946000
C	 1.921000	 -0.134000	 0.024000
H	 0.441000	 1.070000	 -0.989000
H	 0.435000	 1.244000	 0.745000
H	 2.070000	 -0.843000	 -0.785000
H	 2.709000	 0.609000	 -0.040000
H	 2.049000	 -0.670000	 0.960000

	symmetry c1
}
ee = optimize('scf')
oeprop('DIPOLE', 'QUADRUPOLE', 'MULLIKEN_CHARGES')
f=open( 'psi4out.xyz', 'w' )
f.write( "13  " )
f.write( str(ee) + "\n" )
f.write( MOL.save_string_xyz() )
f.close()
--------------------------------------------------------------------------

    Molecular point group: c1
  Charge       = 0
  Multiplicity = 1
  Basis Set: CC-PVTZ
  Basis Set:
  @DF-RHF Final Energy:  -173.35253864348087
    Total Energy =                       -173.3525386434808979
    Molecular point group: c1
  Basis Set: CC-PVTZ
  Basis Set:
  Basis Set: CC-PVTZ
  Basis Set:
  @DF-RHF Final Energy:  -173.35260652643444
    Total Energy =                       -173.3526065264345561
  Basis Set: CC-PVTZ
  Basis Set:
  Basis Set: CC-PVTZ
  Basis Set:
  @DF-RHF Final Energy:  -173.35260912702398
    Total Energy =                       -173.3526091270241807
  Basis Set: CC-PVTZ
  Basis Set:
  Charge       = 0
  Multiplicity = 1
  Basis Set: CC-PVTZ
  Basis Set:

    Orbital Energies (a.u.)
    -----------------------

    Doubly Occupied:

       1A    -15.526746     2A    -11.238352     3A    -11.210460
       4A    -11.207065     5A     -1.178505     6A     -1.036399
       7A     -0.899373     8A     -0.800230     9A     -0.663149
      10A     -0.631049    11A     -0.604223    12A     -0.566145
      13A     -0.531549    14A     -0.492662    15A     -0.477608
      16A     -0.469037    17A     -0.384434

  @DF-RHF Final Energy:  -173.35260952727324

   => Energetics <=

    Nuclear Repulsion Energy =            131.9867614315936351
    One-Electron Energy =                -494.8447726437348138
    Two-Electron Energy =                 189.5054016848680192
    DFT Exchange-Correlation Energy =       0.0000000000000000
    Empirical Dispersion Energy =           0.0000000000000000
    PCM Polarization Energy =               0.0000000000000000
    EFP Energy =                            0.0000000000000000
    Total Energy =                       -173.3526095272731311
    Molecular point group: c1
  Basis Set: CC-PVTZ
  Basis Set:

  -Total Gradient:
     Atom            X                  Y                   Z
    ------   -----------------  -----------------  -----------------
       1        0.000020874860    -0.000013439243    -0.000022080814
       2       -0.000066499679     0.000005277451     0.000029689142
       3        0.000071534899    -0.000020251929     0.000021919777
       4        0.000022162714     0.000012748197    -0.000011533184
       5       -0.000025658424    -0.000001434622    -0.000013766350
       6       -0.000035795203     0.000011313273    -0.000006173957
       7       -0.000003843736     0.000003046862    -0.000015907840
       8        0.000000669578    -0.000004827132     0.000024712300
       9       -0.000010999001    -0.000002964908    -0.000000877342
      10       -0.000000404374     0.000028062446    -0.000005517021
      11        0.000010562831     0.000003900211     0.000000495179
      12        0.000001117693    -0.000010018651     0.000008116632
      13        0.000016277843    -0.000011411955    -0.000009076522

  **** Optimization is complete! (in 4 steps) ****
    Final optimized geometry and variables:
    Molecular point group: c1

    Geometry (in Angstrom), charge = 0, multiplicity = 1:

    H           -2.597125708725    -0.502062820986    -0.074882762411
    N           -1.851926575603     0.161443677205    -0.071572902078
    C           -0.561395529004    -0.500006468265     0.035200517583
    H           -2.004643567703     0.772266253600     0.703610422716
    C            0.575128917106     0.507849263022    -0.048831675531
    H           -0.478088101018    -1.200752473913    -0.788955735846
    H           -0.456190400709    -1.081815546450     0.952176573899
    C            1.951750781632    -0.141983106101     0.035101238575
    H            0.478254447101     1.061642858548    -0.975980254876
    H            0.467675938418     1.231891283668     0.755499355487
    H            2.101550391442    -0.848141693855    -0.774948230623
    H            2.738260639836     0.600794624199    -0.026525736462
    H            2.078939584485    -0.679791777747     0.968824767461

  Mulliken Charges: (a.u.)
   Center  Symbol    Alpha    Beta     Spin     Total
       1     H     0.42983  0.42983  0.00000  0.14034
       2     N     3.68981  3.68981  0.00000 -0.37962
       3     C     3.02211  3.02211  0.00000 -0.04421
       4     H     0.43085  0.43085  0.00000  0.13831
       5     C     3.07801  3.07801  0.00000 -0.15601
       6     H     0.45761  0.45761  0.00000  0.08477
       7     H     0.46981  0.46981  0.00000  0.06037
       8     C     3.15277  3.15277  0.00000 -0.30554
       9     H     0.44920  0.44920  0.00000  0.10160
      10     H     0.46023  0.46023  0.00000  0.07955
      11     H     0.45505  0.45505  0.00000  0.08990
      12     H     0.44777  0.44777  0.00000  0.10445
      13     H     0.45696  0.45696  0.00000  0.08609

   Total alpha = 17.00000, Total beta = 17.00000, Total charge =  0.00000
