  ==> Input File <==

--------------------------------------------------------------------------
set {
	reference rhf
	basis 6-31G*
}

set_num_threads( 4 )
memory 2 gb

molecule MOL {
0 1

O	 -2.821601	 1.309235	 -0.001213
C	 -2.668563	 0.129746	 -0.000350
C	 -3.801572	 -0.864014	 -0.000442
O	 -1.481751	 -0.454642	 0.000584
H	 -4.417280	 -0.689587	 -0.874708
H	 -3.443784	 -1.883046	 -0.000565
H	 -4.417179	 -0.689832	 0.873954
C	 -0.334255	 0.388708	 0.000906
C	 0.891947	 -0.504646	 0.000751
H	 -0.365390	 1.025305	 -0.873475
H	 -0.365484	 1.024911	 0.875569
C	 2.068729	 0.132462	 0.742201
H	 1.171137	 -0.717536	 -1.027437
H	 0.633864	 -1.455298	 0.459134
C	 3.316153	 -0.753058	 0.752857
H	 2.312914	 1.088982	 0.283366
H	 1.776803	 0.351667	 1.767779
C	 4.491909	 -0.116091	 1.492274
H	 3.609464	 -0.972791	 -0.271233
H	 3.074531	 -1.708486	 1.213125
H	 4.779305	 0.826063	 1.034276
H	 5.360562	 -0.766923	 1.482533
H	 4.240483	 0.084523	 2.529843

	symmetry c1
}
set optking {
	frozen_dihedral = ("
		13 9 8 10
	")
}

ee = optimize('scf')
oeprop('DIPOLE', 'QUADRUPOLE', 'MULLIKEN_CHARGES')
f=open( 'psi4out.xyz', 'w' )
f.write( "23  " )
f.write( str(ee) + "\n" )
f.write( MOL.save_string_xyz() )
f.close()
--------------------------------------------------------------------------

    Molecular point group: c1
  Charge       = 0
  Multiplicity = 1
  Basis Set: 6-31G*
  Basis Set:
  @DF-RHF Final Energy:  -422.97621041941278
    Total Energy =                       -422.9762104194130643
    Molecular point group: c1
  Basis Set: 6-31G*
  Basis Set:
  Basis Set: 6-31G*
  Basis Set:
  @DF-RHF Final Energy:  -422.97646256866068
    Total Energy =                       -422.9764625686616455
  Basis Set: 6-31G*
  Basis Set:
  Basis Set: 6-31G*
  Basis Set:
  @DF-RHF Final Energy:  -422.97647207189152
    Total Energy =                       -422.9764720718914077
  Basis Set: 6-31G*
  Basis Set:
  Basis Set: 6-31G*
  Basis Set:
  @DF-RHF Final Energy:  -422.97655305495090
    Total Energy =                       -422.9765530549510686
  Basis Set: 6-31G*
  Basis Set:
  Basis Set: 6-31G*
  Basis Set:
  @DF-RHF Final Energy:  -422.97657499325413
    Total Energy =                       -422.9765749932541894
  Basis Set: 6-31G*
  Basis Set:
  Charge       = 0
  Multiplicity = 1
  Basis Set: 6-31G*
  Basis Set:

    Orbital Energies (a.u.)
    -----------------------

    Doubly Occupied:

       1A    -20.602146     2A    -20.539991     3A    -11.373445
       4A    -11.281964     5A    -11.232086     6A    -11.224397
       7A    -11.223467     8A    -11.221364     9A    -11.212881
      10A     -1.466996    11A     -1.359774    12A     -1.093320
      13A     -1.041435    14A     -1.002846    15A     -0.930569
      16A     -0.841980    17A     -0.801873    18A     -0.775088
      19A     -0.690679    20A     -0.683524    21A     -0.666860
      22A     -0.646633    23A     -0.606885    24A     -0.586413
      25A     -0.581825    26A     -0.568675    27A     -0.558295
      28A     -0.535686    29A     -0.524054    30A     -0.504018
      31A     -0.494535    32A     -0.475991    33A     -0.471405
      34A     -0.464724    35A     -0.449283    36A     -0.434714

  @DF-RHF Final Energy:  -422.97657515564754

   => Energetics <=

    Nuclear Repulsion Energy =            449.7645664642863039
    One-Electron Energy =               -1467.1426433544515930
    Two-Electron Energy =                 594.4015017345179785
    DFT Exchange-Correlation Energy =       0.0000000000000000
    Empirical Dispersion Energy =           0.0000000000000000
    PCM Polarization Energy =               0.0000000000000000
    EFP Energy =                            0.0000000000000000
    Total Energy =                       -422.9765751556473106
    Molecular point group: c1
  Basis Set: 6-31G*
  Basis Set:

  -Total Gradient:
     Atom            X                  Y                   Z
    ------   -----------------  -----------------  -----------------
       1        0.000035437410    -0.000014464157    -0.000044180956
       2       -0.000016268307     0.000005265950     0.000035539377
       3       -0.000006195568    -0.000007534112     0.000024089993
       4       -0.000000479053    -0.000017366397    -0.000097559684
       5        0.000013668583     0.000009346197     0.000001294408
       6       -0.000001989630     0.000000998291     0.000001150904
       7       -0.000019718104    -0.000012010896    -0.000001324191
       8        0.003631214023     0.004836759822     0.003010824516
       9       -0.003946661818    -0.005184383854    -0.000581589831
      10       -0.002369994742    -0.003201453618    -0.002256493046
      11        0.000079392297     0.000019715557    -0.000059259624
      12       -0.000016798887     0.000028688777     0.000049862233
      13        0.002627368993     0.003560789819    -0.000073806448
      14       -0.000002566752    -0.000012718995    -0.000029735703
      15       -0.000005533360    -0.000010862942     0.000021934055
      16        0.000005078223    -0.000007210922     0.000005267619
      17       -0.000008218611     0.000003840585     0.000005239799
      18        0.000003939188     0.000004410586    -0.000010032752
      19       -0.000010846169    -0.000007726327    -0.000001763119
      20        0.000007295675     0.000001644050     0.000009120150
      21        0.000001515897     0.000006337762     0.000001996334
      22        0.000001738112     0.000002918209    -0.000006297006
      23       -0.000001377401    -0.000004983385    -0.000004277025

  **** Optimization is complete! (in 6 steps) ****
    Final optimized geometry and variables:
    Molecular point group: c1

    Geometry (in Angstrom), charge = 0, multiplicity = 1:

    O           -2.761574195773     1.394965949161    -0.384587651524
    C           -2.623414877887     0.213577298750    -0.360082084584
    C           -3.768874225155    -0.765564748000    -0.390520630233
    O           -1.445877738785    -0.385131890058    -0.302527852402
    H           -4.347408688189    -0.596003357302    -1.290743889556
    H           -3.425061832294    -1.789022778938    -0.362254142714
    H           -4.416031048829    -0.570879290097     0.456359731537
    C           -0.285808881516     0.447442459691    -0.270167969856
    C            0.936217318733    -0.463784478914    -0.254694694883
    H           -0.309612114744     1.072657815017    -1.151487402295
    H           -0.336557154573     1.078603586776     0.606366591008
    C            2.131209010255     0.192603895367     0.444203029140
    H            1.223621809188    -0.699621679965    -1.275313851362
    H            0.679315961958    -1.392420059588     0.242804094097
    C            3.394342087996    -0.668590059461     0.403535373818
    H            2.340356392463     1.155967485061    -0.018969149354
    H            1.871636778517     0.402745040862     1.480059743197
    C            4.582681071848    -0.016871947886     1.109377271347
    H            3.657354083061    -0.873272582596    -0.631932367166
    H            3.186012779129    -1.632995334806     0.861753806721
    H            4.835877912351     0.935674848310     0.652642664897
    H            5.462825211074    -0.650392056181     1.062234072716
    H            4.363586050757     0.167537748694     2.157208491233

  Mulliken Charges: (a.u.)
   Center  Symbol    Alpha    Beta     Spin     Total
       1     O     4.28454  4.28454  0.00000 -0.56908
       2     C     2.61550  2.61550  0.00000  0.76900
       3     C     3.28758  3.28758  0.00000 -0.57516
       4     O     4.31309  4.31309  0.00000 -0.62618
       5     H     0.39760  0.39760  0.00000  0.20480
       6     H     0.40009  0.40009  0.00000  0.19982
       7     H     0.39763  0.39763  0.00000  0.20474
       8     C     2.99812  2.99812  0.00000  0.00376
       9     C     3.16713  3.16713  0.00000 -0.33426
      10     H     0.40831  0.40831  0.00000  0.18339
      11     H     0.40915  0.40915  0.00000  0.18170
      12     C     3.16049  3.16049  0.00000 -0.32099
      13     H     0.41580  0.41580  0.00000  0.16839
      14     H     0.40848  0.40848  0.00000  0.18305
      15     C     3.15196  3.15196  0.00000 -0.30392
      16     H     0.42143  0.42143  0.00000  0.15714
      17     H     0.42033  0.42033  0.00000  0.15934
      18     C     3.23973  3.23973  0.00000 -0.47947
      19     H     0.42180  0.42180  0.00000  0.15641
      20     H     0.42143  0.42143  0.00000  0.15713
      21     H     0.42089  0.42089  0.00000  0.15822
      22     H     0.41808  0.41808  0.00000  0.16385
      23     H     0.42084  0.42084  0.00000  0.15832

   Total alpha = 36.00000, Total beta = 36.00000, Total charge =  0.00000
