                              Psi4 1.0.54 Driver

  ==> Input File <==

--------------------------------------------------------------------------
set {
	reference rhf
	basis cc-pvtz
}

set_num_threads( 4 )
memory 2 gb

molecule MOL {
0 1

O	 -2.024338	 -0.014542	 0.826933
C	 -1.081510	 0.147522	 0.122720
C	 0.327029	 -0.064006	 0.641890
C	 -1.232022	 0.588540	 -1.313636
C	 1.349460	 -0.017068	 -0.500215
H	 0.399029	 -1.014606	 1.159950
H	 0.538021	 0.726928	 1.350471
C	 2.779782	 -0.209014	 -0.009215
H	 1.115007	 -0.782959	 -1.233891
H	 1.259071	 0.936707	 -1.006644
H	 3.481860	 -0.160270	 -0.833072
H	 2.903471	 -1.171535	 0.475559
H	 3.052569	 0.559584	 0.705428
H	 -0.588540	 1.435736	 -1.523266
H	 -2.260080	 0.845063	 -1.518062
H	 -0.922440	 -0.218874	 -1.969452

	symmetry c1
}
set optking {
	frozen_dihedral = ("
		4 2 3 5
	")
}

ee,wfn = optimize('scf', return_wfn=True)
oeprop( wfn, 'DIPOLE', 'QUADRUPOLE', 'MULLIKEN_CHARGES')
f=open( 'psi4out.xyz', 'w' )
f.write( "16  " )
f.write( str(ee) + "\n" )
f.write( MOL.save_string_xyz() )
f.close()
--------------------------------------------------------------------------

    Molecular point group: c1
  Charge       = 0
  Multiplicity = 1
  Basis Set: CC-PVTZ
  Basis Set:
  @DF-RHF Final Energy:  -270.12160825072203
    Total Energy =                       -270.1216082507219198
    Molecular point group: c1
  Basis Set: CC-PVTZ
  Basis Set:
  Basis Set: CC-PVTZ
  Basis Set:
  @DF-RHF Final Energy:  -270.11258890004774
    Total Energy =                       -270.1125889000477400
  Basis Set: CC-PVTZ
  Basis Set:
  Basis Set: CC-PVTZ
  Basis Set:
  @DF-RHF Final Energy:  -270.12603986276463
    Total Energy =                       -270.1260398627646282
  Basis Set: CC-PVTZ
  Basis Set:
  Basis Set: CC-PVTZ
  Basis Set:
  @DF-RHF Final Energy:  -270.12634263109896
    Total Energy =                       -270.1263426310988507
  Basis Set: CC-PVTZ
  Basis Set:
  @DF-RHF Final Energy:  -270.12661312616069
    Total Energy =                       -270.1266131261606915
  @DF-RHF Final Energy:  -270.12683974683455
    Total Energy =                       -270.1268397468347757
  Basis Set: CC-PVTZ
  Basis Set:
  @DF-RHF Final Energy:  -270.12682940163120
    Total Energy =                       -270.1268294016313121
  Basis Set: CC-PVTZ
  Basis Set:
  Basis Set: CC-PVTZ
  Basis Set:
  @DF-RHF Final Energy:  -270.12685021224013
    Total Energy =                       -270.1268502122400150
  Basis Set: CC-PVTZ
  Basis Set:
  Basis Set: CC-PVTZ
  Basis Set:
  @DF-RHF Final Energy:  -270.12685338063807
    Total Energy =                       -270.1268533806376695
  Basis Set: CC-PVTZ
  Basis Set:
  Charge       = 0
  Multiplicity = 1
  Basis Set: CC-PVTZ
  Basis Set:

    Orbital Energies (a.u.)
    -----------------------

    Doubly Occupied:

       1A    -20.534985     2A    -11.321328     3A    -11.231617
       4A    -11.229782     5A    -11.226935     6A    -11.219267
       7A     -1.396657     8A     -1.085847     9A     -1.010088
      10A     -0.953304    11A     -0.835466    12A     -0.734358
      13A     -0.657241    14A     -0.655056    15A     -0.627313
      16A     -0.599446    17A     -0.578004    18A     -0.554011
      19A     -0.540352    20A     -0.522150    21A     -0.506094
      22A     -0.490755    23A     -0.471051    24A     -0.400252

  @DF-RHF Final Energy:  -270.12685384355927

   => Energetics <=

    Nuclear Repulsion Energy =            237.0711764728814615
    One-Electron Energy =                -835.6333420980380424
    Two-Electron Energy =                 328.4353117815971927
    DFT Exchange-Correlation Energy =       0.0000000000000000
    Empirical Dispersion Energy =           0.0000000000000000
    PCM Polarization Energy =               0.0000000000000000
    EFP Energy =                            0.0000000000000000
    Total Energy =                       -270.1268538435593882
    Molecular point group: c1
  Basis Set: CC-PVTZ
  Basis Set:

  -Total Gradient:
     Atom            X                  Y                   Z
    ------   -----------------  -----------------  -----------------
       1        0.000012500460     0.000004263713     0.000003161191
       2       -0.000016666963     0.001490324249     0.000347530627
       3       -0.000052417930    -0.001544768418    -0.000204618765
       4        0.000037873556    -0.000733203498    -0.000210108160
       5        0.000059664915     0.000789426139     0.000053482092
       6       -0.000013347887     0.000004593228    -0.000004236092
       7       -0.000001667097     0.000008570144    -0.000004358153
       8       -0.000007290690    -0.000004748099     0.000021378256
       9       -0.000000027623     0.000013679564     0.000015878305
      10       -0.000006046013    -0.000009171032     0.000001086923
      11       -0.000003638809    -0.000000151377     0.000000661012
      12        0.000003597282     0.000019404289    -0.000007149884
      13       -0.000000312185    -0.000017912116    -0.000010567886
      14        0.000003086011    -0.000009595474    -0.000007744621
      15       -0.000010194842    -0.000002195779     0.000002260184
      16       -0.000005112184    -0.000008515531     0.000003344970

  **** Optimization is complete! (in 10 steps) ****
    Final optimized geometry and variables:
    Molecular point group: c1

    Geometry (in Angstrom), charge = 0, multiplicity = 1:

    O           -2.140884881759    -0.066531986384     0.540079877539
    C           -1.134183360089     0.083716446054    -0.072771691418
    C            0.203094109863    -0.085234657352     0.636416765535
    C           -1.167398772502     0.449499716689    -1.537914667897
    C            1.473815792208    -0.106779588879    -0.208532500241
    H            0.120217389352    -0.992668541544     1.223281454514
    H            0.255786435482     0.727629799299     1.355729913787
    C            2.723839947760    -0.276679466515     0.649155335007
    H            1.426236191657    -0.916735132751    -0.929561784175
    H            1.558388785431     0.810704468340    -0.780833860043
    H            3.617197626121    -0.292618552971     0.036426238846
    H            2.689788773195    -1.203787540192     1.210723294655
    H            2.823465903207     0.536109503630     1.360370383637
    H           -0.648528296865     1.386305269557    -1.707117989106
    H           -2.193976541368     0.539941132442    -1.857038882211
    H           -0.665609978341    -0.307227259182    -2.129397815572

  Mulliken Charges: (a.u.)
   Center  Symbol    Alpha    Beta     Spin     Total
       1     O     4.17654  4.17654  0.00000 -0.35307
       2     C     2.86118  2.86118  0.00000  0.27764
       3     C     3.09609  3.09609  0.00000 -0.19217
       4     C     3.16244  3.16244  0.00000 -0.32487
       5     C     3.09543  3.09543  0.00000 -0.19086
       6     H     0.43729  0.43729  0.00000  0.12542
       7     H     0.44058  0.44058  0.00000  0.11884
       8     C     3.14990  3.14990  0.00000 -0.29981
       9     H     0.44963  0.44963  0.00000  0.10074
      10     H     0.45086  0.45086  0.00000  0.09829
      11     H     0.44606  0.44606  0.00000  0.10788
      12     H     0.45242  0.45242  0.00000  0.09516
      13     H     0.45336  0.45336  0.00000  0.09327
      14     H     0.44789  0.44789  0.00000  0.10421
      15     H     0.43203  0.43203  0.00000  0.13595
      16     H     0.44831  0.44831  0.00000  0.10338

   Total alpha = 24.00000, Total beta = 24.00000, Total charge = -0.00000

*** Psi4 exiting successfully. Buy a developer a beer!
