  ==> Input File <==

--------------------------------------------------------------------------
set {
	reference rhf
	basis cc-pvtz
}

set_num_threads( 4 )
memory 2 gb

molecule MOL {
0 1

H	 2.614283	 2.028610	 0.296620
O	 3.358864	 1.662087	 -0.142800
C	 3.565468	 0.338079	 0.273842
C	 2.533667	 -0.637565	 -0.272227
H	 4.548038	 0.064914	 -0.086598
H	 3.593945	 0.282242	 1.360360
C	 1.114816	 -0.402372	 0.240993
H	 2.544552	 -0.580764	 -1.356576
H	 2.850574	 -1.642962	 -0.005497
C	 0.113298	 -1.420414	 -0.302504
H	 0.796373	 0.598427	 -0.031033
H	 1.113377	 -0.446476	 1.328807
C	 -1.079219	 -0.819050	 -1.048506
H	 0.631835	 -2.116798	 -0.957023
H	 -0.263739	 -2.010709	 0.528077
C	 -0.735795	 -0.130114	 -2.368040
H	 -1.791805	 -1.614278	 -1.249407
H	 -1.590901	 -0.113920	 -0.397255
C	 -1.967586	 0.365133	 -3.121586
H	 -0.184563	 -0.822699	 -3.000447
H	 -0.073395	 0.711398	 -2.188915
C	 -1.628051	 1.056819	 -4.437708
H	 -2.630142	 -0.473682	 -3.316488
H	 -2.523988	 1.050692	 -2.487954
H	 -1.098769	 0.386546	 -5.106911
H	 -2.523654	 1.393124	 -4.947513
H	 -0.996457	 1.923643	 -4.273217

	symmetry c1
}
set optking {
	frozen_dihedral = ("
		14 10 7 4
	")
}

ee = optimize('scf')
oeprop('DIPOLE', 'QUADRUPOLE', 'MULLIKEN_CHARGES')
f=open( 'psi4out.xyz', 'w' )
f.write( "27  " )
f.write( str(ee) + "\n" )
f.write( MOL.save_string_xyz() )
f.close()
--------------------------------------------------------------------------

    Molecular point group: c1
  Charge       = 0
  Multiplicity = 1
  Basis Set: CC-PVTZ
  Basis Set:
  @DF-RHF Final Energy:  -388.42232157756894
    Total Energy =                       -388.4223215775688232
    Molecular point group: c1
  Basis Set: CC-PVTZ
  Basis Set:
  Basis Set: CC-PVTZ
  Basis Set:
  @DF-RHF Final Energy:  -388.42265199052173
    Total Energy =                       -388.4226519905218993
  Basis Set: CC-PVTZ
  Basis Set:
  Basis Set: CC-PVTZ
  Basis Set:
  @DF-RHF Final Energy:  -388.42274645447742
    Total Energy =                       -388.4227464544774193
  Basis Set: CC-PVTZ
  Basis Set:
  Basis Set: CC-PVTZ
  Basis Set:
  @DF-RHF Final Energy:  -388.42274004501212
    Total Energy =                       -388.4227400450126879
  Basis Set: CC-PVTZ
  Basis Set:
  Basis Set: CC-PVTZ
  Basis Set:
  @DF-RHF Final Energy:  -388.42275397938664
    Total Energy =                       -388.4227539793864707
  Basis Set: CC-PVTZ
  Basis Set:
  Charge       = 0
  Multiplicity = 1
  Basis Set: CC-PVTZ
  Basis Set:

    Orbital Energies (a.u.)
    -----------------------

    Doubly Occupied:

       1A    -20.545585     2A    -11.264869     3A    -11.216786
       4A    -11.214092     5A    -11.213500     6A    -11.212536
       7A    -11.212379     8A    -11.210131     9A    -11.205366
      10A     -1.363365    11A     -1.094542    12A     -1.060315
      13A     -1.011576    14A     -0.947946    15A     -0.888254
      16A     -0.822267    17A     -0.797319    18A     -0.779833
      19A     -0.697451    20A     -0.647558    21A     -0.634596
      22A     -0.617137    23A     -0.609746    24A     -0.583707
      25A     -0.573490    26A     -0.553213    27A     -0.543873
      28A     -0.524101    29A     -0.504400    30A     -0.502888
      31A     -0.481376    32A     -0.472274    33A     -0.468756
      34A     -0.459278    35A     -0.452858    36A     -0.439252
      37A     -0.425124

  @DF-RHF Final Energy:  -388.42275447538577

   => Energetics <=

    Nuclear Repulsion Energy =            467.4118025537459289
    One-Electron Energy =               -1453.1656392620880069
    Two-Electron Energy =                 597.3310822329559642
    DFT Exchange-Correlation Energy =       0.0000000000000000
    Empirical Dispersion Energy =           0.0000000000000000
    PCM Polarization Energy =               0.0000000000000000
    EFP Energy =                            0.0000000000000000
    Total Energy =                       -388.4227544753861139
    Molecular point group: c1
  Basis Set: CC-PVTZ
  Basis Set:

  -Total Gradient:
     Atom            X                  Y                   Z
    ------   -----------------  -----------------  -----------------
       1        0.000003209616    -0.000003479960    -0.000001880050
       2        0.000024840571    -0.000008948635    -0.000001538507
       3       -0.000025111649     0.000017124796     0.000022762974
       4       -0.000106072349     0.000154428174    -0.000264992321
       5       -0.000000943444     0.000006191905    -0.000001284169
       6        0.000003396517    -0.000000733990     0.000002083176
       7        0.000068089529    -0.000325767342     0.000387404651
       8       -0.000001655299     0.000005003466     0.000002478739
       9        0.000000327204    -0.000003975704    -0.000008416603
      10       -0.000077911676     0.000432179601    -0.000470315420
      11       -0.000012006923    -0.000020372211    -0.000008316289
      12       -0.000011096035    -0.000025544347     0.000017480204
      13        0.000027426626     0.000038045495     0.000009396594
      14        0.000100492311    -0.000243112067     0.000307999277
      15        0.000010645348     0.000014995699     0.000039324542
      16       -0.000003281140    -0.000016047436    -0.000030605057
      17        0.000011876562    -0.000002320323    -0.000001794787
      18        0.000000149514    -0.000009658517     0.000011036832
      19        0.000003508472     0.000001457924    -0.000002555128
      20       -0.000000625606    -0.000008815245    -0.000005421316
      21       -0.000018989287    -0.000012376841    -0.000017618091
      22        0.000004184541     0.000010032864     0.000011740980
      23        0.000006985005    -0.000003564025    -0.000002588643
      24       -0.000008797477     0.000000442108     0.000000398247
      25       -0.000003131442    -0.000001378502     0.000004803977
      26        0.000000276410     0.000002664574     0.000004131793
      27        0.000004214103     0.000003528537    -0.000003715607

  **** Optimization is complete! (in 6 steps) ****
    Final optimized geometry and variables:
    Molecular point group: c1

    Geometry (in Angstrom), charge = 0, multiplicity = 1:

    H            1.940655473120     2.002923956130     1.584499666741
    O            2.686874028438     1.661419164688     1.128333025501
    C            2.927390807689     0.333972311752     1.515746212586
    C            1.918089486921    -0.653689439104     0.950819102403
    H            3.915368023748     0.092863771664     1.147219142222
    H            2.960319297863     0.255498953938     2.600697556596
    C            0.493194761529    -0.459398254019     1.466423957833
    H            1.927596040809    -0.578860138005    -0.132289725572
    H            2.255455339501    -1.657001380571     1.200010693585
    C           -0.513142254093    -1.493063147586     0.915927315431
    H            0.155737414037     0.539818260313     1.212067610530
    H            0.502881008566    -0.506289295972     2.551704323191
    C           -1.712022407888    -0.890961600478     0.180409847352
    H           -0.001249544945    -2.180199484336     0.248474862023
    H           -0.882749366195    -2.100287941314     1.734894603213
    C           -1.366462892773    -0.240419472941    -1.157536651059
    H           -2.444389794937    -1.674567980706     0.006773968089
    H           -2.197404156715    -0.161262007275     0.824658318466
    C           -2.576304194270     0.369561269063    -1.860327379604
    H           -0.914484140991    -0.986512184069    -1.807223730457
    H           -0.615041063469     0.531084191589    -1.015294553395
    C           -2.232684502027     1.004413246485    -3.203699843107
    H           -3.330937792406    -0.398343420716    -2.007577840622
    H           -3.026852065799     1.117821025030    -1.213759672290
    H           -1.813141641119     0.272789298638    -3.886237781177
    H           -3.112183762645     1.428792197022    -3.674322722697
    H           -1.504210668813     1.799726300720    -3.085991717725

  Mulliken Charges: (a.u.)
   Center  Symbol    Alpha    Beta     Spin     Total
       1     H     0.39239  0.39239  0.00000  0.21523
       2     O     4.20591  4.20591  0.00000 -0.41182
       3     C     2.98046  2.98046  0.00000  0.03908
       4     C     3.08746  3.08746  0.00000 -0.17491
       5     H     0.44843  0.44843  0.00000  0.10315
       6     H     0.46945  0.46945  0.00000  0.06110
       7     C     3.11776  3.11776  0.00000 -0.23552
       8     H     0.44973  0.44973  0.00000  0.10053
       9     H     0.45427  0.45427  0.00000  0.09145
      10     C     3.10390  3.10390  0.00000 -0.20779
      11     H     0.45511  0.45511  0.00000  0.08978
      12     H     0.44375  0.44375  0.00000  0.11250
      13     C     3.09576  3.09576  0.00000 -0.19152
      14     H     0.45315  0.45315  0.00000  0.09371
      15     H     0.44313  0.44313  0.00000  0.11375
      16     C     3.09100  3.09100  0.00000 -0.18201
      17     H     0.44821  0.44821  0.00000  0.10357
      18     H     0.45452  0.45452  0.00000  0.09097
      19     C     3.08358  3.08358  0.00000 -0.16716
      20     H     0.45408  0.45408  0.00000  0.09184
      21     H     0.45056  0.45056  0.00000  0.09888
      22     C     3.14983  3.14983  0.00000 -0.29966
      23     H     0.45429  0.45429  0.00000  0.09141
      24     H     0.45509  0.45509  0.00000  0.08982
      25     H     0.45519  0.45519  0.00000  0.08961
      26     H     0.44870  0.44870  0.00000  0.10261
      27     H     0.45430  0.45430  0.00000  0.09141

   Total alpha = 37.00000, Total beta = 37.00000, Total charge = -0.00000
