  ==> Input File <==

--------------------------------------------------------------------------
set {
	reference rhf
	basis cc-pvtz
}

set_num_threads( 4 )
memory 2 gb

molecule MOL {
0 1

H	 2.190573	 -0.629143	 -0.208718
O	 1.355408	 -0.529451	 0.208662
C	 0.700177	 0.619554	 -0.266242
C	 -0.713111	 0.588314	 0.266177
H	 0.678680	 0.627133	 -1.351786
H	 1.199747	 1.521489	 0.077736
O	 -1.421673	 -0.521378	 -0.196983
H	 -1.244794	 1.469161	 -0.069059
H	 -0.685100	 0.604721	 1.352683
H	 -0.804845	 -1.170987	 -0.486041

	symmetry c1
}
set optking {
	frozen_dihedral = ("
		10 7 4 3
	")
}

ee = optimize('scf')
oeprop('DIPOLE', 'QUADRUPOLE', 'MULLIKEN_CHARGES')
f=open( 'psi4out.xyz', 'w' )
f.write( "10  " )
f.write( str(ee) + "\n" )
f.write( MOL.save_string_xyz() )
f.close()
--------------------------------------------------------------------------

    Molecular point group: c1
  Charge       = 0
  Multiplicity = 1
  Basis Set: CC-PVTZ
  Basis Set:
  @DF-RHF Final Energy:  -229.02597298537844
    Total Energy =                       -229.0259729853784165
    Molecular point group: c1
  Basis Set: CC-PVTZ
  Basis Set:
  Basis Set: CC-PVTZ
  Basis Set:
  @DF-RHF Final Energy:  -229.02627855478656
    Total Energy =                       -229.0262785547866713
  Basis Set: CC-PVTZ
  Basis Set:
  Basis Set: CC-PVTZ
  Basis Set:
  @DF-RHF Final Energy:  -229.02640813795588
    Total Energy =                       -229.0264081379559400
  Basis Set: CC-PVTZ
  Basis Set:
  Basis Set: CC-PVTZ
  Basis Set:
  @DF-RHF Final Energy:  -229.02640934916468
    Total Energy =                       -229.0264093491647941
  Basis Set: CC-PVTZ
  Basis Set:
  Charge       = 0
  Multiplicity = 1
  Basis Set: CC-PVTZ
  Basis Set:

    Orbital Energies (a.u.)
    -----------------------

    Doubly Occupied:

       1A    -20.565015     2A    -20.539997     3A    -11.279383
       4A    -11.266961     5A     -1.389137     6A     -1.354554
       7A     -1.005540     8A     -0.849075     9A     -0.730243
      10A     -0.672817    11A     -0.665507    12A     -0.604559
      13A     -0.577488    14A     -0.548115    15A     -0.482115
      16A     -0.460802    17A     -0.435786

  @DF-RHF Final Energy:  -229.02640948366090

   => Energetics <=

    Nuclear Repulsion Energy =            134.7208025093664503
    One-Electron Energy =                -580.6402398178021258
    Two-Electron Energy =                 216.8930278247746912
    DFT Exchange-Correlation Energy =       0.0000000000000000
    Empirical Dispersion Energy =           0.0000000000000000
    PCM Polarization Energy =               0.0000000000000000
    EFP Energy =                            0.0000000000000000
    Total Energy =                       -229.0264094836610127
    Molecular point group: c1
  Basis Set: CC-PVTZ
  Basis Set:

  -Total Gradient:
     Atom            X                  Y                   Z
    ------   -----------------  -----------------  -----------------
       1        0.000002982707    -0.000005824570     0.000000994569
       2        0.000013102399     0.000000894763    -0.000001613075
       3        0.000781737157    -0.001274517682     0.002126984592
       4       -0.001144903117     0.002127191413    -0.003906975756
       5        0.000002936072    -0.000011319827     0.000018989298
       6        0.000016483503     0.000009626492     0.000008248275
       7        0.000348863928    -0.002285571922     0.005640818664
       8       -0.000003963726     0.000006496207     0.000001274848
       9       -0.000001922153    -0.000003933057    -0.000009170026
      10       -0.000015316772     0.001436958181    -0.003879551389

  **** Optimization is complete! (in 5 steps) ****
    Final optimized geometry and variables:
    Molecular point group: c1

    Geometry (in Angstrom), charge = 0, multiplicity = 1:

    H            2.199200921874    -0.610385214210    -0.204314425520
    O            1.337536860662    -0.553176601454     0.164887310583
    C            0.705723690685     0.631515621038    -0.244962783711
    C           -0.716632373255     0.603408443625     0.267210209225
    H            0.705190353719     0.703576646070    -1.329887746982
    H            1.211796008192     1.505757858613     0.154313843591
    O           -1.415965506346    -0.532368767578    -0.148784617861
    H           -1.241186945121     1.481283458394    -0.090845478861
    H           -0.698017777521     0.642623085904     1.352677370707
    H           -0.802375225346    -1.198492342686    -0.402401266126

  Mulliken Charges: (a.u.)
   Center  Symbol    Alpha    Beta     Spin     Total
       1     H     0.39114  0.39114  0.00000  0.21772
       2     O     4.20390  4.20390  0.00000 -0.40780
       3     C     2.98380  2.98380  0.00000  0.03241
       4     C     2.94840  2.94840  0.00000  0.10320
       5     H     0.46849  0.46849  0.00000  0.06301
       6     H     0.46751  0.46751  0.00000  0.06498
       7     O     4.21046  4.21046  0.00000 -0.42091
       8     H     0.46745  0.46745  0.00000  0.06510
       9     H     0.47368  0.47368  0.00000  0.05264
      10     H     0.38517  0.38517  0.00000  0.22967

   Total alpha = 17.00000, Total beta = 17.00000, Total charge = -0.00000
