                              Psi4 1.0.54 Driver

  ==> Input File <==

--------------------------------------------------------------------------
set {
	reference rhf
	basis cc-pvtz
}

set_num_threads( 4 )
memory 2 gb

molecule MOL {
0 1

H	 -3.265379	 -0.286887	 1.448473
C	 -3.309555	 -0.267574	 0.350948
C	 -2.650132	 0.923940	 -0.288854
O	 -3.855696	 -1.137312	 -0.234367
C	 -1.215057	 1.140877	 0.200200
H	 -2.691697	 0.804709	 -1.363745
H	 -3.252338	 1.790593	 -0.025102
C	 -0.246056	 0.044917	 -0.238082
H	 -0.867468	 2.098844	 -0.171042
H	 -1.212362	 1.218664	 1.284698
C	 1.181757	 0.280428	 0.247371
H	 -0.252915	 -0.021609	 -1.322810
H	 -0.593041	 -0.919497	 0.123767
C	 2.151032	 -0.811012	 -0.202643
H	 1.519463	 1.248238	 -0.109900
H	 1.186583	 0.336730	 1.333698
C	 3.580021	 -0.656538	 0.320835
H	 2.170545	 -0.847575	 -1.289412
H	 1.766632	 -1.772905	 0.124928
C	 4.327657	 0.562694	 -0.213579
H	 4.138806	 -1.549270	 0.057813
H	 3.561991	 -0.620783	 1.406976
H	 4.355973	 0.557257	 -1.298551
H	 3.867136	 1.491650	 0.100501
H	 5.351524	 0.571613	 0.142204

	symmetry c1
}
set optking {
	frozen_dihedral = ("
		8 11 14 18
	")
}

ee,wfn = optimize('scf', return_wfn=True)
oeprop( wfn, 'DIPOLE', 'QUADRUPOLE', 'MULLIKEN_CHARGES')
f=open( 'psi4out.xyz', 'w' )
f.write( "25  " )
f.write( str(ee) + "\n" )
f.write( MOL.save_string_xyz() )
f.close()
--------------------------------------------------------------------------

    Molecular point group: c1
  Charge       = 0
  Multiplicity = 1
  Basis Set: CC-PVTZ
  Basis Set:
  @DF-RHF Final Energy:  -387.26041350502248
    Total Energy =                       -387.2604135050221430
    Molecular point group: c1
  Basis Set: CC-PVTZ
  Basis Set:
  Charge       = 0
  Multiplicity = 1
  Basis Set: CC-PVTZ
  Basis Set:

    Orbital Energies (a.u.)
    -----------------------

    Doubly Occupied:

       1A    -20.551372     2A    -11.320981     3A    -11.233797
       4A    -11.232846     5A    -11.221713     6A    -11.217716
       7A    -11.216274     8A    -11.215036     9A    -11.208856
      10A     -1.406379    11A     -1.105359    12A     -1.070999
      13A     -1.014657    14A     -0.943579    15A     -0.875944
      16A     -0.820972    17A     -0.788771    18A     -0.781913
      19A     -0.668127    20A     -0.663482    21A     -0.635120
      22A     -0.627443    23A     -0.602880    24A     -0.595881
      25A     -0.577249    26A     -0.550217    27A     -0.536677
      28A     -0.528362    29A     -0.508682    30A     -0.497635
      31A     -0.492149    32A     -0.479849    33A     -0.465271
      34A     -0.459354    35A     -0.442742    36A     -0.411881

  @DF-RHF Final Energy:  -387.26041332367350

   => Energetics <=

    Nuclear Repulsion Energy =            439.7047823128471578
    One-Electron Energy =               -1395.9900652196947703
    Two-Electron Energy =                 569.0248695831741088
    DFT Exchange-Correlation Energy =       0.0000000000000000
    Empirical Dispersion Energy =           0.0000000000000000
    PCM Polarization Energy =               0.0000000000000000
    EFP Energy =                            0.0000000000000000
    Total Energy =                       -387.2604133236735606
    Molecular point group: c1
  Basis Set: CC-PVTZ
  Basis Set:

  -Total Gradient:
     Atom            X                  Y                   Z
    ------   -----------------  -----------------  -----------------
       1       -0.000025982659     0.000015634450     0.000012408348
       2        0.000085362132    -0.000025492621     0.000010578325
       3       -0.000036531216     0.000015200594    -0.000009881499
       4       -0.000031489940    -0.000008476924    -0.000015816479
       5        0.000011145756    -0.000010920592     0.000005000216
       6        0.000000583884     0.000001524270    -0.000013576612
       7        0.000011855476     0.000007164553     0.000004373746
       8        0.000006535605     0.000017970611    -0.000047346216
       9        0.000001873423     0.000002877647    -0.000000990318
      10       -0.000004051261     0.000000876134     0.000010339335
      11       -0.000045509799    -0.000060389285     0.000086635645
      12       -0.000010768031     0.000003105924    -0.000002356571
      13        0.000007474997    -0.000004207341    -0.000002727888
      14        0.000085164358     0.000106339328    -0.000072212524
      15       -0.000017389362    -0.000030804276    -0.000006343617
      16       -0.000001696453     0.000012462887     0.000013027734
      17       -0.000015310596     0.000020376372     0.000042263263
      18       -0.000073744680    -0.000052486040    -0.000006506959
      19        0.000011279019     0.000007003683    -0.000008884046
      20        0.000018741460    -0.000001774055    -0.000005367493
      21       -0.000003116136    -0.000021761515     0.000005328579
      22        0.000001151804     0.000012104670     0.000020901250
      23       -0.000000493269     0.000007136856    -0.000019191154
      24        0.000024125306    -0.000004512165     0.000008935770
      25        0.000000790187    -0.000008953166    -0.000008590836

  **** Optimization is complete! (in 2 steps) ****
    Final optimized geometry and variables:
    Molecular point group: c1

    Geometry (in Angstrom), charge = 0, multiplicity = 1:

    H           -3.267590813582    -0.299383903745     1.453435007340
    C           -3.310550875156    -0.274910140144     0.355936577975
    C           -2.651051255134     0.919961490792    -0.277565223992
    O           -3.856118421725    -1.141807522220    -0.234123600467
    C           -1.216937600777     1.135736454913     0.214607322766
    H           -2.690975575366     0.805641802641    -1.353079385546
    H           -3.254331114185     1.784928106408    -0.010757727532
    C           -0.246940245623     0.041650481081    -0.226085679763
    H           -0.869092712175     2.095156069689    -0.152649413714
    H           -1.216060616572     1.209622465870     1.299392577398
    C            1.180958680962     0.278426745710     0.258425944140
    H           -0.254693493466    -0.023239906756    -1.310901393094
    H           -0.592367354138    -0.923769626771     0.134640149034
    C            2.150239914395    -0.813528928831    -0.190195366599
    H            1.518019462125     1.245671388657    -0.100965459147
    H            1.186555923654     0.336802639762     1.344635693349
    C            3.579172776264    -0.658906010019     0.333358224769
    H            2.169439986935    -0.852069156163    -1.276899186364
    H            1.765490415512    -1.774821788268     0.138761258339
    C            4.330055222159     0.555238779616    -0.208151368645
    H            4.136067214702    -1.554538427669     0.076163605586
    H            3.560513296851    -0.616489756325     1.419271517005
    H            4.357145164014     0.544083415068    -1.293123371740
    H            3.873007856505     1.487350398984     0.101650542300
    H            5.354354221021     0.562627755118     0.146427186611

  Mulliken Charges: (a.u.)
   Center  Symbol    Alpha    Beta     Spin     Total
       1     H     0.46421  0.46421  0.00000  0.07158
       2     C     2.90480  2.90480  0.00000  0.19040
       3     C     3.08914  3.08914  0.00000 -0.17828
       4     O     4.16628  4.16628  0.00000 -0.33256
       5     C     3.11600  3.11600  0.00000 -0.23200
       6     H     0.44289  0.44289  0.00000  0.11421
       7     H     0.44051  0.44051  0.00000  0.11899
       8     C     3.08977  3.08977  0.00000 -0.17953
       9     H     0.44309  0.44309  0.00000  0.11382
      10     H     0.44988  0.44988  0.00000  0.10024
      11     C     3.09292  3.09292  0.00000 -0.18585
      12     H     0.44979  0.44979  0.00000  0.10042
      13     H     0.44791  0.44791  0.00000  0.10418
      14     C     3.09568  3.09568  0.00000 -0.19135
      15     H     0.45149  0.45149  0.00000  0.09701
      16     H     0.45426  0.45426  0.00000  0.09148
      17     C     3.09076  3.09076  0.00000 -0.18152
      18     H     0.45294  0.45294  0.00000  0.09411
      19     H     0.44786  0.44786  0.00000  0.10428
      20     C     3.15261  3.15261  0.00000 -0.30522
      21     H     0.44763  0.44763  0.00000  0.10473
      22     H     0.45473  0.45473  0.00000  0.09054
      23     H     0.45453  0.45453  0.00000  0.09094
      24     H     0.45441  0.45441  0.00000  0.09117
      25     H     0.44590  0.44590  0.00000  0.10820

   Total alpha = 36.00000, Total beta = 36.00000, Total charge = -0.00000

*** Psi4 exiting successfully. Buy a developer a beer!
