  ==> Input File <==

--------------------------------------------------------------------------
set {
	reference rhf
	basis 6-31G*
}

set_num_threads( 4 )
memory 2 gb

molecule MOL {
0 1

H	 -3.504093	 -0.106700	 0.789925
O	 -3.111742	 -0.217645	 -0.065275
C	 -1.776530	 -0.069194	 -0.008374
C	 -1.111675	 0.210696	 1.181849
C	 -1.067774	 -0.206168	 -1.195374
H	 -1.668529	 0.315296	 2.097427
C	 0.260073	 0.352557	 1.180222
H	 -1.603203	 -0.422078	 -2.100344
C	 0.303825	 -0.061461	 -1.180861
H	 0.785959	 0.568545	 2.091207
C	 0.984182	 0.218375	 0.000000
H	 0.853541	 -0.167510	 -2.100441
C	 2.452467	 0.370529	 0.000000
O	 3.228994	 -0.533774	 0.000000
H	 2.809473	 1.405765	 0.000000

	symmetry c1
}
set optking {
	frozen_dihedral = ("
		7 11 13 14
	")
}

ee = optimize('scf')
oeprop('DIPOLE', 'QUADRUPOLE', 'MULLIKEN_CHARGES')
f=open( 'psi4out.xyz', 'w' )
f.write( "15  " )
f.write( str(ee) + "\n" )
f.write( MOL.save_string_xyz() )
f.close()
--------------------------------------------------------------------------

    Molecular point group: c1
  Charge       = 0
  Multiplicity = 1
  Basis Set: 6-31G*
  Basis Set:
  @DF-RHF Final Energy:  -418.27340866579237
    Total Energy =                       -418.2734086657924308
    Molecular point group: c1
  Basis Set: 6-31G*
  Basis Set:
  Basis Set: 6-31G*
  Basis Set:
  @DF-RHF Final Energy:  -418.27384037020090
    Total Energy =                       -418.2738403702009009
  Basis Set: 6-31G*
  Basis Set:
  Basis Set: 6-31G*
  Basis Set:
  @DF-RHF Final Energy:  -418.27408929828766
    Total Energy =                       -418.2740892982878904
  Basis Set: 6-31G*
  Basis Set:
  Basis Set: 6-31G*
  Basis Set:
  @DF-RHF Final Energy:  -418.27417511741078
    Total Energy =                       -418.2741751174103229
  Basis Set: 6-31G*
  Basis Set:
  Basis Set: 6-31G*
  Basis Set:
  @DF-RHF Final Energy:  -418.27417721187027
    Total Energy =                       -418.2741772118711197
  Basis Set: 6-31G*
  Basis Set:
  Charge       = 0
  Multiplicity = 1
  Basis Set: 6-31G*
  Basis Set:

    Orbital Energies (a.u.)
    -----------------------

    Doubly Occupied:

       1A    -20.603124     2A    -20.570981     3A    -11.334690
       4A    -11.313303     5A    -11.256213     6A    -11.252845
       7A    -11.243991     8A    -11.243160     9A    -11.236470
      10A     -1.422854    11A     -1.409720    12A     -1.167877
      13A     -1.037831    14A     -1.035023    15A     -0.887500
      16A     -0.858715    17A     -0.801623    18A     -0.751968
      19A     -0.704291    20A     -0.677745    21A     -0.652031
      22A     -0.628085    23A     -0.605063    24A     -0.600757
      25A     -0.589851    26A     -0.560412    27A     -0.528264
      28A     -0.502093    29A     -0.492268    30A     -0.421893
      31A     -0.353963    32A     -0.323429

  @DF-RHF Final Energy:  -418.27417766112131

   => Energetics <=

    Nuclear Repulsion Energy =            400.2864004423665278
    One-Electron Energy =               -1362.9850871994972294
    Two-Electron Energy =                 544.4245090960093876
    DFT Exchange-Correlation Energy =       0.0000000000000000
    Empirical Dispersion Energy =           0.0000000000000000
    PCM Polarization Energy =               0.0000000000000000
    EFP Energy =                            0.0000000000000000
    Total Energy =                       -418.2741776611212572
    Molecular point group: c1
  Basis Set: 6-31G*
  Basis Set:

  -Total Gradient:
     Atom            X                  Y                   Z
    ------   -----------------  -----------------  -----------------
       1       -0.000010390217     0.000010144656    -0.000002280917
       2       -0.000007725397     0.000017319370     0.000019976626
       3        0.000024926850    -0.000104092957    -0.000090513714
       4        0.000051144405     0.000033463003     0.000024289421
       5       -0.000113543942     0.000028627401     0.000035049459
       6       -0.000008538715    -0.000002286461    -0.000012067237
       7        0.000174935616    -0.003116972530     0.000525703910
       8        0.000001686307     0.000000580989     0.000008005695
       9        0.000085381940     0.000053483986     0.000066209458
      10        0.000015294013     0.000003049370    -0.000021499341
      11       -0.000278996598     0.004499283312     0.000898122595
      12       -0.000001831195    -0.000004608405     0.000005645474
      13        0.000060267507    -0.001377288350    -0.005304840185
      14       -0.000019038651    -0.000035755006     0.003845840619
      15        0.000026428093    -0.000004948376     0.000002358137

  **** Optimization is complete! (in 6 steps) ****
    Final optimized geometry and variables:
    Molecular point group: c1

    Geometry (in Angstrom), charge = 0, multiplicity = 1:

    H           -3.507856002467    -0.132305340955     0.806405976251
    O           -3.119171580386    -0.228276607864    -0.051881649106
    C           -1.780399974547    -0.067711458138     0.004482630145
    C           -1.112465739534     0.218000879204     1.184305710229
    C           -1.069934118102    -0.200222703257    -1.181381419085
    H           -1.659031898057     0.311857301419     2.107248444908
    C            0.263715061653     0.378102103626     1.174431752450
    H           -1.602684417487    -0.429165325922    -2.085127691443
    C            0.301542066572    -0.049268617257    -1.176665831151
    H            0.771183930575     0.597948640415     2.097577362559
    C            0.982432637156     0.254990152897    -0.002654306216
    H            0.847590482971    -0.171227500576    -2.095150947559
    C            2.477427262482     0.376780150212     0.006665210506
    O            3.215528364756    -0.553859001731    -0.011418501958
    H            2.879545639125     1.392754214147     0.064316887723

  Mulliken Charges: (a.u.)
   Center  Symbol    Alpha    Beta     Spin     Total
       1     H     0.27017  0.27017  0.00000  0.45966
       2     O     4.37606  4.37606  0.00000 -0.75212
       3     C     2.79216  2.79216  0.00000  0.41569
       4     C     3.14220  3.14220  0.00000 -0.28441
       5     C     3.12172  3.12172  0.00000 -0.24344
       6     H     0.39974  0.39974  0.00000  0.20052
       7     C     3.09537  3.09537  0.00000 -0.19074
       8     H     0.38687  0.38687  0.00000  0.22627
       9     C     3.09250  3.09250  0.00000 -0.18500
      10     H     0.39116  0.39116  0.00000  0.21769
      11     C     3.04309  3.04309  0.00000 -0.08618
      12     H     0.38858  0.38858  0.00000  0.22284
      13     C     2.85506  2.85506  0.00000  0.28989
      14     O     4.22076  4.22076  0.00000 -0.44152
      15     H     0.42458  0.42458  0.00000  0.15085

   Total alpha = 32.00000, Total beta = 32.00000, Total charge =  0.00000
