                              Psi4 1.0.54 Driver

  ==> Input File <==

--------------------------------------------------------------------------
set {
	reference rhf
	basis cc-pvtz
}

set_num_threads( 4 )
memory 2 gb

molecule MOL {
0 1

H	 -3.436473	 1.252944	 -1.023892
O	 -3.458596	 0.315260	 -0.960865
C	 -3.176635	 -0.080824	 0.355601
C	 -1.763371	 0.265266	 0.799691
H	 -3.321825	 -1.153438	 0.379502
H	 -3.895468	 0.357385	 1.043382
C	 -0.673390	 -0.426948	 -0.013392
H	 -1.631049	 1.344913	 0.747560
H	 -1.664587	 -0.001624	 1.849167
C	 -0.356341	 0.287463	 -1.324524
H	 -0.974897	 -1.448092	 -0.218994
H	 0.229618	 -0.491635	 0.589017
C	 0.738832	 -0.407616	 -2.131066
H	 -1.264313	 0.357725	 -1.915743
H	 -0.049683	 1.309900	 -1.113716
C	 1.149043	 0.314544	 -3.415613
H	 0.417555	 -1.417457	 -2.375711
H	 1.617814	 -0.514989	 -1.501398
C	 0.064900	 0.373044	 -4.489092
H	 2.019045	 -0.187191	 -3.828085
H	 1.469739	 1.324210	 -3.172407
H	 -0.279865	 -0.622903	 -4.748520
H	 0.443721	 0.836092	 -5.393151
H	 -0.795380	 0.946957	 -4.166373

	symmetry c1
}
set optking {
	frozen_dihedral = ("
		11 7 4 3
	")
}

ee,wfn = optimize('scf', return_wfn=True)
oeprop( wfn, 'DIPOLE', 'QUADRUPOLE', 'MULLIKEN_CHARGES')
f=open( 'psi4out.xyz', 'w' )
f.write( "24  " )
f.write( str(ee) + "\n" )
f.write( MOL.save_string_xyz() )
f.close()
--------------------------------------------------------------------------

    Molecular point group: c1
  Charge       = 0
  Multiplicity = 1
  Basis Set: CC-PVTZ
  Basis Set:
  @DF-RHF Final Energy:  -349.37653243000926
    Total Energy =                       -349.3765324300088650
    Molecular point group: c1
  Basis Set: CC-PVTZ
  Basis Set:
  Basis Set: CC-PVTZ
  Basis Set:
  @DF-RHF Final Energy:  -349.37739657534064
    Total Energy =                       -349.3773965753408675
  Basis Set: CC-PVTZ
  Basis Set:
  Basis Set: CC-PVTZ
  Basis Set:
  @DF-RHF Final Energy:  -349.37748386457844
    Total Energy =                       -349.3774838645789487
  Basis Set: CC-PVTZ
  Basis Set:
  Basis Set: CC-PVTZ
  Basis Set:
  @DF-RHF Final Energy:  -349.37749233528280
    Total Energy =                       -349.3774923352829092
  Basis Set: CC-PVTZ
  Basis Set:
  Basis Set: CC-PVTZ
  Basis Set:
  @DF-RHF Final Energy:  -349.37749373700245
    Total Energy =                       -349.3774937370022826
  Basis Set: CC-PVTZ
  Basis Set:
  Charge       = 0
  Multiplicity = 1
  Basis Set: CC-PVTZ
  Basis Set:

    Orbital Energies (a.u.)
    -----------------------

    Doubly Occupied:

       1A    -20.547628     2A    -11.266562     3A    -11.216363
       4A    -11.211500     5A    -11.209451     6A    -11.206659
       7A    -11.203856     8A    -11.201698     9A     -1.365294
      10A     -1.086700    11A     -1.047320    12A     -0.985015
      13A     -0.914717    14A     -0.853400    15A     -0.798028
      16A     -0.773837    17A     -0.683166    18A     -0.650048
      19A     -0.633025    20A     -0.610591    21A     -0.603325
      22A     -0.577256    23A     -0.551583    24A     -0.540263
      25A     -0.526391    26A     -0.510716    27A     -0.489517
      28A     -0.486334    29A     -0.468751    30A     -0.457845
      31A     -0.453202    32A     -0.438417    33A     -0.420044

  @DF-RHF Final Energy:  -349.37749356583726

   => Energetics <=

    Nuclear Repulsion Energy =            394.1172657820079053
    One-Electron Energy =               -1255.0125143518125697
    Two-Electron Energy =                 511.5177550039678067
    DFT Exchange-Correlation Energy =       0.0000000000000000
    Empirical Dispersion Energy =           0.0000000000000000
    PCM Polarization Energy =               0.0000000000000000
    EFP Energy =                            0.0000000000000000
    Total Energy =                       -349.3774935658368008
    Molecular point group: c1
  Basis Set: CC-PVTZ
  Basis Set:

  -Total Gradient:
     Atom            X                  Y                   Z
    ------   -----------------  -----------------  -----------------
       1       -0.000006573437     0.000016752937    -0.000045022558
       2        0.000000827013     0.000081150429     0.000005266108
       3       -0.000052192387    -0.000744673852     0.000514507021
       4       -0.000105714180     0.000998942805    -0.000956068898
       5        0.000002659587    -0.000015543542     0.000047649235
       6       -0.000000636559    -0.000010558227     0.000004750035
       7        0.000606467999    -0.000674915456     0.001369483202
       8        0.000029366907    -0.000025476514    -0.000001833948
       9       -0.000021881663     0.000028178687     0.000012675879
      10        0.000008369593     0.000031051353    -0.000028622857
      11       -0.000505710246     0.000335973631    -0.000915108523
      12        0.000008439368    -0.000004614846    -0.000017710731
      13       -0.000048709862    -0.000000856783    -0.000079416268
      14        0.000103649293    -0.000038244822     0.000085006669
      15       -0.000013912437     0.000057958484    -0.000011068243
      16       -0.000025163748     0.000005393059     0.000037215056
      17       -0.000002520261    -0.000015225722    -0.000035843195
      18        0.000008643409    -0.000008905539    -0.000005448707
      19        0.000006842407    -0.000022009200    -0.000000537857
      20        0.000005836120     0.000002146311     0.000020508265
      21       -0.000020906888     0.000008933324     0.000012650714
      22       -0.000009720256     0.000003128943     0.000005179696
      23        0.000013163068    -0.000007426871    -0.000009394050
      24        0.000019377159    -0.000001158588    -0.000008816045

  **** Optimization is complete! (in 6 steps) ****
    Final optimized geometry and variables:
    Molecular point group: c1

    Geometry (in Angstrom), charge = 0, multiplicity = 1:

    H           -2.568450898837     1.256781050704     0.479427403441
    O           -2.598076602244     0.317426893215     0.501157338849
    C           -2.241397218318    -0.141540476140     1.778691580614
    C           -0.806384591308     0.168038988681     2.183339075716
    H           -2.393430900720    -1.213196770693     1.760250114503
    H           -2.919721659141     0.266382397595     2.524248445832
    C            0.284101831400    -0.517016792961     1.350897096930
    H           -0.652988979878     1.245746504604     2.181211473430
    H           -0.705232202678    -0.145111560552     3.219150602601
    C            0.638296655173     0.183639481155     0.038725945530
    H           -0.023892548016    -1.536969849866     1.134858908367
    H            1.183380328348    -0.590325936941     1.955409340957
    C            1.766197985174    -0.519967207125    -0.713819835499
    H           -0.244164679313     0.243820459678    -0.582868439442
    H            0.941336964086     1.206907962094     0.254224252875
    C            2.219163096623     0.184273816566    -1.993987186138
    H            1.457699136602    -1.534582599584    -0.956125131560
    H            2.623022100364    -0.614569766315    -0.051723531138
    C            1.177571533176     0.209687637977    -3.110004422916
    H            3.111038756752    -0.313343612592    -2.362731642495
    H            2.517919296878     1.202106671277    -1.756346368981
    H            0.857495429908    -0.795196389691    -3.365983258693
    H            1.585285337950     0.663965337749    -4.006064022040
    H            0.296486535864     0.774073154863    -2.830208377740

  Mulliken Charges: (a.u.)
   Center  Symbol    Alpha    Beta     Spin     Total
       1     H     0.39375  0.39375  0.00000  0.21251
       2     O     4.20245  4.20245  0.00000 -0.40489
       3     C     2.97927  2.97927  0.00000  0.04147
       4     C     3.10983  3.10983  0.00000 -0.21965
       5     H     0.45792  0.45792  0.00000  0.08415
       6     H     0.45888  0.45888  0.00000  0.08224
       7     C     3.08988  3.08988  0.00000 -0.17975
       8     H     0.45709  0.45709  0.00000  0.08583
       9     H     0.44645  0.44645  0.00000  0.10711
      10     C     3.09669  3.09669  0.00000 -0.19338
      11     H     0.45502  0.45502  0.00000  0.08997
      12     H     0.44823  0.44823  0.00000  0.10353
      13     C     3.09485  3.09485  0.00000 -0.18970
      14     H     0.44230  0.44230  0.00000  0.11540
      15     H     0.45925  0.45925  0.00000  0.08150
      16     C     3.08963  3.08963  0.00000 -0.17926
      17     H     0.45411  0.45411  0.00000  0.09178
      18     H     0.45142  0.45142  0.00000  0.09716
      19     C     3.15172  3.15172  0.00000 -0.30345
      20     H     0.44932  0.44932  0.00000  0.10137
      21     H     0.45612  0.45612  0.00000  0.08776
      22     H     0.45464  0.45464  0.00000  0.09071
      23     H     0.44758  0.44758  0.00000  0.10483
      24     H     0.45361  0.45361  0.00000  0.09278

   Total alpha = 33.00000, Total beta = 33.00000, Total charge = -0.00000

*** Psi4 exiting successfully. Buy a developer a beer!
