  ==> Input File <==

--------------------------------------------------------------------------
set {
	reference rhf
	basis 6-31G*
}

set_num_threads( 1 )
memory 2 gb

molecule MOL {
0 1

H	 -3.420663	 1.227371	 -1.044276
O	 -3.452007	 0.283848	 -0.965577
C	 -3.181085	 -0.079926	 0.364119
C	 -1.765924	 0.277073	 0.805136
H	 -3.327791	 -1.152017	 0.410903
H	 -3.905698	 0.375695	 1.036898
C	 -0.677594	 -0.417312	 -0.014550
H	 -1.637766	 1.358238	 0.744969
H	 -1.659588	 0.017670	 1.857098
C	 0.738335	 -0.034840	 0.421385
H	 -0.814977	 -0.178223	 -1.064632
H	 -0.802730	 -1.495410	 0.071702
C	 0.933541	 -0.112700	 1.937933
H	 1.450552	 -0.686723	 -0.078828
H	 0.960556	 0.976572	 0.083350
C	 2.310190	 0.346501	 2.432026
H	 0.755392	 -1.133835	 2.271461
H	 0.173006	 0.499326	 2.418379
C	 3.474466	 -0.539118	 1.984203
H	 2.293512	 0.376147	 3.518826
H	 2.487286	 1.368908	 2.104118
H	 3.318673	 -1.571008	 2.287637
H	 4.407067	 -0.202852	 2.426942
H	 3.603597	 -0.526909	 0.907013

	symmetry c1
}
set optking {
	frozen_dihedral = ("
		20 16 13 17,
		17 13 10 7,
		11 7 4 3,
		1 2 3 5,
		7 4 3 2
	")
}

ee = energy('scf')
oeprop('DIPOLE', 'QUADRUPOLE', 'MULLIKEN_CHARGES')
f=open( 'psi4out.xyz', 'w' )
f.write( "24  " )
f.write( str(ee) + "\n" )
f.write( MOL.save_string_xyz() )
f.close()
--------------------------------------------------------------------------

    Molecular point group: c1

    Geometry (in Angstrom), charge = 0, multiplicity = 1:

       Center              X                  Y                   Z               Mass
    ------------   -----------------  -----------------  -----------------  -----------------
           H         -3.168160522509     1.252660633600    -1.886599776095     1.007825032070
           O         -3.199504522509     0.309137633600    -1.807900776095    15.994914619560
           C         -2.928582522509    -0.054636366400    -0.478204776095    12.000000000000
           C         -1.513421522509     0.302362633600    -0.037187776095    12.000000000000
           H         -3.075288522509    -1.126727366400    -0.431420776095     1.007825032070
           H         -3.653195522509     0.400984633600     0.194574223905     1.007825032070
           C         -0.425091522509    -0.392022366400    -0.856873776095    12.000000000000
           H         -1.385263522509     1.383527633600    -0.097354776095     1.007825032070
           H         -1.407085522509     0.042959633600     1.014774223905     1.007825032070
           C          0.990837477491    -0.009550366400    -0.420938776095    12.000000000000
           H         -0.562474522509    -0.152933366400    -1.906955776095     1.007825032070
           H         -0.550227522509    -1.470120366400    -0.770621776095     1.007825032070
           C          1.186043477491    -0.087410366400     1.095609223905    12.000000000000
           H          1.703054477491    -0.661433366400    -0.921151776095     1.007825032070
           H          1.213058477491     1.001861633600    -0.758973776095     1.007825032070
           C          2.562692477491     0.371790633600     1.589702223905    12.000000000000
           H          1.007894477491    -1.108545366400     1.429137223905     1.007825032070
           H          0.425508477491     0.524615633600     1.576055223905     1.007825032070
           C          3.726968477491    -0.513828366400     1.141879223905    12.000000000000
           H          2.546014477491     0.401436633600     2.676502223905     1.007825032070
           H          2.739788477491     1.394197633600     1.261794223905     1.007825032070
           H          3.571175477491    -1.545718366400     1.445313223905     1.007825032070
           H          4.659569477491    -0.177562366400     1.584618223905     1.007825032070
           H          3.856099477491    -0.501619366400     0.064689223905     1.007825032070

  Charge       = 0
  Multiplicity = 1
  Basis Set: 6-31G*
  Basis Set:

    Orbital Energies (a.u.)
    -----------------------

    Doubly Occupied:

       1A    -20.553011     2A    -11.267219     3A    -11.216186
       4A    -11.214833     5A    -11.212562     6A    -11.211902
       7A    -11.211144     8A    -11.207515     9A     -1.359669
      10A     -1.091799    11A     -1.046150    12A     -0.983734
      13A     -0.916389    14A     -0.854549    15A     -0.808887
      16A     -0.766570    17A     -0.678997    18A     -0.641962
      19A     -0.635841    20A     -0.619123    21A     -0.598607
      22A     -0.584783    23A     -0.556572    24A     -0.548951
      25A     -0.516983    26A     -0.508101    27A     -0.500813
      28A     -0.478187    29A     -0.472155    30A     -0.454542
      31A     -0.452296    32A     -0.437038    33A     -0.424933

  @DF-RHF Final Energy:  -349.24263463202101

   => Energetics <=

    Nuclear Repulsion Energy =            390.0155830119340408
    One-Electron Energy =               -1246.4523369073292542
    Two-Electron Energy =                 507.1941192633741480
    DFT Exchange-Correlation Energy =       0.0000000000000000
    Empirical Dispersion Energy =           0.0000000000000000
    PCM Polarization Energy =               0.0000000000000000
    EFP Energy =                            0.0000000000000000
    Total Energy =                       -349.2426346320210655

  Mulliken Charges: (a.u.)
   Center  Symbol    Alpha    Beta     Spin     Total
       1     H     0.28348  0.28348  0.00000  0.43303
       2     O     4.36879  4.36879  0.00000 -0.73757
       3     C     2.99408  2.99408  0.00000  0.01185
       4     C     3.17595  3.17595  0.00000 -0.35190
       5     H     0.41649  0.41649  0.00000  0.16702
       6     H     0.42842  0.42842  0.00000  0.14317
       7     C     3.15188  3.15188  0.00000 -0.30376
       8     H     0.42865  0.42865  0.00000  0.14269
       9     H     0.41843  0.41843  0.00000  0.16315
      10     C     3.15472  3.15472  0.00000 -0.30943
      11     H     0.40990  0.40990  0.00000  0.18020
      12     H     0.42356  0.42356  0.00000  0.15289
      13     C     3.15844  3.15844  0.00000 -0.31688
      14     H     0.41840  0.41840  0.00000  0.16321
      15     H     0.42527  0.42527  0.00000  0.14945
      16     C     3.15055  3.15055  0.00000 -0.30111
      17     H     0.42490  0.42490  0.00000  0.15020
      18     H     0.41937  0.41937  0.00000  0.16125
      19     C     3.24125  3.24125  0.00000 -0.48250
      20     H     0.42180  0.42180  0.00000  0.15640
      21     H     0.42386  0.42386  0.00000  0.15228
      22     H     0.42239  0.42239  0.00000  0.15523
      23     H     0.41958  0.41958  0.00000  0.16084
      24     H     0.41985  0.41985  0.00000  0.16030

   Total alpha = 33.00000, Total beta = 33.00000, Total charge =  0.00000
