                              Psi4 1.0.54 Driver

  ==> Input File <==

--------------------------------------------------------------------------
set {
	reference rhf
	basis cc-pvtz
}

set_num_threads( 4 )
memory 2 gb

molecule MOL {
0 1

H	 3.295829	 -0.417489	 -0.025692
C	 2.237431	 -0.239384	 -0.019596
C	 1.409373	 -1.035040	 0.757955
C	 1.708527	 0.780001	 -0.785514
H	 1.827874	 -1.825316	 1.350505
C	 0.051063	 -0.809916	 0.768629
H	 2.351437	 1.393746	 -1.385897
C	 0.344172	 1.004872	 -0.773756
H	 -0.605126	 -1.413971	 1.362927
C	 -0.486398	 0.214248	 0.000000
H	 -0.074196	 1.796502	 -1.367444
C	 -1.946525	 0.470130	 0.000000
O	 -2.779618	 -0.371226	 0.000000
H	 -2.227127	 1.528393	 0.000000

	symmetry c1
}
set optking {
	frozen_dihedral = ("
		8 10 12 14
	")
}

ee,wfn = optimize('scf', return_wfn=True)
oeprop( wfn, 'DIPOLE', 'QUADRUPOLE', 'MULLIKEN_CHARGES')
f=open( 'psi4out.xyz', 'w' )
f.write( "14  " )
f.write( str(ee) + "\n" )
f.write( MOL.save_string_xyz() )
f.close()
--------------------------------------------------------------------------

    Molecular point group: c1
  Charge       = 0
  Multiplicity = 1
  Basis Set: CC-PVTZ
  Basis Set:
  @DF-RHF Final Energy:  -343.54486342995585
    Total Energy =                       -343.5448634299557398
    Molecular point group: c1
  Basis Set: CC-PVTZ
  Basis Set:
  Basis Set: CC-PVTZ
  Basis Set:
  @DF-RHF Final Energy:  -343.54223322860912
    Total Energy =                       -343.5422332286085521
  Basis Set: CC-PVTZ
  Basis Set:
  Basis Set: CC-PVTZ
  Basis Set:
  @DF-RHF Final Energy:  -343.54488895519557
    Total Energy =                       -343.5448889551955745
  Basis Set: CC-PVTZ
  Basis Set:
  Basis Set: CC-PVTZ
  Basis Set:
  @DF-RHF Final Energy:  -343.54552770419269
    Total Energy =                       -343.5455277041929207
  Basis Set: CC-PVTZ
  Basis Set:
  Basis Set: CC-PVTZ
  Basis Set:
  @DF-RHF Final Energy:  -343.54554218016682
    Total Energy =                       -343.5455421801665352
  Basis Set: CC-PVTZ
  Basis Set:
  Charge       = 0
  Multiplicity = 1
  Basis Set: CC-PVTZ
  Basis Set:

    Orbital Energies (a.u.)
    -----------------------

    Doubly Occupied:

       1A    -20.556382     2A    -11.328775     3A    -11.250757
       4A    -11.247332     5A    -11.247257     6A    -11.245468
       7A    -11.243221     8A    -11.241698     9A     -1.411718
      10A     -1.176129    11A     -1.050637    12A     -1.035093
      13A     -0.891798    14A     -0.847084    15A     -0.795778
      16A     -0.725554    17A     -0.681510    18A     -0.657020
      19A     -0.630873    20A     -0.621984    21A     -0.605668
      22A     -0.553293    23A     -0.530369    24A     -0.511345
      25A     -0.508166    26A     -0.426236    27A     -0.354189
      28A     -0.351999

  @DF-RHF Final Energy:  -343.54554536476593

   => Energetics <=

    Nuclear Repulsion Energy =            323.9155041608715351
    One-Electron Energy =               -1107.4674347065370057
    Two-Electron Energy =                 440.0063851809000539
    DFT Exchange-Correlation Energy =       0.0000000000000000
    Empirical Dispersion Energy =           0.0000000000000000
    PCM Polarization Energy =               0.0000000000000000
    EFP Energy =                            0.0000000000000000
    Total Energy =                       -343.5455453647654736
    Molecular point group: c1
  Basis Set: CC-PVTZ
  Basis Set:

  -Total Gradient:
     Atom            X                  Y                   Z
    ------   -----------------  -----------------  -----------------
       1       -0.000003707063    -0.000014525833    -0.000005855681
       2        0.000009074506     0.000055592055    -0.000008704716
       3       -0.000051245766     0.000010600393     0.000058282977
       4        0.000031288152    -0.000041915151    -0.000008657261
       5        0.000006289244    -0.000006257909    -0.000004680311
       6        0.000053839360    -0.000092662223    -0.000029628827
       7       -0.000005247909     0.000008409617     0.000004306383
       8       -0.000468094142    -0.003535995830    -0.003910882933
       9        0.000001811426     0.000023985177     0.000013274985
      10        0.000528416420     0.005288241608     0.007713459684
      11       -0.000000432054     0.000001940366     0.000004351613
      12        0.000012646779    -0.001936912968    -0.010254824597
      13        0.000009482779    -0.000035870236    -0.000003078737
      14       -0.000124121735     0.000275370934     0.006432637423

  **** Optimization is complete! (in 6 steps) ****
    Final optimized geometry and variables:
    Molecular point group: c1

    Geometry (in Angstrom), charge = 0, multiplicity = 1:

    H            3.288647563585    -0.442297231263    -0.050463773012
    C            2.232849410572    -0.250316408846    -0.033479380172
    C            1.401971928551    -1.034653917107     0.749607474317
    C            1.707493203303     0.774866782218    -0.795364450678
    H            1.814133147070    -1.832516970393     1.336608842830
    C            0.043735312784    -0.798975519590     0.763943003309
    H            2.350189584865     1.374262624680    -1.410542519418
    C            0.348806158604     1.027056746874    -0.760896748274
    H           -0.614411046708    -1.415353320356     1.343873610658
    C           -0.483736680635     0.248776965226     0.023794988534
    H           -0.062429343479     1.829939800755    -1.344875112192
    C           -1.953718063391     0.470605988721    -0.018048969046
    O           -2.757840914586    -0.393176027670     0.064875841977
    H           -2.268785295776     1.518375792862    -0.065462123989

  Mulliken Charges: (a.u.)
   Center  Symbol    Alpha    Beta     Spin     Total
       1     H     0.41999  0.41999  0.00000  0.16003
       2     C     3.07414  3.07414  0.00000 -0.14828
       3     C     3.06818  3.06818  0.00000 -0.13637
       4     C     3.07171  3.07171  0.00000 -0.14343
       5     H     0.42015  0.42015  0.00000  0.15971
       6     C     3.08582  3.08582  0.00000 -0.17163
       7     H     0.42067  0.42067  0.00000  0.15866
       8     C     3.09063  3.09063  0.00000 -0.18126
       9     H     0.41226  0.41226  0.00000  0.17549
      10     C     2.96838  2.96838  0.00000  0.06324
      11     H     0.42341  0.42341  0.00000  0.15317
      12     C     2.92189  2.92189  0.00000  0.15622
      13     O     4.16634  4.16634  0.00000 -0.33268
      14     H     0.45643  0.45643  0.00000  0.08714

   Total alpha = 28.00000, Total beta = 28.00000, Total charge = -0.00000

*** Psi4 exiting successfully. Buy a developer a beer!
