                              Psi4 1.0.54 Driver

  ==> Input File <==

--------------------------------------------------------------------------
set {
	reference rhf
	basis cc-pvtz
}

set_num_threads( 4 )
memory 2 gb

molecule MOL {
0 1

H	 -2.149496	 -2.244167	 0.000000
O	 -2.454378	 -1.354528	 0.000000
C	 -1.430628	 -0.482077	 0.000000
C	 -0.943967	 -0.067339	 -1.231188
C	 -0.865382	 -0.000368	 1.161755
H	 -1.396941	 -0.453368	 -2.122718
C	 0.102434	 0.824415	 -1.291418
H	 -1.231997	 -0.312801	 2.120883
C	 0.189657	 0.898748	 1.083575
H	 0.472727	 1.139983	 -2.247261
C	 0.682150	 1.318456	 -0.135744
C	 0.775087	 1.397657	 2.304095
H	 1.496588	 2.012529	 -0.179665
N	 1.230525	 1.785787	 3.260451

	symmetry c1
}
set optking {
	frozen_dihedral = ("
		5 3 2 1
	")
}

ee,wfn = optimize('scf', return_wfn=True)
oeprop( wfn, 'DIPOLE', 'QUADRUPOLE', 'MULLIKEN_CHARGES')
f=open( 'psi4out.xyz', 'w' )
f.write( "14  " )
f.write( str(ee) + "\n" )
f.write( MOL.save_string_xyz() )
f.close()
--------------------------------------------------------------------------

    Molecular point group: c1
  Charge       = 0
  Multiplicity = 1
  Basis Set: CC-PVTZ
  Basis Set:
  @DF-RHF Final Energy:  -397.42762514308100
    Total Energy =                       -397.4276251430810589
    Molecular point group: c1
  Basis Set: CC-PVTZ
  Basis Set:
  Basis Set: CC-PVTZ
  Basis Set:
  @DF-RHF Final Energy:  -397.42853653676656
    Total Energy =                       -397.4285365367668419
  Basis Set: CC-PVTZ
  Basis Set:
  Basis Set: CC-PVTZ
  Basis Set:
  @DF-RHF Final Energy:  -397.42864713739715
    Total Energy =                       -397.4286471373970926
  Basis Set: CC-PVTZ
  Basis Set:
  Basis Set: CC-PVTZ
  Basis Set:
  @DF-RHF Final Energy:  -397.42865848209254
    Total Energy =                       -397.4286584820924872
  Basis Set: CC-PVTZ
  Basis Set:
  Charge       = 0
  Multiplicity = 1
  Basis Set: CC-PVTZ
  Basis Set:

    Orbital Energies (a.u.)
    -----------------------

    Doubly Occupied:

       1A    -20.592647     2A    -15.564775     3A    -11.316063
       4A    -11.291302     5A    -11.268388     6A    -11.262430
       7A    -11.261545     8A    -11.260036     9A    -11.256608
      10A     -1.421198    11A     -1.237899    12A     -1.187623
      13A     -1.066667    14A     -1.043030    15A     -0.896102
      16A     -0.864899    17A     -0.786084    18A     -0.714346
      19A     -0.699880    20A     -0.686696    21A     -0.637261
      22A     -0.624218    23A     -0.570133    24A     -0.559446
      25A     -0.555013    26A     -0.549218    27A     -0.500978
      28A     -0.486302    29A     -0.478438    30A     -0.367108
      31A     -0.356801

  @DF-RHF Final Energy:  -397.42866093163747

   => Energetics <=

    Nuclear Repulsion Energy =            379.9086130117822790
    One-Electron Energy =               -1291.9482810924607747
    Two-Electron Energy =                 514.6110071490410292
    DFT Exchange-Correlation Energy =       0.0000000000000000
    Empirical Dispersion Energy =           0.0000000000000000
    PCM Polarization Energy =               0.0000000000000000
    EFP Energy =                            0.0000000000000000
    Total Energy =                       -397.4286609316374097
    Molecular point group: c1
  Basis Set: CC-PVTZ
  Basis Set:

  -Total Gradient:
     Atom            X                  Y                   Z
    ------   -----------------  -----------------  -----------------
       1       -0.000016332481     0.000065468535    -0.000191164689
       2       -0.000198792668    -0.000137367772     0.000188190792
       3        0.000444341290     0.000026825516     0.000152366250
       4       -0.000030813045    -0.000009643954    -0.000097070019
       5       -0.000276486539     0.000025949989    -0.000035717605
       6        0.000005595490     0.000023522977     0.000017732177
       7       -0.000079526848    -0.000104587300    -0.000050030983
       8       -0.000029912607    -0.000012358914    -0.000015336219
       9        0.000229452513     0.000081547385    -0.000082521424
      10        0.000025441472     0.000023261686     0.000021100228
      11       -0.000065848990     0.000011247696     0.000196304778
      12        0.000039760752     0.000020083007    -0.000056365757
      13        0.000003301251     0.000011012597    -0.000046596952
      14       -0.000050179588    -0.000024961450    -0.000000890579

  **** Optimization is complete! (in 5 steps) ****
    Final optimized geometry and variables:
    Molecular point group: c1

    Geometry (in Angstrom), charge = 0, multiplicity = 1:

    H           -1.820191553606    -2.665033351912    -0.485185813168
    O           -2.112699489453    -1.770634127245    -0.517759914052
    C           -1.053683805497    -0.913464643353    -0.571731643462
    C           -0.573952929599    -0.485803552102    -1.795634189471
    C           -0.500973328710    -0.432369698717     0.596144259720
    H           -1.029262893092    -0.858438950602    -2.692256630383
    C            0.469739403403     0.417236760560    -1.851935847535
    H           -0.889501960661    -0.753939736457     1.541607347662
    C            0.547200802773     0.472065551063     0.529808323080
    H            0.838557028533     0.746785618388    -2.803456675666
    C            1.038819376462     0.900884871055    -0.691538152919
    C            1.128420061159     0.972893576186     1.750934322132
    H            1.847731492560     1.602588036345    -0.727998663948
    N            1.584403398093     1.363054472994     2.706311870958

  Mulliken Charges: (a.u.)
   Center  Symbol    Alpha    Beta     Spin     Total
       1     H     0.38606  0.38606  0.00000  0.22788
       2     O     4.18657  4.18657  0.00000 -0.37314
       3     C     2.86183  2.86183  0.00000  0.27633
       4     C     3.10688  3.10688  0.00000 -0.21375
       5     C     3.12489  3.12489  0.00000 -0.24978
       6     H     0.41197  0.41197  0.00000  0.17606
       7     C     3.06092  3.06092  0.00000 -0.12183
       8     H     0.40747  0.40747  0.00000  0.18506
       9     C     2.93072  2.93072  0.00000  0.13857
      10     H     0.41598  0.41598  0.00000  0.16803
      11     C     3.09408  3.09408  0.00000 -0.18817
      12     C     3.02398  3.02398  0.00000 -0.04797
      13     H     0.41358  0.41358  0.00000  0.17284
      14     N     3.57507  3.57507  0.00000 -0.15015

   Total alpha = 31.00000, Total beta = 31.00000, Total charge = -0.00000

*** Psi4 exiting successfully. Buy a developer a beer!
