  ==> Input File <==

--------------------------------------------------------------------------
set {
	reference rhf
	basis 6-31G*
}

set_num_threads( 4 )
memory 2 gb

molecule MOL {
0 1

H	 -3.420663	 1.227371	 -1.044276
O	 -3.452007	 0.283848	 -0.965577
C	 -3.181085	 -0.079926	 0.364119
C	 -1.765924	 0.277073	 0.805136
H	 -3.327791	 -1.152017	 0.410903
H	 -3.905698	 0.375695	 1.036898
C	 -0.677594	 -0.417312	 -0.014550
H	 -1.637766	 1.358238	 0.744969
H	 -1.659588	 0.017670	 1.857098
C	 0.423863	 0.537029	 -0.480602
H	 -1.132147	 -0.900163	 -0.874170
H	 -0.236379	 -1.212549	 0.584049
C	 1.512653	 -0.166343	 -1.295397
H	 -0.024392	 1.333829	 -1.069326
H	 0.878356	 1.016165	 0.385694
C	 2.684329	 0.731110	 -1.710013
H	 1.067014	 -0.607860	 -2.185433
H	 1.904002	 -0.995773	 -0.709985
C	 2.316056	 1.844061	 -2.692928
H	 3.452188	 0.107800	 -2.161861
H	 3.134212	 1.168730	 -0.821026
H	 1.852085	 1.436693	 -3.587311
H	 3.199987	 2.393782	 -3.001651
H	 1.625066	 2.558477	 -2.257834

	symmetry c1
}
set optking {
	frozen_dihedral = ("
		11 7 4 3
	")
}

ee = optimize('scf')
oeprop('DIPOLE', 'QUADRUPOLE', 'MULLIKEN_CHARGES')
f=open( 'psi4out.xyz', 'w' )
f.write( "24  " )
f.write( str(ee) + "\n" )
f.write( MOL.save_string_xyz() )
f.close()
--------------------------------------------------------------------------

    Molecular point group: c1
  Charge       = 0
  Multiplicity = 1
  Basis Set: 6-31G*
  Basis Set:
  @DF-RHF Final Energy:  -349.24312980096079
    Total Energy =                       -349.2431298009606166
    Molecular point group: c1
  Basis Set: 6-31G*
  Basis Set:
  Basis Set: 6-31G*
  Basis Set:
  @DF-RHF Final Energy:  -349.24331138597194
    Total Energy =                       -349.2433113859720493
  Basis Set: 6-31G*
  Basis Set:
  Basis Set: 6-31G*
  Basis Set:
  @DF-RHF Final Energy:  -349.24338403719293
    Total Energy =                       -349.2433840371931524
  Basis Set: 6-31G*
  Basis Set:
  Charge       = 0
  Multiplicity = 1
  Basis Set: 6-31G*
  Basis Set:

    Orbital Energies (a.u.)
    -----------------------

    Doubly Occupied:

       1A    -20.554145     2A    -11.267773     3A    -11.217131
       4A    -11.213688     5A    -11.212275     6A    -11.210897
       7A    -11.210550     8A    -11.206841     9A     -1.360959
      10A     -1.087043    11A     -1.046427    12A     -0.985434
      13A     -0.914325    14A     -0.850370    15A     -0.801772
      16A     -0.776208    17A     -0.679395    18A     -0.650263
      19A     -0.626395    20A     -0.619196    21A     -0.597966
      22A     -0.581298    23A     -0.559151    24A     -0.533390
      25A     -0.523797    26A     -0.510586    27A     -0.494519
      28A     -0.474089    29A     -0.465942    30A     -0.456258
      31A     -0.452447    32A     -0.450140    33A     -0.420720

  @DF-RHF Final Energy:  -349.24338391507791

   => Energetics <=

    Nuclear Repulsion Energy =            387.9903054789363637
    One-Electron Energy =               -1242.4446007866811215
    Two-Electron Energy =                 505.2109113926669579
    DFT Exchange-Correlation Energy =       0.0000000000000000
    Empirical Dispersion Energy =           0.0000000000000000
    PCM Polarization Energy =               0.0000000000000000
    EFP Energy =                            0.0000000000000000
    Total Energy =                       -349.2433839150778567
    Molecular point group: c1
  Basis Set: 6-31G*
  Basis Set:

  -Total Gradient:
     Atom            X                  Y                   Z
    ------   -----------------  -----------------  -----------------
       1        0.000024042693    -0.000047832680     0.000041692777
       2        0.000129467939    -0.000163840612    -0.000058672011
       3       -0.000079451854     0.001552169359    -0.001169691506
       4       -0.000156267867    -0.002525552649     0.002120973975
       5       -0.000048935526     0.000011678913    -0.000040219344
       6        0.000042838614     0.000006525938     0.000043346832
       7        0.000567055907     0.003076864835    -0.002011625277
       8       -0.000003958403    -0.000020588570    -0.000027245663
       9        0.000073669475     0.000026610279    -0.000048494296
      10        0.000052625563     0.000118761078    -0.000136812579
      11       -0.000419840983    -0.001992701160     0.001221069425
      12       -0.000090989136    -0.000039540766    -0.000002639858
      13       -0.000085635277    -0.000017760297     0.000060762496
      14       -0.000024592092    -0.000045393486     0.000002694143
      15        0.000014981696     0.000024556903    -0.000016326217
      16       -0.000012783880     0.000041964269     0.000068670187
      17       -0.000011887567     0.000041779111    -0.000016973228
      18        0.000000710445    -0.000045736071    -0.000007940500
      19       -0.000000783969     0.000007479976    -0.000023776968
      20       -0.000010371523    -0.000013432574     0.000023044542
      21        0.000001993088     0.000015019416    -0.000000824959
      22       -0.000003316835     0.000005148137     0.000002117693
      23        0.000005008464    -0.000009222287     0.000002520433
      24        0.000036421024    -0.000006957062    -0.000025650097

  **** Optimization is complete! (in 4 steps) ****
    Final optimized geometry and variables:
    Molecular point group: c1

    Geometry (in Angstrom), charge = 0, multiplicity = 1:

    H           -3.089179662637     0.837240681542    -0.262663976942
    O           -3.132911871760    -0.105927968072    -0.186719848386
    C           -2.866963008451    -0.476947616888     1.141437319556
    C           -1.449490550821    -0.122366478452     1.577631142163
    H           -3.018133057138    -1.548727201897     1.181785836663
    H           -3.589733498165    -0.021921050223     1.816490599098
    C           -0.356643248233    -0.803377911759     0.728819939781
    H           -1.341842648061     0.960673553780     1.518565834429
    H           -1.333034209123    -0.373344465874     2.628723907451
    C            0.747648022614     0.149740612575     0.267705861053
    H           -0.814957915696    -1.272493735648    -0.136021215281
    H            0.090723889896    -1.611923275759     1.302552544635
    C            1.843204129521    -0.554285526706    -0.535766834043
    H            0.298256318583     0.940897220702    -0.327381706699
    H            1.193349180900     0.634132186036     1.135924241616
    C            3.016517488836     0.343791318080    -0.944659025613
    H            1.404608338594    -0.999499935798    -1.427360094168
    H            2.231915991510    -1.380912365999     0.055681392453
    C            2.655450137645     1.447869147527    -1.940164940742
    H            3.790990605899    -0.280572885055    -1.383466874662
    H            3.455614940873     0.789566478724    -0.054281789620
    H            2.201674547079     1.032245261101    -2.835846161847
    H            3.541118998267     1.997584269584    -2.243969048676
    H            1.957996643259     2.163675176723    -1.517909680290

  Mulliken Charges: (a.u.)
   Center  Symbol    Alpha    Beta     Spin     Total
       1     H     0.28332  0.28332  0.00000  0.43336
       2     O     4.36792  4.36792  0.00000 -0.73584
       3     C     2.99923  2.99923  0.00000  0.00153
       4     C     3.17046  3.17046  0.00000 -0.34092
       5     H     0.41613  0.41613  0.00000  0.16773
       6     H     0.42859  0.42859  0.00000  0.14281
       7     C     3.15616  3.15616  0.00000 -0.31232
       8     H     0.42649  0.42649  0.00000  0.14702
       9     H     0.41942  0.41942  0.00000  0.16116
      10     C     3.15461  3.15461  0.00000 -0.30922
      11     H     0.40706  0.40706  0.00000  0.18587
      12     H     0.42319  0.42319  0.00000  0.15362
      13     C     3.15339  3.15339  0.00000 -0.30679
      14     H     0.42290  0.42290  0.00000  0.15421
      15     H     0.42534  0.42534  0.00000  0.14933
      16     C     3.15227  3.15227  0.00000 -0.30453
      17     H     0.42235  0.42235  0.00000  0.15529
      18     H     0.42272  0.42272  0.00000  0.15456
      19     C     3.24080  3.24080  0.00000 -0.48160
      20     H     0.42119  0.42119  0.00000  0.15762
      21     H     0.42402  0.42402  0.00000  0.15196
      22     H     0.42159  0.42159  0.00000  0.15683
      23     H     0.41975  0.41975  0.00000  0.16050
      24     H     0.42109  0.42109  0.00000  0.15782

   Total alpha = 33.00000, Total beta = 33.00000, Total charge = -0.00000
