  ==> Input File <==

--------------------------------------------------------------------------
set {
	reference rhf
	basis 6-31G*
}

set_num_threads( 4 )
memory 2 gb

molecule MOL {
0 1

O	 -2.821601	 1.309235	 -0.001213
C	 -2.668563	 0.129746	 -0.000350
C	 -3.801572	 -0.864014	 -0.000442
O	 -1.481751	 -0.454642	 0.000584
H	 -4.417280	 -0.689587	 -0.874708
H	 -3.443784	 -1.883046	 -0.000565
H	 -4.417179	 -0.689832	 0.873954
C	 -0.334255	 0.388708	 0.000906
C	 0.891947	 -0.504646	 0.000751
H	 -0.365390	 1.025305	 -0.873475
H	 -0.365484	 1.024911	 0.875569
C	 2.191998	 0.301789	 0.000897
H	 0.855148	 -1.151283	 -0.871571
H	 0.855132	 -1.151660	 0.872805
C	 3.441114	 -0.581407	 0.000108
H	 2.215074	 0.954890	 -0.869742
H	 2.215465	 0.953923	 0.872248
C	 4.282041	 -0.424119	 1.266192
H	 4.049163	 -0.342886	 -0.869638
H	 3.145091	 -1.622208	 -0.110227
H	 4.621842	 0.600601	 1.386604
H	 5.159755	 -1.062040	 1.236026
H	 3.711107	 -0.688651	 2.151668

	symmetry c1
}
set optking {
	frozen_dihedral = ("
		19 15 12 16
	")
}

ee = optimize('scf')
oeprop('DIPOLE', 'QUADRUPOLE', 'MULLIKEN_CHARGES')
f=open( 'psi4out.xyz', 'w' )
f.write( "23  " )
f.write( str(ee) + "\n" )
f.write( MOL.save_string_xyz() )
f.close()
--------------------------------------------------------------------------

    Molecular point group: c1
  Charge       = 0
  Multiplicity = 1
  Basis Set: 6-31G*
  Basis Set:
  @DF-RHF Final Energy:  -422.97361981412911
    Total Energy =                       -422.9736198141296200
    Molecular point group: c1
  Basis Set: 6-31G*
  Basis Set:
  Basis Set: 6-31G*
  Basis Set:
  @DF-RHF Final Energy:  -422.97385909263750
    Total Energy =                       -422.9738590926375537
  Basis Set: 6-31G*
  Basis Set:
  Basis Set: 6-31G*
  Basis Set:
  @DF-RHF Final Energy:  -422.97394141244098
    Total Energy =                       -422.9739414124409222
  Basis Set: 6-31G*
  Basis Set:
  Basis Set: 6-31G*
  Basis Set:
  @DF-RHF Final Energy:  -422.97380014778673
    Total Energy =                       -422.9738001477863918
  Basis Set: 6-31G*
  Basis Set:
  Basis Set: 6-31G*
  Basis Set:
  @DF-RHF Final Energy:  -422.97394640379713
    Total Energy =                       -422.9739464037966172
  Basis Set: 6-31G*
  Basis Set:
  Charge       = 0
  Multiplicity = 1
  Basis Set: 6-31G*
  Basis Set:

    Orbital Energies (a.u.)
    -----------------------

    Doubly Occupied:

       1A    -20.603051     2A    -20.540562     3A    -11.374112
       4A    -11.281313     5A    -11.232410     6A    -11.224754
       7A    -11.223616     8A    -11.221371     9A    -11.213472
      10A     -1.467978    11A     -1.360766    12A     -1.092499
      13A     -1.041016    14A     -1.003072    15A     -0.930466
      16A     -0.844661    17A     -0.801456    18A     -0.774146
      19A     -0.691299    20A     -0.685306    21A     -0.669059
      22A     -0.636104    23A     -0.612133    24A     -0.594352
      25A     -0.580836    26A     -0.571128    27A     -0.549822
      28A     -0.532532    29A     -0.527649    30A     -0.504082
      31A     -0.499806    32A     -0.475204    33A     -0.464305
      34A     -0.463877    35A     -0.451372    36A     -0.435264

  @DF-RHF Final Energy:  -422.97394621628951

   => Energetics <=

    Nuclear Repulsion Energy =            450.9641408373781815
    One-Electron Energy =               -1469.5264739516119334
    Two-Electron Energy =                 595.5883868979448152
    DFT Exchange-Correlation Energy =       0.0000000000000000
    Empirical Dispersion Energy =           0.0000000000000000
    PCM Polarization Energy =               0.0000000000000000
    EFP Energy =                            0.0000000000000000
    Total Energy =                       -422.9739462162889367
    Molecular point group: c1
  Basis Set: 6-31G*
  Basis Set:

  -Total Gradient:
     Atom            X                  Y                   Z
    ------   -----------------  -----------------  -----------------
       1       -0.000000726852    -0.000000863578    -0.000054407393
       2       -0.000009996957    -0.000007672584     0.000146238377
       3       -0.000002644471     0.000002783040    -0.000044934879
       4       -0.000009360337     0.000006876611    -0.000033966901
       5       -0.000007761904    -0.000007321070    -0.000000696501
       6        0.000000570590     0.000000645004    -0.000002450090
       7        0.000006151552     0.000006504300    -0.000000599634
       8        0.000013291914     0.000000681090     0.000023008751
       9        0.000017386204    -0.000023721128    -0.000026516730
      10        0.000004039569    -0.000003278330     0.000002809298
      11       -0.000005717064     0.000008268536    -0.000003542047
      12       -0.000631058997    -0.000960308694    -0.000708954398
      13       -0.000013114677     0.000015586662    -0.000009201020
      14        0.000010482529    -0.000014213362    -0.000012658536
      15        0.000639216076     0.000957118920     0.000736466089
      16        0.000461879165     0.000616521597     0.000469139472
      17        0.000008893619    -0.000002246398    -0.000000637688
      18       -0.000007555529     0.000020615273     0.000019662240
      19       -0.000454386664    -0.000615333904    -0.000484600356
      20       -0.000015560820     0.000003803796     0.000004228985
      21        0.000007593746    -0.000002753804    -0.000005109866
      22       -0.000008624518    -0.000013110687    -0.000010014037
      23       -0.000002996164     0.000011418709    -0.000003263134

  **** Optimization is complete! (in 6 steps) ****
    Final optimized geometry and variables:
    Molecular point group: c1

    Geometry (in Angstrom), charge = 0, multiplicity = 1:

    O           -2.772161881242     1.383097872446    -0.127200995268
    C           -2.618065351390     0.203801216791    -0.138229639578
    C           -3.750236439896    -0.790915494633    -0.141030946925
    O           -1.430791419355    -0.379559333666    -0.150270909377
    H           -4.371610726311    -0.608392102420    -1.009610170902
    H           -3.391617316447    -1.809582704805    -0.153477402724
    H           -4.360441484037    -0.625932145544     0.738919125947
    C           -0.283915629176     0.464692645902    -0.149338207289
    C            0.942841177520    -0.427194587654    -0.165315468930
    H           -0.320706848173     1.109351743648    -1.017674036470
    H           -0.310223106363     1.093046312125     0.731211064399
    C            2.243322574298     0.379732830957    -0.169287348230
    H            0.901038266293    -1.068081069618    -1.041561577028
    H            0.914945026631    -1.080650052827     0.702679955007
    C            3.510032192596    -0.505765212225    -0.144989131242
    H            2.261029034999     1.029826032011    -1.040109607163
    H            2.249961238003     1.043985275385     0.692234778223
    C            4.334722219607    -0.352594160552     1.133060748420
    H            4.134824095630    -0.280247051445    -1.003937291151
    H            3.225328439046    -1.548894165868    -0.256258274739
    H            4.688420635350     0.667585699283     1.250772060507
    H            5.202033397165    -1.005455444526     1.121883232541
    H            3.744498626031    -0.600334780400     2.011119986441

  Mulliken Charges: (a.u.)
   Center  Symbol    Alpha    Beta     Spin     Total
       1     O     4.28389  4.28389  0.00000 -0.56778
       2     C     2.61533  2.61533  0.00000  0.76933
       3     C     3.28774  3.28774  0.00000 -0.57548
       4     O     4.31258  4.31258  0.00000 -0.62515
       5     H     0.39748  0.39748  0.00000  0.20504
       6     H     0.39987  0.39987  0.00000  0.20025
       7     H     0.39751  0.39751  0.00000  0.20498
       8     C     2.99638  2.99638  0.00000  0.00723
       9     C     3.16661  3.16661  0.00000 -0.33323
      10     H     0.41066  0.41066  0.00000  0.17868
      11     H     0.41062  0.41062  0.00000  0.17875
      12     C     3.16442  3.16442  0.00000 -0.32884
      13     H     0.41364  0.41364  0.00000  0.17271
      14     H     0.41429  0.41429  0.00000  0.17142
      15     C     3.15520  3.15520  0.00000 -0.31039
      16     H     0.41771  0.41771  0.00000  0.16458
      17     H     0.41818  0.41818  0.00000  0.16364
      18     C     3.24026  3.24026  0.00000 -0.48052
      19     H     0.41810  0.41810  0.00000  0.16381
      20     H     0.41864  0.41864  0.00000  0.16272
      21     H     0.42028  0.42028  0.00000  0.15944
      22     H     0.41909  0.41909  0.00000  0.16182
      23     H     0.42151  0.42151  0.00000  0.15699

   Total alpha = 36.00000, Total beta = 36.00000, Total charge = -0.00000
