                              Psi4 1.0.54 Driver

  ==> Input File <==

--------------------------------------------------------------------------
set {
	reference rhf
	basis cc-pvtz
}

set_num_threads( 4 )
memory 2 gb

molecule MOL {
0 1

H	 -2.348494	 -1.597185	 0.001446
O	 -2.658848	 -0.704215	 -0.000460
C	 -1.605397	 0.107680	 0.001145
C	 -0.310616	 -0.658853	 0.000791
O	 -1.718351	 1.284629	 -0.000627
C	 0.926581	 0.227233	 0.000178
H	 -0.327628	 -1.313681	 -0.864448
H	 -0.327041	 -1.313334	 0.866298
C	 2.220156	 -0.582071	 -0.000088
H	 0.899945	 0.878221	 -0.866390
H	 0.900542	 0.878581	 0.866486
C	 3.466689	 0.296012	 -0.000457
H	 2.239073	 -1.234095	 -0.869382
H	 2.239505	 -1.233985	 0.869270
H	 3.493549	 0.935857	 -0.875887
H	 4.368821	 -0.304526	 -0.001199
H	 3.494559	 0.935166	 0.875458

	symmetry c1
}
set optking {
	frozen_dihedral = ("
		1 2 3 5
	")
}

ee,wfn = optimize('scf', return_wfn=True)
oeprop( wfn, 'DIPOLE', 'QUADRUPOLE', 'MULLIKEN_CHARGES')
f=open( 'psi4out.xyz', 'w' )
f.write( "17  " )
f.write( str(ee) + "\n" )
f.write( MOL.save_string_xyz() )
f.close()
--------------------------------------------------------------------------

    Molecular point group: c1
  Charge       = 0
  Multiplicity = 1
  Basis Set: CC-PVTZ
  Basis Set:
  @DF-RHF Final Energy:  -345.03820371205137
    Total Energy =                       -345.0382037120517680
    Molecular point group: c1
  Basis Set: CC-PVTZ
  Basis Set:
  Basis Set: CC-PVTZ
  Basis Set:
  @DF-RHF Final Energy:  -345.03938652059480
    Total Energy =                       -345.0393865205949169
  Basis Set: CC-PVTZ
  Basis Set:
  Basis Set: CC-PVTZ
  Basis Set:
  @DF-RHF Final Energy:  -345.03958979546161
    Total Energy =                       -345.0395897954617226
  Basis Set: CC-PVTZ
  Basis Set:
  Basis Set: CC-PVTZ
  Basis Set:
  @DF-RHF Final Energy:  -345.03940608435482
    Total Energy =                       -345.0394060843548232
  Basis Set: CC-PVTZ
  Basis Set:
  Basis Set: CC-PVTZ
  Basis Set:
  @DF-RHF Final Energy:  -345.03965487121332
    Total Energy =                       -345.0396548712129743
  Basis Set: CC-PVTZ
  Basis Set:
  Charge       = 0
  Multiplicity = 1
  Basis Set: CC-PVTZ
  Basis Set:

    Orbital Energies (a.u.)
    -----------------------

    Doubly Occupied:

       1A    -20.604549     2A    -20.535985     3A    -11.372694
       4A    -11.250600     5A    -11.226763     6A    -11.225948
       7A    -11.214307     8A     -1.471530     9A     -1.373236
      10A     -1.097784    11A     -1.021269    12A     -0.909209
      13A     -0.837396    14A     -0.808074    15A     -0.718158
      16A     -0.677025    17A     -0.662854    18A     -0.632792
      19A     -0.606777    20A     -0.580036    21A     -0.577583
      22A     -0.544934    23A     -0.515782    24A     -0.487329
      25A     -0.483029    26A     -0.482718    27A     -0.476785
      28A     -0.442211

  @DF-RHF Final Energy:  -345.03965604129081

   => Energetics <=

    Nuclear Repulsion Energy =            304.8248106238452806
    One-Electron Energy =               -1074.0542185818321741
    Two-Electron Energy =                 424.1897519166959114
    DFT Exchange-Correlation Energy =       0.0000000000000000
    Empirical Dispersion Energy =           0.0000000000000000
    PCM Polarization Energy =               0.0000000000000000
    EFP Energy =                            0.0000000000000000
    Total Energy =                       -345.0396560412910389
    Molecular point group: c1
  Basis Set: CC-PVTZ
  Basis Set:

  -Total Gradient:
     Atom            X                  Y                   Z
    ------   -----------------  -----------------  -----------------
       1        0.000007820836     0.000028414444    -0.000000255029
       2       -0.000124873733    -0.000071628132     0.000000970417
       3        0.000169238176     0.000071253869    -0.000004474855
       4       -0.000037848227     0.000006861627     0.000002369431
       5       -0.000033654761    -0.000031821685     0.000000672724
       6       -0.000008292701     0.000006754216    -0.000002206076
       7        0.000001844457     0.000006128596     0.000009789674
       8        0.000004184705     0.000000568201    -0.000007785148
       9        0.000016040070     0.000000933734     0.000001164517
      10       -0.000004453498    -0.000006547842     0.000006629496
      11       -0.000003116209    -0.000006004581    -0.000006705897
      12        0.000007036300    -0.000007642727    -0.000000215960
      13        0.000001686750     0.000000699794     0.000000464779
      14        0.000000652858    -0.000000348837    -0.000000952987
      15       -0.000000300673    -0.000000418650     0.000000062461
      16        0.000004270249     0.000003360279     0.000000208241
      17       -0.000000234606    -0.000000562305     0.000000264213

  **** Optimization is complete! (in 6 steps) ****
    Final optimized geometry and variables:
    Molecular point group: c1

    Geometry (in Angstrom), charge = 0, multiplicity = 1:

    H           -2.512210757130    -1.564982761092    -0.009224304709
    O           -2.715781628280    -0.646297864519    -0.016756422573
    C           -1.615227654563     0.110454632983    -0.013254993204
    C           -0.312228142397    -0.657326895925     0.001702093067
    O           -1.705279386663     1.282968362287    -0.021571518293
    C            0.923274553347     0.231384777632     0.005671864227
    H           -0.308187039798    -1.315394986362    -0.863919895240
    H           -0.321636896675    -1.304499926974     0.875463081190
    C            2.220182326047    -0.572425830135     0.020763561829
    H            0.897838560201     0.876269845125    -0.864805403187
    H            0.884445662186     0.887158792224     0.867479812490
    C            3.462023245546     0.312238858664     0.025018138148
    H            2.249935602337    -1.229449863929    -0.844629868634
    H            2.236340466224    -1.218737023904     0.894544485085
    H            3.492560627444     0.946319187290    -0.854318671029
    H            4.367024177708    -0.283714670965     0.035735763895
    H            3.478901938156     0.957065723080     0.896876864198

  Mulliken Charges: (a.u.)
   Center  Symbol    Alpha    Beta     Spin     Total
       1     H     0.38829  0.38829  0.00000  0.22343
       2     O     4.14474  4.14474  0.00000 -0.28947
       3     C     2.80187  2.80187  0.00000  0.39626
       4     C     3.13084  3.13084  0.00000 -0.26168
       5     O     4.17628  4.17628  0.00000 -0.35256
       6     C     3.08573  3.08573  0.00000 -0.17145
       7     H     0.44286  0.44286  0.00000  0.11428
       8     H     0.44287  0.44287  0.00000  0.11426
       9     C     3.08682  3.08682  0.00000 -0.17365
      10     H     0.44315  0.44315  0.00000  0.11371
      11     H     0.44315  0.44315  0.00000  0.11369
      12     C     3.14936  3.14936  0.00000 -0.29873
      13     H     0.45528  0.45528  0.00000  0.08943
      14     H     0.45529  0.45529  0.00000  0.08942
      15     H     0.45287  0.45287  0.00000  0.09425
      16     H     0.44772  0.44772  0.00000  0.10457
      17     H     0.45287  0.45287  0.00000  0.09425

   Total alpha = 28.00000, Total beta = 28.00000, Total charge =  0.00000

*** Psi4 exiting successfully. Buy a developer a beer!
