  ==> Input File <==

--------------------------------------------------------------------------
set {
	reference rhf
	basis cc-pvtz
}

set_num_threads( 4 )
memory 2 gb

molecule MOL {
0 1

O	 0.074770	 1.259872	 0.000487
C	 0.029490	 0.077183	 0.000078
C	 -1.232113	 -0.748027	 0.000015
O	 1.106773	 -0.690081	 -0.000204
C	 -2.501422	 0.088592	 -0.000052
H	 -1.188777	 -1.400384	 -0.865133
H	 -1.188857	 -1.400312	 0.865225
H	 -2.548170	 0.725504	 -0.873205
H	 -3.371613	 -0.556398	 -0.000040
H	 -2.548215	 0.725571	 0.873047
C	 0.950871	 -2.027676	 0.428953
H	 0.599243	 -2.062075	 1.449448
H	 1.926776	 -2.479481	 0.356111
H	 0.249356	 -2.551460	 -0.203323

	symmetry c1
}
set optking {
	frozen_dihedral = ("
		11 4 2 3
	")
}

ee = optimize('scf')
oeprop('DIPOLE', 'QUADRUPOLE', 'MULLIKEN_CHARGES')
f=open( 'psi4out.xyz', 'w' )
f.write( "14  " )
f.write( str(ee) + "\n" )
f.write( MOL.save_string_xyz() )
f.close()
--------------------------------------------------------------------------

    Molecular point group: c1
  Charge       = 0
  Multiplicity = 1
  Basis Set: CC-PVTZ
  Basis Set:
  @DF-RHF Final Energy:  -305.96312898588747
    Total Energy =                       -305.9631289858876926
    Molecular point group: c1
  Basis Set: CC-PVTZ
  Basis Set:
  Basis Set: CC-PVTZ
  Basis Set:
  @DF-RHF Final Energy:  -305.96278789151370
    Total Energy =                       -305.9627878915136421
  Basis Set: CC-PVTZ
  Basis Set:
  Basis Set: CC-PVTZ
  Basis Set:
  @DF-RHF Final Energy:  -305.97075775153058
    Total Energy =                       -305.9707577515305275
  Basis Set: CC-PVTZ
  Basis Set:
  Basis Set: CC-PVTZ
  Basis Set:
  @DF-RHF Final Energy:  -305.97197865284636
    Total Energy =                       -305.9719786528462464
  Basis Set: CC-PVTZ
  Basis Set:
  @DF-RHF Final Energy:  -305.97228520134354
    Total Energy =                       -305.9722852013434249
  Basis Set: CC-PVTZ
  Basis Set:
  @DF-RHF Final Energy:  -305.97288139275770
    Total Energy =                       -305.9728813927578130
  Basis Set: CC-PVTZ
  Basis Set:
  Basis Set: CC-PVTZ
  Basis Set:
  @DF-RHF Final Energy:  -305.97291858731080
    Total Energy =                       -305.9729185873110282
  Basis Set: CC-PVTZ
  Basis Set:
  Basis Set: CC-PVTZ
  Basis Set:
  @DF-RHF Final Energy:  -305.97292079448329
    Total Energy =                       -305.9729207944836844
  Basis Set: CC-PVTZ
  Basis Set:
  Charge       = 0
  Multiplicity = 1
  Basis Set: CC-PVTZ
  Basis Set:

    Orbital Energies (a.u.)
    -----------------------

    Doubly Occupied:

       1A    -20.594639     2A    -20.530081     3A    -11.366911
       4A    -11.293944     5A    -11.246806     6A    -11.218992
       7A     -1.466476     8A     -1.368830     9A     -1.064289
      10A     -0.987011    11A     -0.900351    12A     -0.769548
      13A     -0.707232    14A     -0.690270    15A     -0.675913
      16A     -0.626723    17A     -0.607281    18A     -0.559654
      19A     -0.554282    20A     -0.527181    21A     -0.511611
      22A     -0.504003    23A     -0.452943    24A     -0.436207

  @DF-RHF Final Energy:  -305.97292109475859

   => Energetics <=

    Nuclear Repulsion Energy =            248.0385156016369592
    One-Electron Energy =                -908.7005151566029326
    Two-Electron Energy =                 354.6890784602073836
    DFT Exchange-Correlation Energy =       0.0000000000000000
    Empirical Dispersion Energy =           0.0000000000000000
    PCM Polarization Energy =               0.0000000000000000
    EFP Energy =                            0.0000000000000000
    Total Energy =                       -305.9729210947585898
    Molecular point group: c1
  Basis Set: CC-PVTZ
  Basis Set:

  -Total Gradient:
     Atom            X                  Y                   Z
    ------   -----------------  -----------------  -----------------
       1       -0.000019288655     0.000008730966    -0.000001436334
       2        0.000181150359     0.000223074687     0.003048949484
       3        0.000000357478     0.000020049243    -0.001424578748
       4       -0.000472908155    -0.000697583013    -0.003177738670
       5        0.000001602245    -0.000003507441     0.000003578007
       6        0.000006967023    -0.000001282125     0.000002604911
       7       -0.000000279646     0.000007013433    -0.000004654480
       8        0.000001941817     0.000000426773    -0.000004139867
       9        0.000002239047     0.000000981680    -0.000000241971
      10       -0.000000309296     0.000000765084     0.000001600083
      11        0.000300278991     0.000465946522     0.001566064432
      12        0.000007379835    -0.000031483502    -0.000000966388
      13       -0.000002599742    -0.000004984906    -0.000002371814
      14       -0.000006531302     0.000011852596    -0.000006668645

  **** Optimization is complete! (in 9 steps) ****
    Final optimized geometry and variables:
    Molecular point group: c1

    Geometry (in Angstrom), charge = 0, multiplicity = 1:

    O            0.314912302170     1.552592662034    -0.085849733583
    C            0.234982636179     0.377487336462    -0.046288750192
    C           -1.083466851681    -0.366156100594    -0.057862470329
    O            1.352878275822    -0.348152332202    -0.052001959392
    C           -2.282831315794     0.567104062223    -0.117601054532
    H           -1.075580336558    -1.036593673986    -0.911100737738
    H           -1.139364865156    -0.998814893554     0.821082610784
    H           -2.250963151060     1.182824358382    -1.005539649805
    H           -3.199809290489    -0.009540720874    -0.129769751753
    H           -2.302919736965     1.227329180798     0.738401703296
    C            1.387061526350    -1.698170792318     0.336451579570
    H            1.051454072469    -1.823772925397     1.357837620772
    H            2.419750931597    -1.999364446666     0.269827487181
    H            0.796919235353    -2.324910253123    -0.318637847751

  Mulliken Charges: (a.u.)
   Center  Symbol    Alpha    Beta     Spin     Total
       1     O     4.17893  4.17893  0.00000 -0.35786
       2     C     2.80704  2.80704  0.00000  0.38591
       3     C     3.12192  3.12192  0.00000 -0.24385
       4     O     4.13017  4.13017  0.00000 -0.26034
       5     C     3.13916  3.13916  0.00000 -0.27832
       6     H     0.43918  0.43918  0.00000  0.12163
       7     H     0.44296  0.44296  0.00000  0.11407
       8     H     0.44479  0.44479  0.00000  0.11042
       9     H     0.45142  0.45142  0.00000  0.09715
      10     H     0.44606  0.44606  0.00000  0.10788
      11     C     3.04518  3.04518  0.00000 -0.09035
      12     H     0.45888  0.45888  0.00000  0.08224
      13     H     0.43348  0.43348  0.00000  0.13304
      14     H     0.46081  0.46081  0.00000  0.07839

   Total alpha = 24.00000, Total beta = 24.00000, Total charge = -0.00000
