                              Psi4 1.0.54 Driver

  ==> Input File <==

--------------------------------------------------------------------------
set {
	reference rhf
	basis cc-pvtz
}

set_num_threads( 4 )
memory 2 gb

molecule MOL {
0 1

H	 2.458868	 -2.369289	 0.278170
O	 3.181053	 -2.166900	 -0.286911
C	 2.842018	 -2.432756	 -1.622445
C	 1.863255	 -1.427779	 -2.211283
H	 3.771130	 -2.399552	 -2.175281
H	 2.445265	 -3.441513	 -1.719637
C	 0.480286	 -1.445915	 -1.564046
H	 2.294306	 -0.434810	 -2.125465
H	 1.766032	 -1.639085	 -3.273496
C	 -0.484354	 -0.447670	 -2.202650
H	 0.576859	 -1.228502	 -0.505553
H	 0.059810	 -2.447208	 -1.640847
C	 -1.907464	 -0.474944	 -1.642052
H	 -0.078114	 0.555821	 -2.101647
H	 -0.531865	 -0.647987	 -3.269460
C	 -2.041121	 -0.006551	 -0.194127
H	 -2.532563	 0.155803	 -2.268100
H	 -2.309284	 -1.481647	 -1.732842
C	 -3.489218	 0.042606	 0.286507
H	 -1.598166	 0.982155	 -0.095542
H	 -1.476098	 -0.660025	 0.463691
C	 -4.219984	 1.311773	 -0.139038
H	 -4.022855	 -0.824300	 -0.093339
H	 -3.510372	 -0.038577	 1.370031
H	 -4.244251	 1.405725	 -1.219696
H	 -5.244345	 1.313233	 0.215630
H	 -3.732090	 2.196311	 0.257073

	symmetry c1
}
set optking {
	frozen_dihedral = ("
		20 16 19 22
	")
}

ee,wfn = optimize('scf', return_wfn=True)
oeprop( wfn, 'DIPOLE', 'QUADRUPOLE', 'MULLIKEN_CHARGES')
f=open( 'psi4out.xyz', 'w' )
f.write( "27  " )
f.write( str(ee) + "\n" )
f.write( MOL.save_string_xyz() )
f.close()
--------------------------------------------------------------------------

    Molecular point group: c1
  Charge       = 0
  Multiplicity = 1
  Basis Set: CC-PVTZ
  Basis Set:
  @DF-RHF Final Energy:  -388.42509202310265
    Total Energy =                       -388.4250920231028203
    Molecular point group: c1
  Basis Set: CC-PVTZ
  Basis Set:
  Basis Set: CC-PVTZ
  Basis Set:
  @DF-RHF Final Energy:  -388.42527430758525
    Total Energy =                       -388.4252743075851413
  Basis Set: CC-PVTZ
  Basis Set:
  Basis Set: CC-PVTZ
  Basis Set:
  @DF-RHF Final Energy:  -388.42530477643862
    Total Energy =                       -388.4253047764384519
  Basis Set: CC-PVTZ
  Basis Set:
  Basis Set: CC-PVTZ
  Basis Set:
  @DF-RHF Final Energy:  -388.42529751341607
    Total Energy =                       -388.4252975134160124
  Basis Set: CC-PVTZ
  Basis Set:
  Basis Set: CC-PVTZ
  Basis Set:
  @DF-RHF Final Energy:  -388.42530904569293
    Total Energy =                       -388.4253090456928703
  Basis Set: CC-PVTZ
  Basis Set:
  Charge       = 0
  Multiplicity = 1
  Basis Set: CC-PVTZ
  Basis Set:

    Orbital Energies (a.u.)
    -----------------------

    Doubly Occupied:

       1A    -20.545301     2A    -11.264933     3A    -11.216653
       4A    -11.214542     5A    -11.214138     6A    -11.213181
       7A    -11.212954     8A    -11.212006     9A    -11.207098
      10A     -1.363200    11A     -1.095926    12A     -1.061788
      13A     -1.010867    14A     -0.947788    15A     -0.892251
      16A     -0.826038    17A     -0.799428    18A     -0.773656
      19A     -0.696197    20A     -0.647804    21A     -0.632946
      22A     -0.618392    23A     -0.609142    24A     -0.590406
      25A     -0.579215    26A     -0.554680    27A     -0.539355
      28A     -0.528541    29A     -0.508638    30A     -0.494439
      31A     -0.486644    32A     -0.474677    33A     -0.470016
      34A     -0.461377    35A     -0.449375    36A     -0.440394
      37A     -0.425759

  @DF-RHF Final Energy:  -388.42530905480652

   => Energetics <=

    Nuclear Repulsion Energy =            461.5606198201272150
    One-Electron Energy =               -1441.4123677627289908
    Two-Electron Energy =                 591.4264388877950296
    DFT Exchange-Correlation Energy =       0.0000000000000000
    Empirical Dispersion Energy =           0.0000000000000000
    PCM Polarization Energy =               0.0000000000000000
    EFP Energy =                            0.0000000000000000
    Total Energy =                       -388.4253090548068030
    Molecular point group: c1
  Basis Set: CC-PVTZ
  Basis Set:

  -Total Gradient:
     Atom            X                  Y                   Z
    ------   -----------------  -----------------  -----------------
       1        0.000001265773    -0.000000331127     0.000001565116
       2       -0.000003535550    -0.000000206843     0.000000060173
       3        0.000001057045    -0.000001621489    -0.000003928809
       4       -0.000006053224    -0.000003320520    -0.000006365759
       5       -0.000000687279    -0.000000119251    -0.000001422479
       6        0.000000501369    -0.000000700382     0.000001703875
       7        0.000003106249     0.000006623908     0.000006435259
       8       -0.000000828172    -0.000002274720     0.000003076558
       9        0.000001994501     0.000002147784    -0.000003546498
      10        0.000002804063    -0.000002390991    -0.000003911836
      11       -0.000002837974     0.000002985641     0.000001864120
      12        0.000002001213     0.000004131883     0.000001771411
      13        0.000002020779    -0.000004417619     0.000008118755
      14       -0.000000824418    -0.000001031599     0.000003151401
      15        0.000003721589    -0.000000120118    -0.000002500491
      16        0.000970595775    -0.000359833956     0.003005360476
      17        0.000001654217     0.000000324802    -0.000001119013
      18       -0.000004301518    -0.000001136361    -0.000001522800
      19       -0.000831337602    -0.000859869979    -0.002359149502
      20       -0.000620331029     0.000523788537    -0.002002141678
      21        0.000001795249     0.000000725198     0.000001824765
      22        0.000482335681     0.000695808358     0.001350170206
      23       -0.000002535736    -0.000000667157     0.000000134329
      24       -0.000000546285    -0.000000649603     0.000000737143
      25        0.000000839497    -0.000001027666     0.000000160339
      26       -0.000001840081     0.000001588067    -0.000001378637
      27       -0.000000034130     0.000001595202     0.000000853578

  **** Optimization is complete! (in 6 steps) ****
    Final optimized geometry and variables:
    Molecular point group: c1

    Geometry (in Angstrom), charge = 0, multiplicity = 1:

    H            2.836764960561    -1.550450223525     1.332136202693
    O            3.558888715140    -1.349847005587     0.766561342996
    C            3.221978006670    -1.624690566180    -0.567635185412
    C            2.240507491490    -0.626534161706    -1.163350436906
    H            4.151485369493    -1.591856929237    -1.119806681133
    H            2.828555901594    -2.635253637654    -0.659045872439
    C            0.858366413051    -0.642036415664    -0.514409380819
    H            2.669726658094     0.367863682486    -1.085959853576
    H            2.142578879722    -0.846512190938    -2.223712248441
    C           -0.110837305165     0.344369624273    -1.164344269084
    H            0.955004544871    -0.411330491722     0.541242157184
    H            0.441940293078    -1.645849966941    -0.578520470813
    C           -1.537023169587     0.309200525071    -0.611794721892
    H            0.286846018330     1.351632596330    -1.067069317737
    H           -0.150514683592     0.137389495935    -2.230215371477
    C           -1.675788787761     0.760205953979     0.843866142746
    H           -2.157329025077     0.940786971216    -1.239873586672
    H           -1.935090602843    -0.698122822498    -0.711056429626
    C           -3.130760511485     0.851499340578     1.318464831701
    H           -1.203666087206     1.733966001598     0.951737259568
    H           -1.135596302019     0.076231456168     1.488231385340
    C           -3.839527879378     2.139804851463     0.907267495258
    H           -3.685876880930    -0.007261381506     0.951537805146
    H           -3.152904686655     0.783346191253     2.401659421823
    H           -3.865779205292     2.262732245030    -0.169579828820
    H           -4.864173661527     2.149320464586     1.261199530597
    H           -3.337266744191     3.005448436530     1.325744312227

  Mulliken Charges: (a.u.)
   Center  Symbol    Alpha    Beta     Spin     Total
       1     H     0.39230  0.39230  0.00000  0.21540
       2     O     4.20554  4.20554  0.00000 -0.41108
       3     C     2.97997  2.97997  0.00000  0.04006
       4     C     3.08928  3.08928  0.00000 -0.17855
       5     H     0.44855  0.44855  0.00000  0.10290
       6     H     0.46973  0.46973  0.00000  0.06054
       7     C     3.10288  3.10288  0.00000 -0.20577
       8     H     0.45079  0.45079  0.00000  0.09841
       9     H     0.45526  0.45526  0.00000  0.08949
      10     C     3.09757  3.09757  0.00000 -0.19514
      11     H     0.45588  0.45588  0.00000  0.08823
      12     H     0.45365  0.45365  0.00000  0.09270
      13     C     3.09965  3.09965  0.00000 -0.19930
      14     H     0.45129  0.45129  0.00000  0.09742
      15     H     0.44826  0.44826  0.00000  0.10347
      16     C     3.09719  3.09719  0.00000 -0.19438
      17     H     0.44610  0.44610  0.00000  0.10779
      18     H     0.45395  0.45395  0.00000  0.09210
      19     C     3.08963  3.08963  0.00000 -0.17925
      20     H     0.45487  0.45487  0.00000  0.09026
      21     H     0.44779  0.44779  0.00000  0.10442
      22     C     3.14834  3.14834  0.00000 -0.29668
      23     H     0.45507  0.45507  0.00000  0.08986
      24     H     0.44853  0.44853  0.00000  0.10294
      25     H     0.45535  0.45535  0.00000  0.08931
      26     H     0.44773  0.44773  0.00000  0.10455
      27     H     0.45485  0.45485  0.00000  0.09030

   Total alpha = 37.00000, Total beta = 37.00000, Total charge = -0.00000

*** Psi4 exiting successfully. Buy a developer a beer!
