  ==> Input File <==

--------------------------------------------------------------------------
set {
	reference rhf
	basis cc-pvtz
}

set_num_threads( 4 )
memory 2 gb

molecule MOL {
0 1

O	 -2.926000	 1.328000	 -0.000000
C	 -2.773000	 0.149000	 -0.000000
C	 -3.906000	 -0.845000	 0.000000
O	 -1.586000	 -0.435000	 -0.000000
H	 -4.522000	 -0.670000	 -0.874000
H	 -3.549000	 -1.864000	 -0.000000
H	 -4.521000	 -0.670000	 0.875000
C	 -0.439000	 0.408000	 0.000000
C	 0.787000	 -0.485000	 -0.000000
H	 -0.470000	 1.044000	 -0.874000
H	 -0.470000	 1.044000	 0.875000
C	 2.087000	 0.321000	 0.000000
H	 0.751000	 -1.132000	 -0.872000
H	 0.751000	 -1.133000	 0.872000
C	 3.337000	 -0.562000	 -0.000000
H	 2.111000	 0.974000	 -0.871000
H	 2.111000	 0.974000	 0.871000
C	 4.635000	 0.243000	 0.000000
H	 3.316000	 -1.214000	 -0.871000
H	 3.316000	 -1.214000	 0.870000
H	 4.701000	 0.881000	 -0.877000
H	 5.502000	 -0.410000	 -0.000000
H	 4.701000	 0.881000	 0.877000

	symmetry c1
}
ee = optimize('scf')
oeprop('DIPOLE', 'QUADRUPOLE', 'MULLIKEN_CHARGES')
f=open( 'psi4out.xyz', 'w' )
f.write( "23  " )
f.write( str(ee) + "\n" )
f.write( MOL.save_string_xyz() )
f.close()
--------------------------------------------------------------------------

    Molecular point group: c1
  Charge       = 0
  Multiplicity = 1
  Basis Set: CC-PVTZ
  Basis Set:
  @DF-RHF Final Energy:  -423.13469355467055
    Total Energy =                       -423.1346935546700934
    Molecular point group: c1
  Basis Set: CC-PVTZ
  Basis Set:
  Basis Set: CC-PVTZ
  Basis Set:
  @DF-RHF Final Energy:  -423.13481577299342
    Total Energy =                       -423.1348157729936474
  Basis Set: CC-PVTZ
  Basis Set:
  Charge       = 0
  Multiplicity = 1
  Basis Set: CC-PVTZ
  Basis Set:

    Orbital Energies (a.u.)
    -----------------------

    Doubly Occupied:

       1A    -20.595903     2A    -20.529537     3A    -11.366388
       4A    -11.279458     5A    -11.230624     6A    -11.222319
       7A    -11.221344     8A    -11.219470     9A    -11.210892
      10A     -1.471090    11A     -1.364005    12A     -1.095337
      13A     -1.043283    14A     -1.004281    15A     -0.931722
      16A     -0.842358    17A     -0.803107    18A     -0.776050
      19A     -0.694874    20A     -0.688314    21A     -0.671162
      22A     -0.648206    23A     -0.607074    24A     -0.589213
      25A     -0.584108    26A     -0.567192    27A     -0.559690
      28A     -0.538573    29A     -0.524120    30A     -0.505631
      31A     -0.491774    32A     -0.478276    33A     -0.471388
      34A     -0.466894    35A     -0.455253    36A     -0.438914

  @DF-RHF Final Energy:  -423.13481501087233

   => Energetics <=

    Nuclear Repulsion Energy =            450.4520584974877693
    One-Electron Energy =               -1468.7980984067705776
    Two-Electron Energy =                 595.2112248984102507
    DFT Exchange-Correlation Energy =       0.0000000000000000
    Empirical Dispersion Energy =           0.0000000000000000
    PCM Polarization Energy =               0.0000000000000000
    EFP Energy =                            0.0000000000000000
    Total Energy =                       -423.1348150108725577
    Molecular point group: c1
  Basis Set: CC-PVTZ
  Basis Set:

  -Total Gradient:
     Atom            X                  Y                   Z
    ------   -----------------  -----------------  -----------------
       1       -0.000045980950    -0.000064394510    -0.000536654076
       2       -0.000084030506     0.000077872267     0.001442236531
       3        0.000049374254     0.000055045486    -0.000465319246
       4       -0.000069659089    -0.000100932952    -0.000370532118
       5       -0.000055034029    -0.000067055610     0.000036627425
       6       -0.000006452263     0.000022474800    -0.000020435862
       7        0.000096335246     0.000049163147    -0.000039625390
       8        0.000205221397     0.000146926838    -0.000069787037
       9       -0.000011550866    -0.000033785755     0.000023745155
      10       -0.000033137182    -0.000038495921     0.000031251027
      11       -0.000068122191    -0.000063152893    -0.000021573718
      12       -0.000051562911     0.000017240533    -0.000002561767
      13        0.000006285794     0.000030558096     0.000023644214
      14        0.000011656736     0.000018041698    -0.000026876109
      15        0.000030930763    -0.000024104434    -0.000013312950
      16        0.000002953493    -0.000029993440     0.000032638365
      17        0.000001862365    -0.000026680351    -0.000037306087
      18        0.000043699143    -0.000006803516     0.000006024645
      19       -0.000002739239     0.000032472356     0.000036519160
      20       -0.000004073816     0.000023870097    -0.000031772449
      21       -0.000007364665    -0.000028267645     0.000027894312
      22       -0.000004533174     0.000033354763     0.000001954841
      23       -0.000004078321    -0.000023353054    -0.000026778865

  **** Optimization is complete! (in 3 steps) ****
    Final optimized geometry and variables:
    Molecular point group: c1

    Geometry (in Angstrom), charge = 0, multiplicity = 1:

    O           -2.817696807068     1.304178069791     0.001045586020
    C           -2.664672753608     0.129868927840     0.003507110779
    C           -3.797908475560    -0.860100076092    -0.001145001053
    O           -1.481216934558    -0.452707764819     0.001091974734
    H           -4.408836196913    -0.679688929647    -0.875387551758
    H           -3.443486553827    -1.878442971630    -0.002769663430
    H           -4.412122923219    -0.683688147201     0.871604453911
    C           -0.332055344027     0.384012501923    -0.000250457251
    C            0.892251540700    -0.506058813678    -0.000294783544
    H           -0.360822746096     1.020204991692    -0.874146231173
    H           -0.359817106021     1.021310055346     0.872860758589
    C            2.188198321128     0.299472767457    -0.001416327064
    H            0.857045365542    -1.152781058458    -0.871031295391
    H            0.857910058941    -1.151797748603     0.871201884276
    C            3.437150785794    -0.577592855808    -0.000990897065
    H            2.209564303370     0.950707303573    -0.871712256889
    H            2.210061787960     0.952234036563     0.867720960437
    C            4.732398323362     0.226981971928    -0.000914003863
    H            3.417320526720    -1.229121425848    -0.869997795545
    H            3.416992988882    -1.228706771790     0.868337026456
    H            4.797903136962     0.863451034839    -0.876963547057
    H            5.598517021201    -0.424436067823    -0.000420021944
    H            4.797414266691     0.864118561026     0.874690784790

  Mulliken Charges: (a.u.)
   Center  Symbol    Alpha    Beta     Spin     Total
       1     O     4.20242  4.20242  0.00000 -0.40483
       2     C     2.81525  2.81525  0.00000  0.36951
       3     C     3.14007  3.14007  0.00000 -0.28013
       4     O     4.14464  4.14464  0.00000 -0.28929
       5     H     0.44203  0.44203  0.00000  0.11594
       6     H     0.44185  0.44185  0.00000  0.11630
       7     H     0.44221  0.44221  0.00000  0.11558
       8     C     2.97902  2.97902  0.00000  0.04195
       9     C     3.08098  3.08098  0.00000 -0.16195
      10     H     0.45398  0.45398  0.00000  0.09204
      11     H     0.45404  0.45404  0.00000  0.09192
      12     C     3.09772  3.09772  0.00000 -0.19543
      13     H     0.45082  0.45082  0.00000  0.09836
      14     H     0.45082  0.45082  0.00000  0.09836
      15     C     3.08504  3.08504  0.00000 -0.17008
      16     H     0.45289  0.45289  0.00000  0.09422
      17     H     0.45291  0.45291  0.00000  0.09419
      18     C     3.14958  3.14958  0.00000 -0.29915
      19     H     0.45347  0.45347  0.00000  0.09305
      20     H     0.45349  0.45349  0.00000  0.09302
      21     H     0.45454  0.45454  0.00000  0.09091
      22     H     0.44768  0.44768  0.00000  0.10463
      23     H     0.45455  0.45455  0.00000  0.09091

   Total alpha = 36.00000, Total beta = 36.00000, Total charge =  0.00000
