  ==> Input File <==

--------------------------------------------------------------------------
set {
	reference rhf
	basis 6-31G*
}

set_num_threads( 1 )
memory 2 gb

molecule MOL {
0 1

H	 2.591676	 2.013956	 0.335017
O	 3.341076	 1.666752	 -0.126416
C	 3.569581	 0.339145	 0.272707
C	 2.539767	 -0.640285	 -0.279495
H	 4.553106	 0.084646	 -0.100901
H	 3.608576	 0.269204	 1.359154
C	 1.310054	 0.031258	 -0.895694
H	 3.024411	 -1.267262	 -1.023395
H	 2.225819	 -1.295256	 0.531565
C	 0.271133	 -0.978452	 -1.391626
H	 1.624580	 0.663432	 -1.721403
H	 0.847293	 0.686482	 -0.157538
C	 -1.018808	 -0.358045	 -1.940706
H	 0.721197	 -1.608782	 -2.156461
H	 0.011353	 -1.640423	 -0.568212
C	 -0.847015	 0.451527	 -3.228945
H	 -1.730896	 -1.159275	 -2.127193
H	 -1.468277	 0.272885	 -1.175367
C	 -2.174516	 0.960870	 -3.794406
H	 -0.352013	 -0.165585	 -3.977448
H	 -0.191594	 1.301006	 -3.052561
C	 -2.005275	 1.774732	 -5.076846
H	 -2.831282	 0.115479	 -3.987951
H	 -2.675111	 1.569743	 -3.044363
H	 -1.536440	 1.182757	 -5.857860
H	 -2.963252	 2.119609	 -5.453641
H	 -1.382710	 2.648889	 -4.907655

	symmetry c1
}
set optking {
	frozen_dihedral = ("
		14 10 7 4,
		14 10 13 16,
		10 7 4 8,
		10 13 16 20,
		20 16 19 22,
		4 3 2 1
	")
}

ee = energy('scf')
oeprop('DIPOLE', 'QUADRUPOLE', 'MULLIKEN_CHARGES')
f=open( 'psi4out.xyz', 'w' )
f.write( "27  " )
f.write( str(ee) + "\n" )
f.write( MOL.save_string_xyz() )
f.close()
--------------------------------------------------------------------------

    Molecular point group: c1

    Geometry (in Angstrom), charge = 0, multiplicity = 1:

       Center              X                  Y                   Z               Mass
    ------------   -----------------  -----------------  -----------------  -----------------
           H          1.997776148695     1.618481477170     2.144039743107     1.007825032070
           O          2.747176148695     1.271277477170     1.682606743107    15.994914619560
           C          2.975681148695    -0.056329522830     2.081729743107    12.000000000000
           C          1.945867148695    -1.035759522830     1.529527743107    12.000000000000
           H          3.959206148695    -0.310828522830     1.708121743107     1.007825032070
           H          3.014676148695    -0.126270522830     3.168176743107     1.007825032070
           C          0.716154148695    -0.364216522830     0.913328743107    12.000000000000
           H          2.430511148695    -1.662736522830     0.785627743107     1.007825032070
           H          1.631919148695    -1.690730522830     2.340587743107     1.007825032070
           C         -0.322766851305    -1.373926522830     0.417396743107    12.000000000000
           H          1.030680148695     0.267957477170     0.087619743107     1.007825032070
           H          0.253393148695     0.291007477170     1.651484743107     1.007825032070
           C         -1.612707851305    -0.753519522830    -0.131683256893    12.000000000000
           H          0.127297148695    -2.004256522830    -0.347438256893     1.007825032070
           H         -0.582546851305    -2.035897522830     1.240810743107     1.007825032070
           C         -1.440914851305     0.056052477170    -1.419922256893    12.000000000000
           H         -2.324795851305    -1.554749522830    -0.318170256893     1.007825032070
           H         -2.062176851305    -0.122589522830     0.633655743107     1.007825032070
           C         -2.768415851305     0.565395477170    -1.985383256893    12.000000000000
           H         -0.945912851305    -0.561059522830    -2.168425256893     1.007825032070
           H         -0.785493851305     0.905531477170    -1.243538256893     1.007825032070
           C         -2.599174851305     1.379257477170    -3.267823256893    12.000000000000
           H         -3.425181851305    -0.279995522830    -2.178928256893     1.007825032070
           H         -3.269010851305     1.174268477170    -1.235340256893     1.007825032070
           H         -2.130339851305     0.787282477170    -4.048837256893     1.007825032070
           H         -3.557151851305     1.724134477170    -3.644618256893     1.007825032070
           H         -1.976609851305     2.253414477170    -3.098632256893     1.007825032070

  Charge       = 0
  Multiplicity = 1
  Basis Set: 6-31G*
  Basis Set:

    Orbital Energies (a.u.)
    -----------------------

    Doubly Occupied:

       1A    -20.551350     2A    -11.266103     3A    -11.215267
       4A    -11.213702     5A    -11.213599     6A    -11.213510
       7A    -11.212978     8A    -11.211056     9A    -11.207043
      10A     -1.359582    11A     -1.091708    12A     -1.058200
      13A     -1.009447    14A     -0.947553    15A     -0.887125
      16A     -0.817870    17A     -0.797323    18A     -0.773695
      19A     -0.694090    20A     -0.645526    21A     -0.636384
      22A     -0.616957    23A     -0.601959    24A     -0.585068
      25A     -0.572728    26A     -0.555066    27A     -0.541873
      28A     -0.524618    29A     -0.501692    30A     -0.495278
      31A     -0.478935    32A     -0.470327    33A     -0.463388
      34A     -0.458072    35A     -0.442941    36A     -0.441615
      37A     -0.423878

  @DF-RHF Final Energy:  -388.27339185724071

   => Energetics <=

    Nuclear Repulsion Energy =            462.4828050461046018
    One-Electron Energy =               -1443.1169382534508259
    Two-Electron Energy =                 592.3607413501059682
    DFT Exchange-Correlation Energy =       0.0000000000000000
    Empirical Dispersion Energy =           0.0000000000000000
    PCM Polarization Energy =               0.0000000000000000
    EFP Energy =                            0.0000000000000000
    Total Energy =                       -388.2733918572401990

  Mulliken Charges: (a.u.)
   Center  Symbol    Alpha    Beta     Spin     Total
       1     H     0.28037  0.28037  0.00000  0.43925
       2     O     4.36950  4.36950  0.00000 -0.73900
       3     C     2.99529  2.99529  0.00000  0.00942
       4     C     3.17619  3.17619  0.00000 -0.35237
       5     H     0.41429  0.41429  0.00000  0.17143
       6     H     0.42954  0.42954  0.00000  0.14093
       7     C     3.15444  3.15444  0.00000 -0.30888
       8     H     0.41749  0.41749  0.00000  0.16502
       9     H     0.42213  0.42213  0.00000  0.15573
      10     C     3.15320  3.15320  0.00000 -0.30640
      11     H     0.40618  0.40618  0.00000  0.18764
      12     H     0.43569  0.43569  0.00000  0.12861
      13     C     3.15299  3.15299  0.00000 -0.30599
      14     H     0.42306  0.42306  0.00000  0.15389
      15     H     0.42359  0.42359  0.00000  0.15282
      16     C     3.15310  3.15310  0.00000 -0.30620
      17     H     0.42198  0.42198  0.00000  0.15605
      18     H     0.42517  0.42517  0.00000  0.14966
      19     C     3.15108  3.15108  0.00000 -0.30216
      20     H     0.42432  0.42432  0.00000  0.15136
      21     H     0.42100  0.42100  0.00000  0.15800
      22     C     3.23919  3.23919  0.00000 -0.47838
      23     H     0.42350  0.42350  0.00000  0.15300
      24     H     0.42366  0.42366  0.00000  0.15267
      25     H     0.42176  0.42176  0.00000  0.15647
      26     H     0.41978  0.41978  0.00000  0.16044
      27     H     0.42149  0.42149  0.00000  0.15701

   Total alpha = 37.00000, Total beta = 37.00000, Total charge = -0.00000
