                              Psi4 1.0.54 Driver

  ==> Input File <==

--------------------------------------------------------------------------
set {
	reference rhf
	basis cc-pvtz
}

set_num_threads( 4 )
memory 2 gb

molecule MOL {
0 1

H	 -2.644180	 -0.653737	 1.272255
C	 -2.092774	 -0.380414	 0.391915
O	 -0.808934	 -0.154049	 0.752536
F	 -2.163230	 -1.351640	 -0.507133
F	 -2.627232	 0.691260	 -0.169301
C	 0.085006	 0.250800	 -0.215074
C	 1.370439	 -0.548013	 -0.012993
Cl	 0.421658	 1.987697	 -0.091007
H	 -0.272219	 0.063284	 -1.212508
F	 2.278504	 -0.182266	 -0.881711
F	 1.116855	 -1.820856	 -0.205037
F	 1.858465	 -0.404697	 1.188482

	symmetry c1
}
set optking {
	frozen_dihedral = ("
		10 7 6 9
	")
}

ee,wfn = optimize('scf', return_wfn=True)
oeprop( wfn, 'DIPOLE', 'QUADRUPOLE', 'MULLIKEN_CHARGES')
f=open( 'psi4out.xyz', 'w' )
f.write( "12  " )
f.write( str(ee) + "\n" )
f.write( MOL.save_string_xyz() )
f.close()
--------------------------------------------------------------------------

    Molecular point group: c1
  Charge       = 0
  Multiplicity = 1
  Basis Set: CC-PVTZ
  Basis Set:
  @DF-RHF Final Energy: -1146.62040212767192
    Total Energy =                      -1146.6204021276716958
    Molecular point group: c1
  Basis Set: CC-PVTZ
  Basis Set:
  Basis Set: CC-PVTZ
  Basis Set:
  @DF-RHF Final Energy: -1146.62040951268295
    Total Energy =                      -1146.6204095126831817
  Basis Set: CC-PVTZ
  Basis Set:
  Basis Set: CC-PVTZ
  Basis Set:
  @DF-RHF Final Energy: -1146.62041449960407
    Total Energy =                      -1146.6204144996045216
  Basis Set: CC-PVTZ
  Basis Set:
  Charge       = 0
  Multiplicity = 1
  Basis Set: CC-PVTZ
  Basis Set:

    Orbital Energies (a.u.)
    -----------------------

    Doubly Occupied:

       1A   -104.856607     2A    -26.354924     3A    -26.354157
       4A    -26.352894     5A    -26.343372     6A    -26.343313
       7A    -20.641250     8A    -11.520151     9A    -11.484033
      10A    -11.401037    11A    -10.582132    12A     -8.048931
      13A     -8.046942    14A     -8.046867    15A     -1.767914
      16A     -1.724942    17A     -1.662730    18A     -1.661436
      19A     -1.644956    20A     -1.487402    21A     -1.178322
      22A     -1.053331    23A     -0.990866    24A     -0.924610
      25A     -0.864872    26A     -0.858621    27A     -0.852370
      28A     -0.829623    29A     -0.818231    30A     -0.794005
      31A     -0.733653    32A     -0.732859    33A     -0.712682
      34A     -0.708505    35A     -0.685040    36A     -0.681341
      37A     -0.665383    38A     -0.664090    39A     -0.649498
      40A     -0.638985    41A     -0.598936    42A     -0.581954
      43A     -0.525691    44A     -0.478243    45A     -0.469930

  @DF-RHF Final Energy: -1146.62041477384219

   => Energetics <=

    Nuclear Repulsion Energy =            738.3693210463917467
    One-Electron Energy =               -3059.9442077723224429
    Two-Electron Energy =                1174.9544719520883973
    DFT Exchange-Correlation Energy =       0.0000000000000000
    Empirical Dispersion Energy =           0.0000000000000000
    PCM Polarization Energy =               0.0000000000000000
    EFP Energy =                            0.0000000000000000
    Total Energy =                      -1146.6204147738424126
    Molecular point group: c1
  Basis Set: CC-PVTZ
  Basis Set:

  -Total Gradient:
     Atom            X                  Y                   Z
    ------   -----------------  -----------------  -----------------
       1        0.000008469672     0.000003294289     0.000006540829
       2       -0.000059573594    -0.000035195080    -0.000008026136
       3        0.000013878906     0.000019539079    -0.000020235002
       4        0.000015645673     0.000024350453     0.000010153322
       5       -0.000008484843    -0.000018298813     0.000001019636
       6        0.000586651169     0.000884429230    -0.000166675218
       7       -0.000365516278    -0.000756008947    -0.000530088616
       8        0.000037724413     0.000038302869     0.000000901368
       9       -0.000429641402    -0.000631671008     0.000276751240
      10        0.000243516530     0.000502196949     0.000460401664
      11       -0.000026064121    -0.000045818530     0.000014841686
      12       -0.000016606096     0.000014879601    -0.000045584778

  **** Optimization is complete! (in 4 steps) ****
    Final optimized geometry and variables:
    Molecular point group: c1

    Geometry (in Angstrom), charge = 0, multiplicity = 1:

    H           -2.643031476775    -0.663162163466     1.266132515790
    C           -2.091417245998    -0.385848171867     0.387114910650
    O           -0.808237578283    -0.158876287723     0.749177725578
    F           -2.159812191690    -1.353996409772    -0.515513694144
    F           -2.627268515979     0.686924828720    -0.170776157038
    C            0.086036339014     0.251749648836    -0.216782268532
    C            1.371993017790    -0.545732030960    -0.011268225215
    CL           0.415028779541     1.988939669694    -0.089007619202
    H           -0.271769386910     0.059677402090    -1.213204245485
    F            2.281713938776    -0.186104174622    -0.880411316394
    F            1.117475010859    -1.819862279877    -0.193120253461
    F            1.859135295982    -0.392669711679     1.189633771956

  Mulliken Charges: (a.u.)
   Center  Symbol    Alpha    Beta     Spin     Total
       1     H     0.45194  0.45194  0.00000  0.09612
       2     C     2.74018  2.74018  0.00000  0.51965
       3     O     4.15655  4.15655  0.00000 -0.31310
       4     F     4.61796  4.61796  0.00000 -0.23592
       5     F     4.61509  4.61509  0.00000 -0.23019
       6     C     2.93703  2.93703  0.00000  0.12595
       7     C     2.66958  2.66958  0.00000  0.66083
       8    CL     8.57372  8.57372  0.00000 -0.14745
       9     H     0.43047  0.43047  0.00000  0.13905
      10     F     4.60210  4.60210  0.00000 -0.20420
      11     F     4.60471  4.60471  0.00000 -0.20942
      12     F     4.60066  4.60066  0.00000 -0.20133

   Total alpha = 45.00000, Total beta = 45.00000, Total charge = -0.00000

*** Psi4 exiting successfully. Buy a developer a beer!
