  ==> Input File <==

--------------------------------------------------------------------------
set {
	reference rhf
	basis cc-pvtz
}

set_num_threads( 4 )
memory 2 gb

molecule MOL {
0 1

H	 -3.034039	 -0.667848	 0.004703
O	 -2.240597	 -1.171748	 0.000934
C	 -1.159675	 -0.364500	 0.000370
C	 -0.120677	 -0.519342	 -0.894573
C	 -1.122496	 0.647198	 0.947544
H	 -0.146518	 -1.304166	 -1.628360
C	 0.956128	 0.348182	 -0.830403
H	 -1.945158	 0.738931	 1.630000
C	 -0.049046	 1.512853	 1.008575
H	 1.767791	 0.229008	 -1.523060
C	 0.999494	 1.354565	 0.107744
C	 -0.019569	 2.627877	 2.023216
H	 1.843333	 2.017110	 0.145571
H	 0.959583	 2.713987	 2.477826
H	 -0.744387	 2.464839	 2.809221
H	 -0.246694	 3.578521	 1.552755

	symmetry c1
}
set optking {
	frozen_dihedral = ("
		5 3 2 1
	")
}

ee = optimize('scf')
oeprop('DIPOLE', 'QUADRUPOLE', 'MULLIKEN_CHARGES')
f=open( 'psi4out.xyz', 'w' )
f.write( "16  " )
f.write( str(ee) + "\n" )
f.write( MOL.save_string_xyz() )
f.close()
--------------------------------------------------------------------------

    Molecular point group: c1
  Charge       = 0
  Multiplicity = 1
  Basis Set: CC-PVTZ
  Basis Set:
  @DF-RHF Final Energy:  -344.71648116208269
    Total Energy =                       -344.7164811620825731
    Molecular point group: c1
  Basis Set: CC-PVTZ
  Basis Set:
  Basis Set: CC-PVTZ
  Basis Set:
  @DF-RHF Final Energy:  -344.71791335603740
    Total Energy =                       -344.7179133560377977
  Basis Set: CC-PVTZ
  Basis Set:
  Basis Set: CC-PVTZ
  Basis Set:
  @DF-RHF Final Energy:  -344.71800803672539
    Total Energy =                       -344.7180080367255641
  Basis Set: CC-PVTZ
  Basis Set:
  Basis Set: CC-PVTZ
  Basis Set:
  @DF-RHF Final Energy:  -344.71801875507566
    Total Energy =                       -344.7180187550760593
  Basis Set: CC-PVTZ
  Basis Set:
  @DF-RHF Final Energy:  -344.71802195691606
    Total Energy =                       -344.7180219569162318
  @DF-RHF Final Energy:  -344.71802324384424
    Total Energy =                       -344.7180232438443568
  @DF-RHF Final Energy:  -344.71802527295057
    Total Energy =                       -344.7180252729504559
  @DF-RHF Final Energy:  -344.71803047980200
    Total Energy =                       -344.7180304798015982
  @DF-RHF Final Energy:  -344.71804507585591
    Total Energy =                       -344.7180450758561960
  Basis Set: CC-PVTZ
  Basis Set:
  @DF-RHF Final Energy:  -344.71805421847478
    Total Energy =                       -344.7180542184748333
  Basis Set: CC-PVTZ
  Basis Set:
  Basis Set: CC-PVTZ
  Basis Set:
  @DF-RHF Final Energy:  -344.71805791106175
    Total Energy =                       -344.7180579110618055
  Basis Set: CC-PVTZ
  Basis Set:
  Basis Set: CC-PVTZ
  Basis Set:
  @DF-RHF Final Energy:  -344.71805920205867
    Total Energy =                       -344.7180592020587255
  Basis Set: CC-PVTZ
  Basis Set:
  Charge       = 0
  Multiplicity = 1
  Basis Set: CC-PVTZ
  Basis Set:

    Orbital Energies (a.u.)
    -----------------------

    Doubly Occupied:

       1A    -20.575042     2A    -11.290370     3A    -11.241470
       4A    -11.230704     5A    -11.221556     6A    -11.219350
       7A    -11.216704     8A    -11.216505     9A     -1.403400
      10A     -1.154825    11A     -1.047379    12A     -1.006967
      13A     -0.940210    14A     -0.839234    15A     -0.804361
      16A     -0.728384    17A     -0.682088    18A     -0.653703
      19A     -0.617473    20A     -0.595162    21A     -0.579013
      22A     -0.569893    23A     -0.557734    24A     -0.526140
      25A     -0.506009    26A     -0.485173    27A     -0.470080
      28A     -0.333333    29A     -0.317466

  @DF-RHF Final Energy:  -344.71805928660370

   => Energetics <=

    Nuclear Repulsion Energy =            346.0897589801488152
    One-Electron Energy =               -1153.5561769245045980
    Two-Electron Energy =                 462.7483586577517940
    DFT Exchange-Correlation Energy =       0.0000000000000000
    Empirical Dispersion Energy =           0.0000000000000000
    PCM Polarization Energy =               0.0000000000000000
    EFP Energy =                            0.0000000000000000
    Total Energy =                       -344.7180592866039319
    Molecular point group: c1
  Basis Set: CC-PVTZ
  Basis Set:

  -Total Gradient:
     Atom            X                  Y                   Z
    ------   -----------------  -----------------  -----------------
       1        0.000090546091     0.000105673937    -0.002652645887
       2        0.000292359004    -0.000729697887     0.003888556397
       3       -0.001186390248     0.001716753783    -0.002359377120
       4       -0.000017561770     0.000069189487    -0.000075717930
       5        0.000821036606    -0.001188761968     0.001196834235
       6       -0.000014797620    -0.000009711545     0.000003486589
       7       -0.000022281772    -0.000007730528    -0.000013502650
       8        0.000016423548     0.000003240684    -0.000009738296
       9        0.000034253836     0.000011590678    -0.000011129464
      10       -0.000003789707     0.000000491823     0.000003966480
      11       -0.000014028222     0.000009610531     0.000014790521
      12        0.000009138048     0.000008137822    -0.000006154664
      13       -0.000005073949     0.000006472838     0.000011282171
      14        0.000000148271    -0.000001596300     0.000006960131
      15       -0.000005591601     0.000002280601     0.000001043583
      16        0.000005609482     0.000004056038     0.000001345901

  **** Optimization is complete! (in 13 steps) ****
    Final optimized geometry and variables:
    Molecular point group: c1

    Geometry (in Angstrom), charge = 0, multiplicity = 1:

    H           -2.655385037022    -1.238250110100    -0.399985877859
    O           -1.844045758938    -1.713647349402    -0.394087893170
    C           -0.786579926606    -0.860815813913    -0.327557410402
    C            0.273371503066    -1.061922176925    -1.191119403727
    C           -0.735244453696     0.142457922645     0.620373537732
    H            0.221797842421    -1.854090210659    -1.911467857903
    C            1.376277739854    -0.239310470272    -1.098004918709
    H           -1.558209765676     0.261392782940     1.301714028102
    C            0.366346387290     0.981204937663     0.705437716031
    H            2.205512790836    -0.390411933165    -1.762946787647
    C            1.425860424843     0.778281804374    -0.162563827465
    C            0.394937596419     2.095424463419     1.721357717065
    H            2.292266493287     1.409443250378    -0.106050719206
    H            1.406828222321     2.429648344310     1.907077476968
    H           -0.033497281607     1.777433944965     2.663675630200
    H           -0.176911399004     2.948812168082     1.372326805000

  Mulliken Charges: (a.u.)
   Center  Symbol    Alpha    Beta     Spin     Total
       1     H     0.38594  0.38594  0.00000  0.22812
       2     O     4.18560  4.18560  0.00000 -0.37120
       3     C     2.85389  2.85389  0.00000  0.29222
       4     C     3.12277  3.12277  0.00000 -0.24553
       5     C     3.14812  3.14812  0.00000 -0.29623
       6     H     0.41731  0.41731  0.00000  0.16538
       7     C     3.05344  3.05344  0.00000 -0.10688
       8     H     0.42765  0.42765  0.00000  0.14471
       9     C     2.94475  2.94475  0.00000  0.11051
      10     H     0.42273  0.42273  0.00000  0.15453
      11     C     3.11768  3.11768  0.00000 -0.23536
      12     C     3.14669  3.14669  0.00000 -0.29338
      13     H     0.42680  0.42680  0.00000  0.14639
      14     H     0.44959  0.44959  0.00000  0.10082
      15     H     0.44930  0.44930  0.00000  0.10140
      16     H     0.44776  0.44776  0.00000  0.10449

   Total alpha = 29.00000, Total beta = 29.00000, Total charge =  0.00000
