  ==> Input File <==

--------------------------------------------------------------------------
set {
	reference rhf
	basis 6-31G*
}

set_num_threads( 4 )
memory 2 gb

molecule MOL {
0 1

O	 1.053273	 0.906802	 1.966799
C	 0.447179	 1.014162	 0.934410
C	 -0.572630	 2.124313	 0.762247
N	 0.623947	 0.147590	 -0.102813
H	 -1.560910	 1.727842	 0.556832
H	 -0.600089	 2.683050	 1.685343
H	 -0.302503	 2.791845	 -0.048934
C	 1.665360	 -0.855771	 0.000151
C	 0.095968	 0.357855	 -1.432953
H	 2.465253	 -0.618490	 -0.692587
H	 1.257730	 -1.821716	 -0.242189
H	 2.081488	 -0.891645	 1.004627
H	 -0.121851	 -0.603100	 -1.883685
H	 -0.822057	 0.923257	 -1.410950
H	 0.806160	 0.876033	 -2.074772

	symmetry c1
}
set optking {
	frozen_dihedral = ("
		2 4 8 10
	")
}

ee = optimize('scf')
oeprop('DIPOLE', 'QUADRUPOLE', 'MULLIKEN_CHARGES')
f=open( 'psi4out.xyz', 'w' )
f.write( "15  " )
f.write( str(ee) + "\n" )
f.write( MOL.save_string_xyz() )
f.close()
--------------------------------------------------------------------------

    Molecular point group: c1
  Charge       = 0
  Multiplicity = 1
  Basis Set: 6-31G*
  Basis Set:
  @DF-RHF Final Energy:  -286.02924420080598
    Total Energy =                       -286.0292442008058060
    Molecular point group: c1
  Basis Set: 6-31G*
  Basis Set:
  Basis Set: 6-31G*
  Basis Set:
  @DF-RHF Final Energy:  -286.02968449231980
    Total Energy =                       -286.0296844923199160
  Basis Set: 6-31G*
  Basis Set:
  Basis Set: 6-31G*
  Basis Set:
  @DF-RHF Final Energy:  -286.02972265760513
    Total Energy =                       -286.0297226576050775
  Basis Set: 6-31G*
  Basis Set:
  Basis Set: 6-31G*
  Basis Set:
  @DF-RHF Final Energy:  -286.02969169061782
    Total Energy =                       -286.0296916906178240
  Basis Set: 6-31G*
  Basis Set:
  @DF-RHF Final Energy:  -286.02976319811040
    Total Energy =                       -286.0297631981101176
  @DF-RHF Final Energy:  -286.02976601498074
    Total Energy =                       -286.0297660149808507
  Basis Set: 6-31G*
  Basis Set:
  @DF-RHF Final Energy:  -286.02976783590174
    Total Energy =                       -286.0297678359017368
  Basis Set: 6-31G*
  Basis Set:
  Basis Set: 6-31G*
  Basis Set:
  @DF-RHF Final Energy:  -286.02976891732055
    Total Energy =                       -286.0297689173206663
  Basis Set: 6-31G*
  Basis Set:
  Basis Set: 6-31G*
  Basis Set:
  @DF-RHF Final Energy:  -286.02977055150399
    Total Energy =                       -286.0297705515038160
  Basis Set: 6-31G*
  Basis Set:
  Charge       = 0
  Multiplicity = 1
  Basis Set: 6-31G*
  Basis Set:

    Orbital Energies (a.u.)
    -----------------------

    Doubly Occupied:

       1A    -20.512891     2A    -15.584379     3A    -11.341864
       4A    -11.266609     5A    -11.247743     6A    -11.228228
       7A     -1.383260     8A     -1.243955     9A     -1.014208
      10A     -0.972920    11A     -0.919960    12A     -0.738255
      13A     -0.681188    14A     -0.659433    15A     -0.651317
      16A     -0.589660    17A     -0.575747    18A     -0.566895
      19A     -0.561281    20A     -0.547264    21A     -0.529790
      22A     -0.504021    23A     -0.409267    24A     -0.365634

  @DF-RHF Final Energy:  -286.02977105137654

   => Energetics <=

    Nuclear Repulsion Energy =            252.2813543187957066
    One-Electron Energy =                -888.4307095870185549
    Two-Electron Energy =                 350.1195842168461922
    DFT Exchange-Correlation Energy =       0.0000000000000000
    Empirical Dispersion Energy =           0.0000000000000000
    PCM Polarization Energy =               0.0000000000000000
    EFP Energy =                            0.0000000000000000
    Total Energy =                       -286.0297710513766560
    Molecular point group: c1
  Basis Set: 6-31G*
  Basis Set:

  -Total Gradient:
     Atom            X                  Y                   Z
    ------   -----------------  -----------------  -----------------
       1        0.000007387826    -0.000020695200    -0.000032701150
       2       -0.000145445987    -0.000134818632     0.000112892866
       3        0.000058420254     0.000062233841    -0.000044701756
       4        0.000139297310     0.000133321617    -0.000115290208
       5       -0.000004774207    -0.000029279563    -0.000001858449
       6       -0.000000969507    -0.000011593196     0.000001218429
       7       -0.000025539406     0.000008666030     0.000015412476
       8        0.000085665312     0.000106124932     0.000237503359
       9        0.000000253210     0.000010219488    -0.000018775657
      10       -0.000094652969    -0.000105743619    -0.000157538116
      11       -0.000008660063    -0.000011052008    -0.000008226467
      12       -0.000007467484     0.000004419982     0.000005844555
      13       -0.000001750483    -0.000000668792     0.000005728853
      14       -0.000005359086    -0.000008354700     0.000000946070
      15        0.000003595280    -0.000002780178    -0.000000454804

  **** Optimization is complete! (in 10 steps) ****
    Final optimized geometry and variables:
    Molecular point group: c1

    Geometry (in Angstrom), charge = 0, multiplicity = 1:

    O            0.471748104338     0.278256290729     1.636670736577
    C           -0.111228895673     0.400816720922     0.592313430120
    C           -1.131950364513     1.510274334640     0.418511269122
    N            0.097605369039    -0.440079265888    -0.458181437025
    H           -2.120427850018     1.111360447525     0.217823963919
    H           -1.158614296634     2.069892641147     1.341038052885
    H           -0.866010590212     2.176640374297    -0.394732790408
    C            1.122176160989    -1.459816003855    -0.356356334741
    C           -0.466506898872    -0.265632780061    -1.777846486838
    H            1.960348243025    -1.231281601062    -1.010346610138
    H            0.715647804099    -2.422505411901    -0.650174051259
    H            1.471846492693    -1.515284714682     0.659505494966
    H           -0.728690318337    -1.235538721890    -2.185419607608
    H           -1.363568967938     0.331648975686    -1.752786839506
    H            0.241702439779     0.203143492529    -2.458055682865

  Mulliken Charges: (a.u.)
   Center  Symbol    Alpha    Beta     Spin     Total
       1     O     4.30574  4.30574  0.00000 -0.61147
       2     C     2.62268  2.62268  0.00000  0.75464
       3     C     3.29898  3.29898  0.00000 -0.59796
       4     N     3.82451  3.82451  0.00000 -0.64902
       5     H     0.40675  0.40675  0.00000  0.18650
       6     H     0.39026  0.39026  0.00000  0.21949
       7     H     0.40795  0.40795  0.00000  0.18410
       8     C     3.14654  3.14654  0.00000 -0.29309
       9     C     3.14116  3.14116  0.00000 -0.28232
      10     H     0.42025  0.42025  0.00000  0.15950
      11     H     0.41875  0.41875  0.00000  0.16250
      12     H     0.38229  0.38229  0.00000  0.23542
      13     H     0.41126  0.41126  0.00000  0.17749
      14     H     0.40696  0.40696  0.00000  0.18609
      15     H     0.41594  0.41594  0.00000  0.16812

   Total alpha = 24.00000, Total beta = 24.00000, Total charge =  0.00000
