  ==> Input File <==

--------------------------------------------------------------------------
set {
	reference rhf
	basis 6-31G*
}

set_num_threads( 4 )
memory 2 gb

molecule MOL {
0 1

O	 1.214711	 1.306902	 -0.000018
C	 1.122059	 0.121804	 -0.000188
C	 -0.170150	 -0.657997	 -0.000612
O	 2.172624	 -0.688929	 0.000216
C	 -1.412532	 0.227344	 -0.000452
H	 -0.153702	 -1.313099	 -0.867402
H	 -0.153924	 -1.313811	 0.865644
C	 -1.131993	 1.622930	 -0.559921
H	 -1.795762	 0.306922	 1.012122
H	 -2.194151	 -0.251896	 -0.581746
C	 -2.371753	 2.516225	 -0.564611
H	 -0.347613	 2.098312	 0.025602
H	 -0.745816	 1.537252	 -1.573626
H	 -2.762019	 2.649501	 0.440170
H	 -2.145682	 3.499319	 -0.965478
H	 -3.162824	 2.084744	 -1.170972
C	 3.452279	 -0.082609	 0.000533
H	 3.583069	 0.529321	 -0.880332
H	 4.163299	 -0.894027	 0.001117
H	 3.582335	 0.529955	 0.881077

	symmetry c1
}
set optking {
	frozen_dihedral = ("
		9 5 3 6
	")
}

ee = optimize('scf')
oeprop('DIPOLE', 'QUADRUPOLE', 'MULLIKEN_CHARGES')
f=open( 'psi4out.xyz', 'w' )
f.write( "20  " )
f.write( str(ee) + "\n" )
f.write( MOL.save_string_xyz() )
f.close()
--------------------------------------------------------------------------

    Molecular point group: c1
  Charge       = 0
  Multiplicity = 1
  Basis Set: 6-31G*
  Basis Set:
  @DF-RHF Final Energy:  -383.90907984448592
    Total Energy =                       -383.9090798444857455
    Molecular point group: c1
  Basis Set: 6-31G*
  Basis Set:
  Basis Set: 6-31G*
  Basis Set:
  @DF-RHF Final Energy:  -383.92699182439981
    Total Energy =                       -383.9269918244000337
  Basis Set: 6-31G*
  Basis Set:
  Basis Set: 6-31G*
  Basis Set:
  @DF-RHF Final Energy:  -383.93094845936093
    Total Energy =                       -383.9309484593609341
  Basis Set: 6-31G*
  Basis Set:
  Basis Set: 6-31G*
  Basis Set:
  @DF-RHF Final Energy:  -383.92978526616253
    Total Energy =                       -383.9297852661626393
  Basis Set: 6-31G*
  Basis Set:
  @DF-RHF Final Energy:  -383.93302142893901
    Total Energy =                       -383.9330214289390142
  @DF-RHF Final Energy:  -383.93359225152733
    Total Energy =                       -383.9335922515269885
  @DF-RHF Final Energy:  -383.93413280109019
    Total Energy =                       -383.9341328010899588
  @DF-RHF Final Energy:  -383.93446700432185
    Total Energy =                       -383.9344670043219594
  @DF-RHF Final Energy:  -383.93457301585823
    Total Energy =                       -383.9345730158581773
  @DF-RHF Final Energy:  -383.93458260560135
    Total Energy =                       -383.9345826056014630
  Basis Set: 6-31G*
  Basis Set:
  @DF-RHF Final Energy:  -383.93459862274301
    Total Energy =                       -383.9345986227428966
  Basis Set: 6-31G*
  Basis Set:
  Basis Set: 6-31G*
  Basis Set:
  @DF-RHF Final Energy:  -383.93460237721973
    Total Energy =                       -383.9346023772195622
  Basis Set: 6-31G*
  Basis Set:
  Basis Set: 6-31G*
  Basis Set:
  @DF-RHF Final Energy:  -383.93460431045349
    Total Energy =                       -383.9346043104535511
  Basis Set: 6-31G*
  Basis Set:
  Charge       = 0
  Multiplicity = 1
  Basis Set: 6-31G*
  Basis Set:

    Orbital Energies (a.u.)
    -----------------------

    Doubly Occupied:

       1A    -20.605940     2A    -20.542925     3A    -11.373122
       4A    -11.281118     5A    -11.235387     6A    -11.225341
       7A    -11.214266     8A    -11.208559     9A     -1.470223
      10A     -1.362102    11A     -1.084967    12A     -1.022023
      13A     -0.969113    14A     -0.886862    15A     -0.809675
      16A     -0.766922    17A     -0.693996    18A     -0.679791
      19A     -0.671316    20A     -0.639169    21A     -0.598127
      22A     -0.589903    23A     -0.582606    24A     -0.543097
      25A     -0.534203    26A     -0.518560    27A     -0.506076
      28A     -0.481328    29A     -0.470874    30A     -0.463237
      31A     -0.454128    32A     -0.431803

  @DF-RHF Final Energy:  -383.93460424093303

   => Energetics <=

    Nuclear Repulsion Energy =            390.4189834553917535
    One-Electron Energy =               -1296.8736517397860553
    Two-Electron Energy =                 522.5200640434612751
    DFT Exchange-Correlation Energy =       0.0000000000000000
    Empirical Dispersion Energy =           0.0000000000000000
    PCM Polarization Energy =               0.0000000000000000
    EFP Energy =                            0.0000000000000000
    Total Energy =                       -383.9346042409330266
    Molecular point group: c1
  Basis Set: 6-31G*
  Basis Set:

  -Total Gradient:
     Atom            X                  Y                   Z
    ------   -----------------  -----------------  -----------------
       1       -0.000035733163    -0.000027983110    -0.000076762666
       2       -0.000038511396     0.000015676720     0.000079800014
       3        0.003491532009     0.004055847849    -0.004781633242
       4        0.000036484150    -0.000020968581    -0.000020963523
       5        0.004204981504     0.005533194405     0.002171163263
       6       -0.003688633161    -0.004265323132     0.003577361410
       7        0.000107043234     0.000018283146     0.000064873787
       8        0.000040243474    -0.000071148889    -0.000083253504
       9       -0.004128266402    -0.005268522944    -0.000826084439
      10        0.000084145627     0.000017283313    -0.000094065845
      11       -0.000002100255    -0.000017517365    -0.000011149064
      12       -0.000007570527    -0.000015147600     0.000008162405
      13       -0.000012515699     0.000025037685    -0.000014384780
      14       -0.000008406813     0.000001943221     0.000009494175
      15        0.000005192485    -0.000002709761    -0.000001103073
      16       -0.000027743282     0.000011917784    -0.000003422711
      17       -0.000017557593     0.000013145148    -0.000003345135
      18        0.000000462414     0.000000473579    -0.000000681922
      19       -0.000000840909    -0.000000830528     0.000001096461
      20       -0.000002205700    -0.000002650943     0.000004898389

  **** Optimization is complete! (in 14 steps) ****
    Final optimized geometry and variables:
    Molecular point group: c1

    Geometry (in Angstrom), charge = 0, multiplicity = 1:

    O            1.002628433210     0.417749765403     1.120228498597
    C            0.770953208531    -0.496774964502     0.394882179743
    C           -0.581768014444    -1.144698975186     0.235620125924
    O            1.701689922111    -1.096208448280    -0.333366343689
    C           -1.787879898909    -0.186017759981     0.147319147310
    H           -0.574879265162    -1.845358371689    -0.588660702943
    H           -0.698456418226    -1.761456821219     1.124673797368
    C           -1.554219764393     1.139975202420    -0.578663605169
    H           -2.202056808892    -0.022822030112     1.136976787472
    H           -2.565216148863    -0.730262953756    -0.384875013646
    C           -2.850278492967     1.928875749509    -0.762544054274
    H           -0.839728621055     1.739557193978    -0.028976784362
    H           -1.113308607541     0.941426101255    -1.554539061546
    H           -3.307271356229     2.157440082290     0.196160315956
    H           -2.665218390451     2.869488494009    -1.271614458189
    H           -3.574629160685     1.371241796455    -1.349749157971
    C            3.025625808687    -0.608206296967    -0.209527678814
    H            3.076823148425     0.428850204971    -0.508015113211
    H            3.626760237531    -1.217274042973    -0.866419086033
    H            3.371068607575    -0.702041779861     0.809918286190

  Mulliken Charges: (a.u.)
   Center  Symbol    Alpha    Beta     Spin     Total
       1     O     4.28835  4.28835  0.00000 -0.57671
       2     C     2.60544  2.60544  0.00000  0.78911
       3     C     3.21330  3.21330  0.00000 -0.42661
       4     O     4.30406  4.30406  0.00000 -0.60812
       5     C     3.14895  3.14895  0.00000 -0.29790
       6     H     0.39878  0.39878  0.00000  0.20244
       7     H     0.39851  0.39851  0.00000  0.20298
       8     C     3.16477  3.16477  0.00000 -0.32954
       9     H     0.41307  0.41307  0.00000  0.17387
      10     H     0.41923  0.41923  0.00000  0.16153
      11     C     3.24077  3.24077  0.00000 -0.48154
      12     H     0.40038  0.40038  0.00000  0.19924
      13     H     0.42465  0.42465  0.00000  0.15071
      14     H     0.42010  0.42010  0.00000  0.15981
      15     H     0.41783  0.41783  0.00000  0.16434
      16     H     0.42303  0.42303  0.00000  0.15393
      17     C     3.09319  3.09319  0.00000 -0.18637
      18     H     0.40848  0.40848  0.00000  0.18305
      19     H     0.40831  0.40831  0.00000  0.18337
      20     H     0.40880  0.40880  0.00000  0.18241

   Total alpha = 32.00000, Total beta = 32.00000, Total charge =  0.00000
