  ==> Input File <==

--------------------------------------------------------------------------
set {
	reference rhf
	basis 6-31G*
}

set_num_threads( 1 )
memory 2 gb

molecule MOL {
0 1

H	 3.673563	 -0.962552	 -0.385346
O	 2.767240	 -1.194934	 -0.208337
C	 2.077727	 -0.067559	 -0.035091
C	 0.624473	 -0.343591	 0.253101
O	 2.588415	 1.002433	 -0.108098
C	 -0.265902	 0.883932	 0.072916
H	 0.324016	 -1.163849	 -0.390541
H	 0.565024	 -0.726111	 1.268924
C	 -1.728698	 0.646073	 0.462102
H	 -0.209144	 1.219470	 -0.958188
H	 0.135059	 1.692851	 0.673903
C	 -2.482460	 -0.343073	 -0.431425
H	 -2.245265	 1.602650	 0.432430
H	 -1.779332	 0.308348	 1.496285
C	 -3.960546	 -0.461025	 -0.060175
H	 -2.395034	 -0.026811	 -1.468912
H	 -2.024850	 -1.327147	 -0.371646
H	 -4.472726	 -1.168004	 -0.705284
H	 -4.465146	 0.496508	 -0.151489
H	 -4.081218	 -0.800940	 0.964585

	symmetry c1
}
set optking {
	frozen_dihedral = ("
		16 12 9 6,
		7 4 6 10,
		12 9 6 10,
		1 2 3 5
	")
}

ee = energy('scf')
oeprop('DIPOLE', 'QUADRUPOLE', 'MULLIKEN_CHARGES')
f=open( 'psi4out.xyz', 'w' )
f.write( "20  " )
f.write( str(ee) + "\n" )
f.write( MOL.save_string_xyz() )
f.close()
--------------------------------------------------------------------------

    Molecular point group: c1

    Geometry (in Angstrom), charge = 0, multiplicity = 1:

       Center              X                  Y                   Z               Mass
    ------------   -----------------  -----------------  -----------------  -----------------
           H          3.675884693817    -0.961137201773    -0.372283645286     1.007825032070
           O          2.769561693817    -1.193519201773    -0.195274645286    15.994914619560
           C          2.080048693817    -0.066144201773    -0.022028645286    12.000000000000
           C          0.626794693817    -0.342176201773     0.266163354714    12.000000000000
           O          2.590736693817     1.003847798227    -0.095035645286    15.994914619560
           C         -0.263580306183     0.885346798227     0.085978354714    12.000000000000
           H          0.326337693817    -1.162434201773    -0.377478645286     1.007825032070
           H          0.567345693817    -0.724696201773     1.281986354714     1.007825032070
           C         -1.726376306183     0.647487798227     0.475164354714    12.000000000000
           H         -0.206822306183     1.220884798227    -0.945125645286     1.007825032070
           H          0.137380693817     1.694265798227     0.686965354714     1.007825032070
           C         -2.480138306183    -0.341658201773    -0.418362645286    12.000000000000
           H         -2.242943306183     1.604064798227     0.445492354714     1.007825032070
           H         -1.777010306183     0.309762798227     1.509347354714     1.007825032070
           C         -3.958224306183    -0.459610201773    -0.047112645286    12.000000000000
           H         -2.392712306183    -0.025396201773    -1.455849645286     1.007825032070
           H         -2.022528306183    -1.325732201773    -0.358583645286     1.007825032070
           H         -4.470404306183    -1.166589201773    -0.692221645286     1.007825032070
           H         -4.462824306183     0.497922798227    -0.138426645286     1.007825032070
           H         -4.078896306183    -0.799525201773     0.977647354714     1.007825032070

  Charge       = 0
  Multiplicity = 1
  Basis Set: 6-31G*
  Basis Set:

    Orbital Energies (a.u.)
    -----------------------

    Doubly Occupied:

       1A    -20.612881     2A    -20.551390     3A    -11.381220
       4A    -11.239939     5A    -11.223517     6A    -11.220856
       7A    -11.220232     8A    -11.212466     9A     -1.474677
      10A     -1.365641    11A     -1.096401    12A     -1.041015
      13A     -0.961307    14A     -0.868933    15A     -0.816115
      16A     -0.778091    17A     -0.700251    18A     -0.689798
      19A     -0.660739    20A     -0.637244    21A     -0.603845
      22A     -0.593825    23A     -0.575353    24A     -0.555425
      25A     -0.541323    26A     -0.512655    27A     -0.496675
      28A     -0.478703    29A     -0.470814    30A     -0.467879
      31A     -0.456829    32A     -0.443424

  @DF-RHF Final Energy:  -383.94848157055861

   => Energetics <=

    Nuclear Repulsion Energy =            375.9272979624907407
    One-Electron Energy =               -1267.8526307996908145
    Two-Electron Energy =                 507.9768512666416314
    DFT Exchange-Correlation Energy =       0.0000000000000000
    Empirical Dispersion Energy =           0.0000000000000000
    PCM Polarization Energy =               0.0000000000000000
    EFP Energy =                            0.0000000000000000
    Total Energy =                       -383.9484815705584992

  Mulliken Charges: (a.u.)
   Center  Symbol    Alpha    Beta     Spin     Total
       1     H     0.26800  0.26800  0.00000  0.46399
       2     O     4.35134  4.35134  0.00000 -0.70268
       3     C     2.62138  2.62138  0.00000  0.75724
       4     C     3.21408  3.21408  0.00000 -0.42816
       5     O     4.27923  4.27923  0.00000 -0.55845
       6     C     3.15577  3.15577  0.00000 -0.31154
       7     H     0.39738  0.39738  0.00000  0.20525
       8     H     0.39816  0.39816  0.00000  0.20368
       9     C     3.15554  3.15554  0.00000 -0.31108
      10     H     0.41465  0.41465  0.00000  0.17069
      11     H     0.40472  0.40472  0.00000  0.19057
      12     C     3.15479  3.15479  0.00000 -0.30957
      13     H     0.41784  0.41784  0.00000  0.16431
      14     H     0.42342  0.42342  0.00000  0.15316
      15     C     3.23926  3.23926  0.00000 -0.47852
      16     H     0.42174  0.42174  0.00000  0.15651
      17     H     0.42240  0.42240  0.00000  0.15519
      18     H     0.41831  0.41831  0.00000  0.16337
      19     H     0.42068  0.42068  0.00000  0.15864
      20     H     0.42130  0.42130  0.00000  0.15740

   Total alpha = 32.00000, Total beta = 32.00000, Total charge =  0.00000
