  ==> Input File <==

--------------------------------------------------------------------------
set {
	reference rhf
	basis 6-31G*
}

set_num_threads( 4 )
memory 2 gb

molecule MOL {
0 1

O	 -2.821601	 1.309235	 -0.001213
C	 -2.668563	 0.129746	 -0.000350
C	 -3.801572	 -0.864014	 -0.000442
O	 -1.481751	 -0.454642	 0.000584
H	 -4.417280	 -0.689587	 -0.874708
H	 -3.443784	 -1.883046	 -0.000565
H	 -4.417179	 -0.689832	 0.873954
C	 -0.334255	 0.388708	 0.000906
C	 0.891947	 -0.504646	 0.000751
H	 -0.365390	 1.025305	 -0.873475
H	 -0.365484	 1.024911	 0.875569
C	 1.379796	 -0.812780	 -1.416121
H	 0.653722	 -1.427999	 0.521431
H	 1.680550	 -0.018654	 0.568535
C	 2.616101	 -1.713556	 -1.437990
H	 0.580104	 -1.289049	 -1.980696
H	 1.606070	 0.117965	 -1.933419
C	 3.102524	 -2.022383	 -2.853223
H	 2.391628	 -2.644259	 -0.921773
H	 3.416974	 -1.238092	 -0.876202
H	 2.334251	 -2.529201	 -3.430203
H	 3.979098	 -2.662348	 -2.835939
H	 3.367619	 -1.112528	 -3.384163

	symmetry c1
}
set optking {
	frozen_dihedral = ("
		13 9 8 10
	")
}

ee = optimize('scf')
oeprop('DIPOLE', 'QUADRUPOLE', 'MULLIKEN_CHARGES')
f=open( 'psi4out.xyz', 'w' )
f.write( "23  " )
f.write( str(ee) + "\n" )
f.write( MOL.save_string_xyz() )
f.close()
--------------------------------------------------------------------------

    Molecular point group: c1
  Charge       = 0
  Multiplicity = 1
  Basis Set: 6-31G*
  Basis Set:
  @DF-RHF Final Energy:  -422.97643686973055
    Total Energy =                       -422.9764368697304917
    Molecular point group: c1
  Basis Set: 6-31G*
  Basis Set:
  Basis Set: 6-31G*
  Basis Set:
  @DF-RHF Final Energy:  -422.97677009465735
    Total Energy =                       -422.9767700946568993
  Basis Set: 6-31G*
  Basis Set:
  Basis Set: 6-31G*
  Basis Set:
  @DF-RHF Final Energy:  -422.97679691583613
    Total Energy =                       -422.9767969158356209
  Basis Set: 6-31G*
  Basis Set:
  Basis Set: 6-31G*
  Basis Set:
  @DF-RHF Final Energy:  -422.97680500993971
    Total Energy =                       -422.9768050099402217
  Basis Set: 6-31G*
  Basis Set:
  @DF-RHF Final Energy:  -422.97687358367466
    Total Energy =                       -422.9768735836747737
  @DF-RHF Final Energy:  -422.97689476606149
    Total Energy =                       -422.9768947660621734
  Basis Set: 6-31G*
  Basis Set:
  @DF-RHF Final Energy:  -422.97690039892075
    Total Energy =                       -422.9769003989213161
  Basis Set: 6-31G*
  Basis Set:
  Basis Set: 6-31G*
  Basis Set:
  @DF-RHF Final Energy:  -422.97690154415938
    Total Energy =                       -422.9769015441584088
  Basis Set: 6-31G*
  Basis Set:
  Basis Set: 6-31G*
  Basis Set:
  @DF-RHF Final Energy:  -422.97690313471662
    Total Energy =                       -422.9769031347169630
  Basis Set: 6-31G*
  Basis Set:
  Charge       = 0
  Multiplicity = 1
  Basis Set: 6-31G*
  Basis Set:

    Orbital Energies (a.u.)
    -----------------------

    Doubly Occupied:

       1A    -20.602646     2A    -20.540297     3A    -11.373808
       4A    -11.282356     5A    -11.232470     6A    -11.224765
       7A    -11.220322     8A    -11.219675     9A    -11.211925
      10A     -1.467231    11A     -1.360105    12A     -1.091955
      13A     -1.041040    14A     -1.002382    15A     -0.930383
      16A     -0.842355    17A     -0.799056    18A     -0.779732
      19A     -0.687699    20A     -0.681550    21A     -0.665950
      22A     -0.644143    23A     -0.608021    24A     -0.583291
      25A     -0.577200    26A     -0.575774    27A     -0.558409
      28A     -0.533383    29A     -0.527252    30A     -0.505232
      31A     -0.498631    32A     -0.473020    33A     -0.470607
      34A     -0.462566    35A     -0.445408    36A     -0.436165

  @DF-RHF Final Energy:  -422.97690321866963

   => Energetics <=

    Nuclear Repulsion Energy =            455.9244787011961648
    One-Electron Energy =               -1479.4891521444749287
    Two-Electron Energy =                 600.5877702246095851
    DFT Exchange-Correlation Energy =       0.0000000000000000
    Empirical Dispersion Energy =           0.0000000000000000
    PCM Polarization Energy =               0.0000000000000000
    EFP Energy =                            0.0000000000000000
    Total Energy =                       -422.9769032186691220
    Molecular point group: c1
  Basis Set: 6-31G*
  Basis Set:

  -Total Gradient:
     Atom            X                  Y                   Z
    ------   -----------------  -----------------  -----------------
       1        0.000002485303    -0.000002710247     0.000003849273
       2        0.000000383160     0.000003687707     0.000003136208
       3        0.000000396362    -0.000001640356     0.000015747731
       4        0.000004604143     0.000004821965    -0.000008635024
       5        0.000002461113    -0.000003795951    -0.000006493792
       6       -0.000000369957    -0.000000164247    -0.000001373942
       7       -0.000001831977     0.000004353860    -0.000006543630
       8        0.002754665660     0.003847489080     0.002079088495
       9        0.001091513133     0.001412340490     0.004234521536
      10       -0.002436196215    -0.003380200937    -0.002333878164
      11        0.000001684851     0.000011366642    -0.000001522627
      12        0.000005163864    -0.000005658544    -0.000003000356
      13       -0.001421817067    -0.001886317841    -0.003986939994
      14       -0.000005330665    -0.000006234769     0.000012124840
      15        0.000000952766    -0.000000844334    -0.000003043552
      16       -0.000000999909    -0.000001046706    -0.000002588342
      17       -0.000000950379    -0.000000307493     0.000004635573
      18        0.000002223852     0.000002712248     0.000000859784
      19       -0.000001036546     0.000001330968     0.000003163752
      20        0.000001522388     0.000000224426    -0.000002762891
      21       -0.000000609786     0.000001605367     0.000001922649
      22       -0.000000700924    -0.000001005735    -0.000000128916
      23        0.000001786840    -0.000000005593    -0.000002138613

  **** Optimization is complete! (in 10 steps) ****
    Final optimized geometry and variables:
    Molecular point group: c1

    Geometry (in Angstrom), charge = 0, multiplicity = 1:

    O           -2.470433581708     1.789865267134     0.629929352110
    C           -2.289842480201     0.614035140662     0.621722093802
    C           -3.400128217287    -0.404468619790     0.580680742423
    O           -1.091027431716     0.056764889835     0.649406138314
    H           -3.998791920300    -0.231140416388    -0.305549137544
    H           -3.019944764275    -1.415380454020     0.575322053993
    H           -4.039984774902    -0.256475326113     1.442414994882
    C            0.040644532847     0.929810440021     0.686712878094
    C            1.287839603374     0.054576444961     0.654603200753
    H           -0.021650849746     1.573950958568    -0.179503339134
    H           -0.019414792789     1.535492509801     1.579600480996
    C            1.743957413291    -0.284234664099    -0.767705116609
    H            1.062589750657    -0.871470536275     1.173767783920
    H            2.091074548233     0.551882163570     1.190868801406
    C            2.949131885938    -1.224722135290    -0.802733874807
    H            0.915370841257    -0.737945393289    -1.307378001443
    H            1.989812319277     0.634973819164    -1.296728396248
    C            3.407171339790    -1.554110329222    -2.222959455435
    H            2.701236402234    -2.146281217352    -0.280549133114
    H            3.773437490781    -0.774963585710    -0.252931051769
    H            2.614401874544    -2.035554281077    -2.788408013904
    H            4.261390285236    -2.223863617498    -2.214998823898
    H            3.696501930575    -0.655368393743    -2.760190747651

  Mulliken Charges: (a.u.)
   Center  Symbol    Alpha    Beta     Spin     Total
       1     O     4.28447  4.28447  0.00000 -0.56894
       2     C     2.61497  2.61497  0.00000  0.77005
       3     C     3.28753  3.28753  0.00000 -0.57506
       4     O     4.31202  4.31202  0.00000 -0.62404
       5     H     0.39758  0.39758  0.00000  0.20484
       6     H     0.40036  0.40036  0.00000  0.19929
       7     H     0.39746  0.39746  0.00000  0.20508
       8     C     3.00440  3.00440  0.00000 -0.00881
       9     C     3.16692  3.16692  0.00000 -0.33385
      10     H     0.40823  0.40823  0.00000  0.18354
      11     H     0.40717  0.40717  0.00000  0.18566
      12     C     3.15636  3.15636  0.00000 -0.31272
      13     H     0.40903  0.40903  0.00000  0.18193
      14     H     0.41673  0.41673  0.00000  0.16654
      15     C     3.15247  3.15247  0.00000 -0.30494
      16     H     0.41706  0.41706  0.00000  0.16588
      17     H     0.42270  0.42270  0.00000  0.15461
      18     C     3.23948  3.23948  0.00000 -0.47895
      19     H     0.42167  0.42167  0.00000  0.15667
      20     H     0.42278  0.42278  0.00000  0.15444
      21     H     0.42096  0.42096  0.00000  0.15809
      22     H     0.41849  0.41849  0.00000  0.16302
      23     H     0.42115  0.42115  0.00000  0.15769

   Total alpha = 36.00000, Total beta = 36.00000, Total charge = -0.00000
