  ==> Input File <==

--------------------------------------------------------------------------
set {
	reference rhf
	basis 6-31G*
}

set_num_threads( 4 )
memory 2 gb

molecule MOL {
0 1

H	 -3.788974	 -0.709639	 0.390614
O	 -3.517110	 -0.026191	 -0.205115
C	 -2.306886	 0.532354	 0.237577
C	 -1.177863	 -0.397191	 -0.171080
H	 -2.156308	 1.517575	 -0.201710
H	 -2.315015	 0.655684	 1.319734
C	 0.198102	 0.111031	 0.262842
H	 -1.208843	 -0.518759	 -1.250427
H	 -1.368741	 -1.376554	 0.258909
C	 1.331804	 -0.827780	 -0.158768
H	 0.361943	 1.100838	 -0.156218
H	 0.217265	 0.229072	 1.345532
C	 2.723619	 -0.410569	 0.329459
H	 1.342964	 -0.912588	 -1.244120
H	 1.116806	 -1.824343	 0.220779
C	 3.243875	 0.895854	 -0.272975
H	 3.424222	 -1.207124	 0.091250
H	 2.714788	 -0.329854	 1.414619
H	 3.251977	 0.848779	 -1.358681
H	 2.637085	 1.747371	 0.016682
H	 4.259473	 1.094070	 0.055697

	symmetry c1
}
set optking {
	frozen_dihedral = ("
		1 2 3 5
	")
}

ee = optimize('scf')
oeprop('DIPOLE', 'QUADRUPOLE', 'MULLIKEN_CHARGES')
f=open( 'psi4out.xyz', 'w' )
f.write( "21  " )
f.write( str(ee) + "\n" )
f.write( MOL.save_string_xyz() )
f.close()
--------------------------------------------------------------------------

    Molecular point group: c1
  Charge       = 0
  Multiplicity = 1
  Basis Set: 6-31G*
  Basis Set:
  @DF-RHF Final Energy:  -310.21081834494544
    Total Energy =                       -310.2108183449457215
    Molecular point group: c1
  Basis Set: 6-31G*
  Basis Set:
  Basis Set: 6-31G*
  Basis Set:
  @DF-RHF Final Energy:  -310.21219645310390
    Total Energy =                       -310.2121964531038429
  Basis Set: 6-31G*
  Basis Set:
  Basis Set: 6-31G*
  Basis Set:
  @DF-RHF Final Energy:  -310.21248149337617
    Total Energy =                       -310.2124814933761741
  Basis Set: 6-31G*
  Basis Set:
  Basis Set: 6-31G*
  Basis Set:
  @DF-RHF Final Energy:  -310.21248475867128
    Total Energy =                       -310.2124847586717351
  Basis Set: 6-31G*
  Basis Set:
  Basis Set: 6-31G*
  Basis Set:
  @DF-RHF Final Energy:  -310.21248145781533
    Total Energy =                       -310.2124814578151586
  Basis Set: 6-31G*
  Basis Set:
  Charge       = 0
  Multiplicity = 1
  Basis Set: 6-31G*
  Basis Set:

    Orbital Energies (a.u.)
    -----------------------

    Doubly Occupied:

       1A    -20.552081     2A    -11.267051     3A    -11.218235
       4A    -11.216970     5A    -11.216026     6A    -11.214188
       7A    -11.209356     8A     -1.358788     9A     -1.088278
      10A     -1.034255    11A     -0.955026    12A     -0.878740
      13A     -0.816436    14A     -0.780468    15A     -0.695888
      16A     -0.647586    17A     -0.619595    18A     -0.607356
      19A     -0.592028    20A     -0.574692    21A     -0.540662
      22A     -0.531304    23A     -0.503269    24A     -0.494048
      25A     -0.477065    26A     -0.465684    27A     -0.460614
      28A     -0.457720    29A     -0.420346

  @DF-RHF Final Energy:  -310.21248554361949

   => Energetics <=

    Nuclear Repulsion Energy =            312.1296533486745943
    One-Electron Energy =               -1038.8967661469037012
    Two-Electron Energy =                 416.5546272546097839
    DFT Exchange-Correlation Energy =       0.0000000000000000
    Empirical Dispersion Energy =           0.0000000000000000
    PCM Polarization Energy =               0.0000000000000000
    EFP Energy =                            0.0000000000000000
    Total Energy =                       -310.2124855436193798
    Molecular point group: c1
  Basis Set: 6-31G*
  Basis Set:

  -Total Gradient:
     Atom            X                  Y                   Z
    ------   -----------------  -----------------  -----------------
       1       -0.000598711153     0.000924574467     0.000789417580
       2        0.000643838124    -0.001012538484    -0.000779106653
       3        0.000495279836    -0.000385407030    -0.000916286136
       4        0.000012030174     0.000008688208     0.000000647969
       5       -0.000521056240     0.000470058714     0.000915137847
       6       -0.000014283858    -0.000002415745    -0.000002454234
       7       -0.000046615225    -0.000003674983    -0.000006716698
       8       -0.000010910609     0.000000741773    -0.000003340891
       9       -0.000001671697     0.000001122514    -0.000001299692
      10        0.000011514444     0.000001265502     0.000001166453
      11        0.000005129927    -0.000004291101     0.000005258805
      12        0.000006314976     0.000004775739    -0.000002896411
      13        0.000009482211    -0.000010842464    -0.000003591324
      14       -0.000001256101     0.000003466058     0.000003476869
      15       -0.000000704108     0.000004108620    -0.000000745178
      16        0.000001355637    -0.000000397268    -0.000000105626
      17        0.000008497036     0.000001336762     0.000003423692
      18       -0.000000973814     0.000000461778    -0.000001593656
      19        0.000000261912     0.000000483055    -0.000000480508
      20        0.000003101674    -0.000000964442     0.000000066504
      21       -0.000000623133    -0.000000551672     0.000000021287

  **** Optimization is complete! (in 6 steps) ****
    Final optimized geometry and variables:
    Molecular point group: c1

    Geometry (in Angstrom), charge = 0, multiplicity = 1:

    H           -3.866482697056    -0.633375815048     0.362880470606
    O           -3.560206074593     0.056126986664    -0.208459817025
    C           -2.309462651417     0.514427006757     0.238250839880
    C           -1.172147933164    -0.411444633354    -0.173239274846
    H           -2.175843071256     1.497161080000    -0.197341551613
    H           -2.314780121338     0.647432300455     1.319220442098
    C            0.202006873598     0.103119128288     0.259713405553
    H           -1.204562050059    -0.533546563545    -1.252474950301
    H           -1.346159908375    -1.397682818513     0.255354694473
    C            1.342821952111    -0.827357736810    -0.161250977861
    H            0.357398876532     1.093674811984    -0.160418836057
    H            0.220805384872     0.223474049899     1.342274138600
    C            2.731742120364    -0.398072066461     0.324924848789
    H            1.353542749402    -0.913831402138    -1.246421483542
    H            1.136568336646    -1.825232743365     0.220223556146
    C            3.240592919744     0.911530957609    -0.280277901621
    H            3.438478627871    -1.189351888503     0.087297601152
    H            2.723311612737    -0.315645353211     1.409968932276
    H            3.247814548571     0.862736884690    -1.365875668666
    H            2.627410663290     1.758616328623     0.008750803935
    H            4.254909466262     1.118319627181     0.046910045832

  Mulliken Charges: (a.u.)
   Center  Symbol    Alpha    Beta     Spin     Total
       1     H     0.28239  0.28239  0.00000  0.43522
       2     O     4.37102  4.37102  0.00000 -0.74204
       3     C     2.99190  2.99190  0.00000  0.01621
       4     C     3.16246  3.16246  0.00000 -0.32492
       5     H     0.41712  0.41712  0.00000  0.16577
       6     H     0.43218  0.43218  0.00000  0.13565
       7     C     3.16220  3.16220  0.00000 -0.32439
       8     H     0.41391  0.41391  0.00000  0.17218
       9     H     0.42776  0.42776  0.00000  0.14449
      10     C     3.15153  3.15153  0.00000 -0.30305
      11     H     0.41967  0.41967  0.00000  0.16065
      12     H     0.42438  0.42438  0.00000  0.15124
      13     C     3.15254  3.15254  0.00000 -0.30507
      14     H     0.42256  0.42256  0.00000  0.15487
      15     H     0.42216  0.42216  0.00000  0.15568
      16     C     3.24135  3.24135  0.00000 -0.48269
      17     H     0.42051  0.42051  0.00000  0.15899
      18     H     0.42356  0.42356  0.00000  0.15288
      19     H     0.42170  0.42170  0.00000  0.15660
      20     H     0.42018  0.42018  0.00000  0.15964
      21     H     0.41894  0.41894  0.00000  0.16211

   Total alpha = 29.00000, Total beta = 29.00000, Total charge =  0.00000
