  ==> Input File <==

--------------------------------------------------------------------------
set {
	reference rhf
	basis 6-31G*
}

set_num_threads( 1 )
memory 2 gb

molecule MOL {
0 1

O	 -0.291628	 1.323815	 -0.000732
C	 -0.449655	 0.146360	 0.000961
C	 -1.783294	 -0.549321	 -0.000296
O	 0.550821	 -0.724572	 0.000672
H	 -1.863538	 -1.185371	 -0.874187
H	 -2.574672	 0.185258	 -0.002793
H	 -1.866414	 -1.182381	 0.875436
C	 1.033134	 -1.147532	 -1.262166
H	 0.249313	 -1.634642	 -1.824041
H	 1.832173	 -1.842061	 -1.055002
H	 1.405450	 -0.305443	 -1.827506

	symmetry c1
}
set optking {
	frozen_dihedral = ("
		2 4 8 9
	")
}

ee = energy('scf')
oeprop('DIPOLE', 'QUADRUPOLE', 'MULLIKEN_CHARGES')
f=open( 'psi4out.xyz', 'w' )
f.write( "11  " )
f.write( str(ee) + "\n" )
f.write( MOL.save_string_xyz() )
f.close()
--------------------------------------------------------------------------

    Molecular point group: c1

    Geometry (in Angstrom), charge = 0, multiplicity = 1:

       Center              X                  Y                   Z               Mass
    ------------   -----------------  -----------------  -----------------  -----------------
           O         -0.114800392229     1.526854475695     0.267835944558    15.994914619560
           C         -0.272827392229     0.349399475695     0.269528944558    12.000000000000
           C         -1.606466392229    -0.346281524305     0.268271944558    12.000000000000
           O          0.727648607771    -0.521532524305     0.269239944558    15.994914619560
           H         -1.686710392229    -0.982331524305    -0.605619055442     1.007825032070
           H         -2.397844392229     0.388297475695     0.265774944558     1.007825032070
           H         -1.689586392229    -0.979341524305     1.144003944558     1.007825032070
           C          1.209961607771    -0.944492524305    -0.993598055442    12.000000000000
           H          0.426140607771    -1.431602524305    -1.555473055442     1.007825032070
           H          2.009000607771    -1.639021524305    -0.786434055442     1.007825032070
           H          1.582277607771    -0.102403524305    -1.558938055442     1.007825032070

  Charge       = 0
  Multiplicity = 1
  Basis Set: 6-31G*
  Basis Set:

    Orbital Energies (a.u.)
    -----------------------

    Doubly Occupied:

       1A    -20.589163     2A    -20.556355     3A    -11.377872
       4A    -11.297181     5A    -11.236084     6A     -1.466002
       7A     -1.369232     8A     -1.027473     9A     -0.970454
      10A     -0.782212    11A     -0.694645    12A     -0.686255
      13A     -0.673347    14A     -0.614223    15A     -0.588916
      16A     -0.576461    17A     -0.546498    18A     -0.490528
      19A     -0.462205    20A     -0.441022

  @DF-RHF Final Energy:  -266.81447129768696

   => Energetics <=

    Nuclear Repulsion Energy =            183.2682974235702886
    One-Electron Energy =                -727.2733093760959946
    Two-Electron Energy =                 277.1905406548386850
    DFT Exchange-Correlation Energy =       0.0000000000000000
    Empirical Dispersion Energy =           0.0000000000000000
    PCM Polarization Energy =               0.0000000000000000
    EFP Energy =                            0.0000000000000000
    Total Energy =                       -266.8144712976870210

  Mulliken Charges: (a.u.)
   Center  Symbol    Alpha    Beta     Spin     Total
       1     O     4.25391  4.25391  0.00000 -0.50783
       2     C     2.63261  2.63261  0.00000  0.73477
       3     C     3.28617  3.28617  0.00000 -0.57235
       4     O     4.30271  4.30271  0.00000 -0.60542
       5     H     0.40767  0.40767  0.00000  0.18465
       6     H     0.39787  0.39787  0.00000  0.20425
       7     H     0.39799  0.39799  0.00000  0.20403
       8     C     3.09280  3.09280  0.00000 -0.18560
       9     H     0.42106  0.42106  0.00000  0.15789
      10     H     0.40045  0.40045  0.00000  0.19910
      11     H     0.40675  0.40675  0.00000  0.18651

   Total alpha = 20.00000, Total beta = 20.00000, Total charge = -0.00000
