                              Psi4 1.0.54 Driver

  ==> Input File <==

--------------------------------------------------------------------------
set {
	reference rhf
	basis cc-pvtz
}

set_num_threads( 4 )
memory 2 gb

molecule MOL {
0 1

H	 -0.000342	 -0.223902	 -3.352295
C	 -0.027146	 0.371068	 -2.446756
C	 0.024493	 -0.518541	 -1.216015
H	 -0.932586	 0.964979	 -2.449855
H	 0.819708	 1.049865	 -2.473332
N	 -0.042516	 0.263377	 0.000000
H	 -0.822211	 -1.197105	 -1.225584
H	 0.921114	 -1.142847	 -1.255206
C	 0.024493	 -0.518541	 1.216015
H	 0.682568	 0.950412	 0.000000
C	 -1.242098	 -1.333303	 1.417767
H	 0.875246	 -1.187575	 1.138172
H	 0.201033	 0.104428	 2.096905
H	 -1.409744	 -1.991965	 0.574784
H	 -1.173637	 -1.933428	 2.317696
H	 -2.109433	 -0.687967	 1.517288

	symmetry c1
}
set optking {
	frozen_dihedral = ("
		12 9 6 3
	")
}

ee,wfn = optimize('scf', return_wfn=True)
oeprop( wfn, 'DIPOLE', 'QUADRUPOLE', 'MULLIKEN_CHARGES')
f=open( 'psi4out.xyz', 'w' )
f.write( "16  " )
f.write( str(ee) + "\n" )
f.write( MOL.save_string_xyz() )
f.close()
--------------------------------------------------------------------------

    Molecular point group: c1
  Charge       = 0
  Multiplicity = 1
  Basis Set: CC-PVTZ
  Basis Set:
  @DF-RHF Final Energy:  -212.39025246355561
    Total Energy =                       -212.3902524635557256
    Molecular point group: c1
  Basis Set: CC-PVTZ
  Basis Set:
  Basis Set: CC-PVTZ
  Basis Set:
  @DF-RHF Final Energy:  -212.36053864921357
    Total Energy =                       -212.3605386492137086
  Basis Set: CC-PVTZ
  Basis Set:
  Basis Set: CC-PVTZ
  Basis Set:
  @DF-RHF Final Energy:  -212.39179229465529
    Total Energy =                       -212.3917922946549766
  Basis Set: CC-PVTZ
  Basis Set:
  Basis Set: CC-PVTZ
  Basis Set:
  @DF-RHF Final Energy:  -212.39261412127703
    Total Energy =                       -212.3926141212771199
  Basis Set: CC-PVTZ
  Basis Set:
  Basis Set: CC-PVTZ
  Basis Set:
  @DF-RHF Final Energy:  -212.39264579188145
    Total Energy =                       -212.3926457918814776
  Basis Set: CC-PVTZ
  Basis Set:
  Basis Set: CC-PVTZ
  Basis Set:
  @DF-RHF Final Energy:  -212.39264796927566
    Total Energy =                       -212.3926479692756857
  Basis Set: CC-PVTZ
  Basis Set:
  Charge       = 0
  Multiplicity = 1
  Basis Set: CC-PVTZ
  Basis Set:

    Orbital Energies (a.u.)
    -----------------------

    Doubly Occupied:

       1A    -15.528822     2A    -11.239637     3A    -11.238464
       4A    -11.207160     5A    -11.203103     6A     -1.205710
       7A     -1.025765     8A     -0.967723     9A     -0.847741
      10A     -0.800349    11A     -0.662775    12A     -0.628743
      13A     -0.617162    14A     -0.584500    15A     -0.537713
      16A     -0.526427    17A     -0.510773    18A     -0.493059
      19A     -0.483157    20A     -0.467803    21A     -0.361825

  @DF-RHF Final Energy:  -212.39264822760902

   => Energetics <=

    Nuclear Repulsion Energy =            191.3994215074066005
    One-Electron Energy =                -665.3073182825264666
    Two-Electron Energy =                 261.5152485475109643
    DFT Exchange-Correlation Energy =       0.0000000000000000
    Empirical Dispersion Energy =           0.0000000000000000
    PCM Polarization Energy =               0.0000000000000000
    EFP Energy =                            0.0000000000000000
    Total Energy =                       -212.3926482276089018
    Molecular point group: c1
  Basis Set: CC-PVTZ
  Basis Set:

  -Total Gradient:
     Atom            X                  Y                   Z
    ------   -----------------  -----------------  -----------------
       1        0.000001994753     0.000003869604     0.000003938658
       2        0.000001159531    -0.000005932818    -0.000005072234
       3       -0.000407172388    -0.000120817954    -0.000104942120
       4        0.000000941018    -0.000000020540     0.000002379936
       5       -0.000003155155    -0.000002784634    -0.000001591557
       6        0.000613633138     0.000288097655     0.000242205460
       7        0.000005576524     0.000000392446     0.000011058306
       8        0.000001527437     0.000002416517    -0.000003359690
       9       -0.000392963491    -0.000572342545    -0.000467816729
      10        0.000000785377    -0.000012273102     0.000003741398
      11       -0.000003445888     0.000025103744     0.000005382523
      12        0.000170374695     0.000407423544     0.000328360817
      13       -0.000001560262    -0.000010321977    -0.000004051133
      14        0.000005726244    -0.000000120580    -0.000001367550
      15        0.000004240644     0.000000638201    -0.000005636392
      16        0.000002337825    -0.000003327561    -0.000003229694

  **** Optimization is complete! (in 7 steps) ****
    Final optimized geometry and variables:
    Molecular point group: c1

    Geometry (in Angstrom), charge = 0, multiplicity = 1:

    H            0.959500552077     0.694243400470    -2.960268191103
    C            0.598867995041     1.109307024988    -2.026366376372
    C            0.512860024387     0.033393432400    -0.956525236465
    H           -0.373571671937     1.553571970828    -2.198829068124
    H            1.281963379007     1.899936351496    -1.731354843224
    N            0.003965419121     0.578073463345     0.285649919761
    H           -0.155357826996    -0.748638875515    -1.295287886285
    H            1.494624188663    -0.430519449507    -0.826857668710
    C           -0.018130873627    -0.338389651724     1.410179352586
    H            0.532254274267     1.387698349569     0.530575514345
    C           -1.122535295814    -1.380686166392     1.304923525761
    H            0.942766044797    -0.841997678525     1.544763145450
    H           -0.185513818673     0.251664236524     2.303911322544
    H           -0.969507531991    -2.050947474083     0.468001097641
    H           -1.152994484260    -1.985204331984     2.204629224736
    H           -2.084698432579    -0.898959002113     1.180311898441

  Mulliken Charges: (a.u.)
   Center  Symbol    Alpha    Beta     Spin     Total
       1     H     0.45370  0.45370  0.00000  0.09261
       2     C     3.14325  3.14325  0.00000 -0.28650
       3     C     3.02216  3.02216  0.00000 -0.04432
       4     H     0.44914  0.44914  0.00000  0.10172
       5     H     0.45936  0.45936  0.00000  0.08127
       6     N     3.63792  3.63792  0.00000 -0.27584
       7     H     0.45742  0.45742  0.00000  0.08515
       8     H     0.47411  0.47411  0.00000  0.05179
       9     C     3.03289  3.03289  0.00000 -0.06579
      10     H     0.44265  0.44265  0.00000  0.11470
      11     C     3.14329  3.14329  0.00000 -0.28658
      12     H     0.47125  0.47125  0.00000  0.05749
      13     H     0.45430  0.45430  0.00000  0.09139
      14     H     0.45601  0.45601  0.00000  0.08799
      15     H     0.45193  0.45193  0.00000  0.09615
      16     H     0.45062  0.45062  0.00000  0.09877

   Total alpha = 21.00000, Total beta = 21.00000, Total charge =  0.00000

*** Psi4 exiting successfully. Buy a developer a beer!
