  ==> Input File <==

--------------------------------------------------------------------------
set {
	reference rhf
	basis cc-pvtz
}

set_num_threads( 4 )
memory 2 gb

molecule MOL {
0 1

O	 3.219313	 0.959291	 -0.614106
C	 2.698710	 0.058177	 -0.050237
C	 1.246364	 -0.005813	 0.348416
O	 3.344101	 -1.038700	 0.312317
C	 0.453207	 1.232821	 -0.049003
H	 0.839270	 -0.907818	 -0.092281
H	 1.216683	 -0.160521	 1.422434
C	 -0.998367	 1.217982	 0.432195
H	 0.481498	 1.345443	 -1.127236
H	 0.951413	 2.105557	 0.354893
C	 -1.882951	 0.151251	 -0.211235
H	 -1.429490	 2.193659	 0.228843
H	 -1.019755	 1.099323	 1.513279
C	 -3.342450	 0.243269	 0.226009
H	 -1.826223	 0.246578	 -1.293162
H	 -1.508033	 -0.839650	 0.027695
C	 -4.234517	 -0.821434	 -0.405970
H	 -3.730149	 1.228245	 -0.022691
H	 -3.398860	 0.159952	 1.308941
C	 -4.671199	 -1.900202	 0.579598
H	 -5.113917	 -0.345885	 -0.831680
H	 -3.707812	 -1.284688	 -1.235930
H	 -5.302122	 -2.639323	 0.099369
H	 -5.231762	 -1.472894	 1.404393
H	 -3.814495	 -2.418369	 0.997652
C	 4.720529	 -1.114346	 0.001449
H	 4.874321	 -1.055557	 -1.065852
H	 5.057824	 -2.067950	 0.373977
H	 5.264321	 -0.313596	 0.480350

	symmetry c1
}
set optking {
	frozen_dihedral = ("
		21 17 14 11
	")
}

ee = optimize('scf')
oeprop('DIPOLE', 'QUADRUPOLE', 'MULLIKEN_CHARGES')
f=open( 'psi4out.xyz', 'w' )
f.write( "29  " )
f.write( str(ee) + "\n" )
f.write( MOL.save_string_xyz() )
f.close()
--------------------------------------------------------------------------

    Molecular point group: c1
  Charge       = 0
  Multiplicity = 1
  Basis Set: CC-PVTZ
  Basis Set:
  @DF-RHF Final Energy:  -501.21953218474061
    Total Energy =                       -501.2195321847399327
    Molecular point group: c1
  Basis Set: CC-PVTZ
  Basis Set:
  Basis Set: CC-PVTZ
  Basis Set:
  @DF-RHF Final Energy:  -501.21979719338151
    Total Energy =                       -501.2197971933819645
  Basis Set: CC-PVTZ
  Basis Set:
  Basis Set: CC-PVTZ
  Basis Set:
  @DF-RHF Final Energy:  -501.21985252628338
    Total Energy =                       -501.2198525262830344
  Basis Set: CC-PVTZ
  Basis Set:
  Basis Set: CC-PVTZ
  Basis Set:
  @DF-RHF Final Energy:  -501.21963303949917
    Total Energy =                       -501.2196330394997403
  Basis Set: CC-PVTZ
  Basis Set:
  Basis Set: CC-PVTZ
  Basis Set:
  @DF-RHF Final Energy:  -501.21986291369399
    Total Energy =                       -501.2198629136943282
  Basis Set: CC-PVTZ
  Basis Set:
  Charge       = 0
  Multiplicity = 1
  Basis Set: CC-PVTZ
  Basis Set:

    Orbital Energies (a.u.)
    -----------------------

    Doubly Occupied:

       1A    -20.596034     2A    -20.533883     3A    -11.364299
       4A    -11.278279     5A    -11.233012     6A    -11.217117
       7A    -11.215404     8A    -11.214187     9A    -11.213643
      10A    -11.212106    11A    -11.208029    12A     -1.471929
      13A     -1.365516    14A     -1.098881    15A     -1.066539
      16A     -1.019875    17A     -0.977810    18A     -0.928946
      19A     -0.864614    20A     -0.801524    21A     -0.788992
      22A     -0.765888    23A     -0.703006    24A     -0.685535
      25A     -0.676012    26A     -0.645417    27A     -0.626907
      28A     -0.609843    29A     -0.596930    30A     -0.587184
      31A     -0.562985    32A     -0.554003    33A     -0.533717
      34A     -0.529955    35A     -0.519695    36A     -0.508210
      37A     -0.500521    38A     -0.475842    39A     -0.473904
      40A     -0.463531    41A     -0.459459    42A     -0.452540
      43A     -0.443288    44A     -0.436888

  @DF-RHF Final Energy:  -501.21986311402202

   => Energetics <=

    Nuclear Repulsion Energy =            614.4889993291888004
    One-Electron Energy =               -1900.4539611269442503
    Two-Electron Energy =                 784.7450986837329765
    DFT Exchange-Correlation Energy =       0.0000000000000000
    Empirical Dispersion Energy =           0.0000000000000000
    PCM Polarization Energy =               0.0000000000000000
    EFP Energy =                            0.0000000000000000
    Total Energy =                       -501.2198631140224734
    Molecular point group: c1
  Basis Set: CC-PVTZ
  Basis Set:

  -Total Gradient:
     Atom            X                  Y                   Z
    ------   -----------------  -----------------  -----------------
       1        0.000000963678     0.000004645634     0.000010045241
       2       -0.000004397954    -0.000007600291    -0.000019965185
       3        0.000004555315     0.000004062526     0.000002526092
       4        0.000002162134     0.000002053176     0.000006583850
       5        0.000003612896    -0.000009963493     0.000016855536
       6       -0.000004433972     0.000002791545    -0.000002043105
       7       -0.000002324323    -0.000000927099     0.000003029610
       8        0.000008907020    -0.000007239982     0.000035764773
       9       -0.000009714530    -0.000004950412     0.000007843464
      10        0.000007553133     0.000006171405    -0.000000476060
      11       -0.000362489545     0.001057772173    -0.001437736221
      12        0.000016022595    -0.000003295605    -0.000007263218
      13        0.000003485328     0.000018706488     0.000007195634
      14        0.000739521808    -0.001424926718     0.001401992213
      15       -0.000016970283     0.000004061304    -0.000013451645
      16        0.000005700079    -0.000001996295    -0.000008305536
      17       -0.001568661446     0.000132283898     0.002081646146
      18       -0.000001616822    -0.000010336590    -0.000013960829
      19       -0.000009946272    -0.000001656865     0.000007269713
      20       -0.000010408692    -0.000010374494     0.000028947910
      21        0.001185503008     0.000227377996    -0.002089107465
      22        0.000010713712     0.000006581363     0.000002302215
      23        0.000000451813     0.000006749950    -0.000014524986
      24        0.000003740190     0.000001960730     0.000001640339
      25       -0.000001320530     0.000008059141    -0.000006572480
      26       -0.000001091025    -0.000000506561    -0.000001110487
      27        0.000000256703     0.000000055255     0.000000234492
      28        0.000000259230     0.000000064045     0.000000335225
      29       -0.000000033248     0.000000377775     0.000000304762

  **** Optimization is complete! (in 6 steps) ****
    Final optimized geometry and variables:
    Molecular point group: c1

    Geometry (in Angstrom), charge = 0, multiplicity = 1:

    O            3.125513708908     1.073526590913    -0.655907486264
    C            2.602099877818     0.168404266657    -0.101132965056
    C            1.148967434861     0.103831942751     0.294686791659
    O            3.244644448798    -0.933190206632     0.252048129998
    C            0.359252280485     1.348240304234    -0.091425307734
    H            0.740380173209    -0.792670607038    -0.155819359631
    H            1.117163259962    -0.061763384370     1.367016027562
    C           -1.093013107845     1.331849419084     0.387806999621
    H            0.389115006244     1.471431154824    -1.168449789089
    H            0.858974464870     2.215817788803     0.321635714749
    C           -1.979419188846     0.274775344533    -0.267874073297
    H           -1.521619171406     2.310763594862     0.194257755918
    H           -1.116193866578     1.202025164583     1.467565390901
    C           -3.442857871656     0.372852489391     0.160025135030
    H           -1.919620177217     0.377530503681    -1.348644807788
    H           -1.610100595945    -0.720368155974    -0.035498867387
    C           -4.340138420068    -0.718441002559    -0.455315653527
    H           -3.815283738212     1.353684691693    -0.118472100845
    H           -3.504233113803     0.328178374360     1.243661566175
    C           -4.761193205266    -1.798125863331     0.536682116546
    H           -5.220971166469    -0.266858316102    -0.898372260087
    H           -3.813987477141    -1.187534623697    -1.281568169603
    H           -5.357155706546    -2.565187098888     0.055184487276
    H           -5.350880191211    -1.377502153534     1.344175751592
    H           -3.895801949950    -2.281231545773     0.979090285564
    C            4.621353069187    -1.008870381592    -0.057632350124
    H            4.776743847417    -0.940388376507    -1.124126373737
    H            4.956177510624    -1.966631870458     0.306378883829
    H            5.166170022180    -0.213790826450     0.429489452790

  Mulliken Charges: (a.u.)
   Center  Symbol    Alpha    Beta     Spin     Total
       1     O     4.19697  4.19697  0.00000 -0.39394
       2     C     2.80482  2.80482  0.00000  0.39036
       3     C     3.10173  3.10173  0.00000 -0.20345
       4     O     4.14720  4.14720  0.00000 -0.29441
       5     C     3.09242  3.09242  0.00000 -0.18484
       6     H     0.43922  0.43922  0.00000  0.12155
       7     H     0.43991  0.43991  0.00000  0.12018
       8     C     3.10482  3.10482  0.00000 -0.20965
       9     H     0.44626  0.44626  0.00000  0.10747
      10     H     0.43957  0.43957  0.00000  0.12086
      11     C     3.09284  3.09284  0.00000 -0.18569
      12     H     0.44537  0.44537  0.00000  0.10926
      13     H     0.45325  0.45325  0.00000  0.09350
      14     C     3.09544  3.09544  0.00000 -0.19087
      15     H     0.45202  0.45202  0.00000  0.09597
      16     H     0.45339  0.45339  0.00000  0.09321
      17     C     3.09121  3.09121  0.00000 -0.18242
      18     H     0.44737  0.44737  0.00000  0.10525
      19     H     0.45472  0.45472  0.00000  0.09056
      20     C     3.14689  3.14689  0.00000 -0.29378
      21     H     0.44803  0.44803  0.00000  0.10394
      22     H     0.45499  0.45499  0.00000  0.09002
      23     H     0.44917  0.44917  0.00000  0.10167
      24     H     0.45461  0.45461  0.00000  0.09077
      25     H     0.45580  0.45580  0.00000  0.08840
      26     C     3.03813  3.03813  0.00000 -0.07626
      27     H     0.45435  0.45435  0.00000  0.09130
      28     H     0.44527  0.44527  0.00000  0.10946
      29     H     0.45422  0.45422  0.00000  0.09156

   Total alpha = 44.00000, Total beta = 44.00000, Total charge = -0.00000
