  ==> Input File <==

--------------------------------------------------------------------------
set {
	reference rhf
	basis 6-31G*
}

set_num_threads( 4 )
memory 2 gb

molecule MOL {
0 1

H	 -2.095764	 0.435638	 -2.350391
C	 -2.795213	 1.048318	 -1.768139
C	 -2.660244	 0.921717	 -0.272021
O	 -3.583432	 1.744001	 -2.321751
C	 -1.220012	 1.144545	 0.209990
H	 -3.348552	 1.617484	 0.193650
H	 -2.974627	 -0.086968	 -0.006741
C	 -0.252658	 0.041456	 -0.226725
H	 -0.873521	 2.100229	 -0.171974
H	 -1.211708	 1.231594	 1.295398
C	 1.180775	 0.282413	 0.250794
H	 -0.266029	 -0.034465	 -1.312038
H	 -0.597733	 -0.921000	 0.146291
C	 2.148627	 -0.814315	 -0.201312
H	 1.516199	 1.249228	 -0.115937
H	 1.192670	 0.346017	 1.338083
C	 3.580890	 -0.659131	 0.322722
H	 2.166869	 -0.852443	 -1.289387
H	 1.762857	 -1.776509	 0.128956
C	 4.324889	 0.564933	 -0.213704
H	 4.142010	 -1.551473	 0.056605
H	 3.564836	 -0.624694	 1.410140
H	 4.342616	 0.565491	 -1.300421
H	 3.866655	 1.493402	 0.110242
H	 5.353900	 0.572371	 0.132816

	symmetry c1
}
set optking {
	frozen_dihedral = ("
		6 3 5 8
	")
}

ee = optimize('scf')
oeprop('DIPOLE', 'QUADRUPOLE', 'MULLIKEN_CHARGES')
f=open( 'psi4out.xyz', 'w' )
f.write( "25  " )
f.write( str(ee) + "\n" )
f.write( MOL.save_string_xyz() )
f.close()
--------------------------------------------------------------------------

    Molecular point group: c1
  Charge       = 0
  Multiplicity = 1
  Basis Set: 6-31G*
  Basis Set:
  @DF-RHF Final Energy:  -387.11952576489875
    Total Energy =                       -387.1195257648990946
    Molecular point group: c1
  Basis Set: 6-31G*
  Basis Set:
  Basis Set: 6-31G*
  Basis Set:
  @DF-RHF Final Energy:  -387.11972811399346
    Total Energy =                       -387.1197281139938013
  Basis Set: 6-31G*
  Basis Set:
  Basis Set: 6-31G*
  Basis Set:
  @DF-RHF Final Energy:  -387.11522669670808
    Total Energy =                       -387.1152266967079640
  Basis Set: 6-31G*
  Basis Set:
  Basis Set: 6-31G*
  Basis Set:
  @DF-RHF Final Energy:  -387.12013505517297
    Total Energy =                       -387.1201350551729092
  Basis Set: 6-31G*
  Basis Set:
  @DF-RHF Final Energy:  -387.12026220934922
    Total Energy =                       -387.1202622093493346
  @DF-RHF Final Energy:  -387.12028726467616
    Total Energy =                       -387.1202872646761080
  @DF-RHF Final Energy:  -387.12029385635043
    Total Energy =                       -387.1202938563501448
  @DF-RHF Final Energy:  -387.12029888325509
    Total Energy =                       -387.1202988832552592
  @DF-RHF Final Energy:  -387.12031046717283
    Total Energy =                       -387.1203104671732262
  @DF-RHF Final Energy:  -387.12031793319301
    Total Energy =                       -387.1203179331927231
  Basis Set: 6-31G*
  Basis Set:
  @DF-RHF Final Energy:  -387.12032095195008
    Total Energy =                       -387.1203209519501343
  Basis Set: 6-31G*
  Basis Set:
  Basis Set: 6-31G*
  Basis Set:
  @DF-RHF Final Energy:  -387.12031966451030
    Total Energy =                       -387.1203196645101343
  Basis Set: 6-31G*
  Basis Set:
  Basis Set: 6-31G*
  Basis Set:
  @DF-RHF Final Energy:  -387.12032102480151
    Total Energy =                       -387.1203210248011146
  Basis Set: 6-31G*
  Basis Set:
  Charge       = 0
  Multiplicity = 1
  Basis Set: 6-31G*
  Basis Set:

    Orbital Energies (a.u.)
    -----------------------

    Doubly Occupied:

       1A    -20.561476     2A    -11.324950     3A    -11.235624
       4A    -11.234160     5A    -11.227948     6A    -11.222002
       7A    -11.220044     8A    -11.219459     9A    -11.211791
      10A     -1.400919    11A     -1.104857    12A     -1.069911
      13A     -1.014113    14A     -0.943539    15A     -0.877222
      16A     -0.827371    17A     -0.784153    18A     -0.779210
      19A     -0.678626    20A     -0.658435    21A     -0.632573
      22A     -0.618520    23A     -0.610172    24A     -0.582350
      25A     -0.573292    26A     -0.564323    27A     -0.536504
      28A     -0.519455    29A     -0.514239    30A     -0.501533
      31A     -0.485237    32A     -0.482099    33A     -0.467042
      34A     -0.461001    35A     -0.444197    36A     -0.407352

  @DF-RHF Final Energy:  -387.12032124608123

   => Energetics <=

    Nuclear Repulsion Energy =            437.0230032839244245
    One-Electron Energy =               -1390.2952557127152886
    Two-Electron Energy =                 566.1519311827091769
    DFT Exchange-Correlation Energy =       0.0000000000000000
    Empirical Dispersion Energy =           0.0000000000000000
    PCM Polarization Energy =               0.0000000000000000
    EFP Energy =                            0.0000000000000000
    Total Energy =                       -387.1203212460816303
    Molecular point group: c1
  Basis Set: 6-31G*
  Basis Set:

  -Total Gradient:
     Atom            X                  Y                   Z
    ------   -----------------  -----------------  -----------------
       1        0.000003844597    -0.000002578138    -0.000001014640
       2       -0.000003811839    -0.000006645744    -0.000009435195
       3        0.000031996584     0.000216798245    -0.000236160738
       4        0.000004891233    -0.000000850927     0.000010589728
       5        0.000048234460     0.000119901503    -0.000238707073
       6       -0.000037751366    -0.000209657206     0.000265027597
       7       -0.000000593604     0.000003580741    -0.000003165755
       8       -0.000045334906    -0.000121803751     0.000216999084
       9       -0.000002859459     0.000001986338    -0.000000793582
      10        0.000000373707    -0.000001637275     0.000000400688
      11        0.000000911963     0.000004112533    -0.000001746259
      12        0.000000172623     0.000001808955     0.000000926883
      13        0.000000128571    -0.000003348475    -0.000002188508
      14        0.000000266474    -0.000001070321    -0.000000212027
      15        0.000002473850     0.000001396468     0.000000933058
      16       -0.000003778126    -0.000000534756    -0.000001482975
      17        0.000000760564     0.000000262742    -0.000001492333
      18       -0.000001457501    -0.000000040721     0.000000471414
      19        0.000002167455    -0.000001175954     0.000000354102
      20        0.000000072928    -0.000000688886     0.000000098015
      21        0.000000686859    -0.000000378802     0.000000786888
      22       -0.000000768873     0.000001048752    -0.000000404811
      23       -0.000000765692     0.000000212127    -0.000000010248
      24       -0.000000199019    -0.000000064953     0.000000652607
      25        0.000000338521    -0.000000632499    -0.000000425914

  **** Optimization is complete! (in 14 steps) ****
    Final optimized geometry and variables:
    Molecular point group: c1

    Geometry (in Angstrom), charge = 0, multiplicity = 1:

    H           -2.512901942495    -0.232513079176    -1.891644783666
    C           -2.986904546410     0.531007222773    -1.266548978446
    C           -2.760407002034     0.408873944133     0.219279878341
    O           -3.631639860151     1.393128892699    -1.771826321344
    C           -1.294528102253     0.644598692265     0.628242931578
    H           -3.406595341673     1.128758685135     0.707159169051
    H           -3.066821073083    -0.587610557949     0.532921122164
    C           -0.321351834172    -0.455603963460     0.193457809492
    H           -0.965630251051     1.604645112401     0.237755903631
    H           -1.264576293188     0.731187737247     1.710728113026
    C            1.103610334899    -0.214663079855     0.697044637963
    H           -0.302124901486    -0.535172425214    -0.891249458143
    H           -0.677409681886    -1.415230248079     0.564079993247
    C            2.080210709667    -1.311216880559     0.263677432193
    H            1.445614003756     0.752383038695     0.337842176678
    H            1.093294281614    -0.152106404518     1.784089079240
    C            3.499813819096    -1.160353474864     0.822284394981
    H            2.125302854295    -1.344242831961    -0.823792317212
    H            1.685415368449    -2.274532617197     0.580239431140
    C            4.256561398022     0.067279941958     0.311953179872
    H            4.066611394397    -2.051415302932     0.564174744451
    H            3.457191235973    -1.132977395158     1.909217872059
    H            4.303725147319     0.073198139512    -0.773730723259
    H            3.789171169358     0.993947619024     0.628037458650
    H            5.275710948104     0.073812714456     0.685819936459

  Mulliken Charges: (a.u.)
   Center  Symbol    Alpha    Beta     Spin     Total
       1     H     0.42997  0.42997  0.00000  0.14006
       2     C     2.83257  2.83257  0.00000  0.33487
       3     C     3.20804  3.20804  0.00000 -0.41608
       4     O     4.23771  4.23771  0.00000 -0.47543
       5     C     3.16475  3.16475  0.00000 -0.32950
       6     H     0.39823  0.39823  0.00000  0.20354
       7     H     0.41200  0.41200  0.00000  0.17600
       8     C     3.15671  3.15671  0.00000 -0.31343
       9     H     0.41212  0.41212  0.00000  0.17576
      10     H     0.41288  0.41288  0.00000  0.17423
      11     C     3.15416  3.15416  0.00000 -0.30832
      12     H     0.42151  0.42151  0.00000  0.15699
      13     H     0.42161  0.42161  0.00000  0.15679
      14     C     3.15308  3.15308  0.00000 -0.30615
      15     H     0.41917  0.41917  0.00000  0.16167
      16     H     0.42267  0.42267  0.00000  0.15465
      17     C     3.15274  3.15274  0.00000 -0.30549
      18     H     0.42344  0.42344  0.00000  0.15312
      19     H     0.42205  0.42205  0.00000  0.15590
      20     C     3.24159  3.24159  0.00000 -0.48317
      21     H     0.42008  0.42008  0.00000  0.15984
      22     H     0.42293  0.42293  0.00000  0.15413
      23     H     0.42171  0.42171  0.00000  0.15658
      24     H     0.41996  0.41996  0.00000  0.16009
      25     H     0.41833  0.41833  0.00000  0.16335

   Total alpha = 36.00000, Total beta = 36.00000, Total charge = -0.00000
