  ==> Input File <==

--------------------------------------------------------------------------
set {
	reference rhf
	basis 6-31G*
}

set_num_threads( 4 )
memory 2 gb

molecule MOL {
0 1

H	 -2.332866	 -0.526655	 0.057417
O	 -1.422729	 -0.573567	 -0.196946
C	 -0.731407	 0.539437	 0.309156
C	 0.680193	 0.672443	 -0.251532
H	 -1.319765	 1.404033	 0.030086
H	 -0.700012	 0.506517	 1.397677
C	 1.599139	 -0.492137	 0.118598
H	 0.616402	 0.758534	 -1.332349
H	 1.107032	 1.602637	 0.117369
H	 1.239738	 -1.428634	 -0.297334
H	 2.601428	 -0.335055	 -0.265730
H	 1.674954	 -0.608418	 1.197020

	symmetry c1
}
set optking {
	frozen_dihedral = ("
		1 2 3 4
	")
}

ee = optimize('scf')
oeprop('DIPOLE', 'QUADRUPOLE', 'MULLIKEN_CHARGES')
f=open( 'psi4out.xyz', 'w' )
f.write( "12  " )
f.write( str(ee) + "\n" )
f.write( MOL.save_string_xyz() )
f.close()
--------------------------------------------------------------------------

    Molecular point group: c1
  Charge       = 0
  Multiplicity = 1
  Basis Set: 6-31G*
  Basis Set:
  @DF-RHF Final Energy:  -193.10845490170868
    Total Energy =                       -193.1084549017086545
    Molecular point group: c1
  Basis Set: 6-31G*
  Basis Set:
  Basis Set: 6-31G*
  Basis Set:
  @DF-RHF Final Energy:  -193.10995581368451
    Total Energy =                       -193.1099558136844792
  Basis Set: 6-31G*
  Basis Set:
  Basis Set: 6-31G*
  Basis Set:
  @DF-RHF Final Energy:  -193.11037870936002
    Total Energy =                       -193.1103787093600204
  Basis Set: 6-31G*
  Basis Set:
  Basis Set: 6-31G*
  Basis Set:
  @DF-RHF Final Energy:  -193.11038391506349
    Total Energy =                       -193.1103839150634371
  Basis Set: 6-31G*
  Basis Set:
  Basis Set: 6-31G*
  Basis Set:
  @DF-RHF Final Energy:  -193.11038535043957
    Total Energy =                       -193.1103853504394863
  Basis Set: 6-31G*
  Basis Set:
  Charge       = 0
  Multiplicity = 1
  Basis Set: 6-31G*
  Basis Set:

    Orbital Energies (a.u.)
    -----------------------

    Doubly Occupied:

       1A    -20.553080     2A    -11.268172     3A    -11.214228
       4A    -11.202307     5A     -1.359939     6A     -1.046158
       7A     -0.917424     8A     -0.797670     9A     -0.704944
      10A     -0.642335    11A     -0.583261    12A     -0.578866
      13A     -0.536783    14A     -0.497331    15A     -0.480816
      16A     -0.463802    17A     -0.433191

  @DF-RHF Final Energy:  -193.11038612883570

   => Energetics <=

    Nuclear Repulsion Energy =            133.3255181400799358
    One-Electron Energy =                -526.3111944528330923
    Two-Electron Energy =                 199.8752901839174569
    DFT Exchange-Correlation Energy =       0.0000000000000000
    Empirical Dispersion Energy =           0.0000000000000000
    PCM Polarization Energy =               0.0000000000000000
    EFP Energy =                            0.0000000000000000
    Total Energy =                       -193.1103861288357280
    Molecular point group: c1
  Basis Set: 6-31G*
  Basis Set:

  -Total Gradient:
     Atom            X                  Y                   Z
    ------   -----------------  -----------------  -----------------
       1       -0.000208783775     0.000535550668    -0.000902262422
       2        0.000172522198    -0.000534021410     0.000925015296
       3        0.000270084547    -0.000387057403     0.000457543890
       4       -0.000233804160     0.000378433311    -0.000483435291
       5        0.000015351678    -0.000007455697     0.000002582749
       6        0.000009059229     0.000012174535    -0.000002077511
       7       -0.000010462268     0.000007601778     0.000005519740
       8       -0.000011637202    -0.000001084968    -0.000000519979
       9        0.000006777297     0.000000402072    -0.000002076948
      10       -0.000002741644    -0.000007381589    -0.000004079472
      11       -0.000011791066     0.000002676331     0.000000105846
      12        0.000005425165     0.000000162372     0.000003684102

  **** Optimization is complete! (in 6 steps) ****
    Final optimized geometry and variables:
    Molecular point group: c1

    Geometry (in Angstrom), charge = 0, multiplicity = 1:

    H           -2.254551671005    -0.606441782658     0.007056170604
    O           -1.334372008801    -0.600611125762    -0.213617432949
    C           -0.725065279690     0.546032940987     0.324131006972
    C            0.678818402843     0.664289861555    -0.244592577542
    H           -1.297143385159     1.436090822462     0.068698209056
    H           -0.684551527626     0.482063047886     1.410878556932
    C            1.580214576478    -0.512444139468     0.126059703070
    H            0.603734829619     0.746248606360    -1.324943998286
    H            1.114883448765     1.593199559364     0.116120139300
    H            1.168775121788    -1.444744916259    -0.240815482960
    H            2.571479065956    -0.388543084464    -0.298872384202
    H            1.690135621416    -0.595259517322     1.204120727438

  Mulliken Charges: (a.u.)
   Center  Symbol    Alpha    Beta     Spin     Total
       1     H     0.28040  0.28040  0.00000  0.43920
       2     O     4.36977  4.36977  0.00000 -0.73955
       3     C     2.99643  2.99643  0.00000  0.00713
       4     C     3.15846  3.15846  0.00000 -0.31692
       5     H     0.43037  0.43037  0.00000  0.13926
       6     H     0.43200  0.43200  0.00000  0.13599
       7     C     3.24163  3.24163  0.00000 -0.48326
       8     H     0.41522  0.41522  0.00000  0.16957
       9     H     0.42376  0.42376  0.00000  0.15248
      10     H     0.40602  0.40602  0.00000  0.18796
      11     H     0.42117  0.42117  0.00000  0.15766
      12     H     0.42476  0.42476  0.00000  0.15048

   Total alpha = 17.00000, Total beta = 17.00000, Total charge =  0.00000
