  ==> Input File <==

--------------------------------------------------------------------------
set {
	reference rhf
	basis 6-31G*
}

set_num_threads( 4 )
memory 2 gb

molecule MOL {
0 1

H	 -2.820809	 0.170741	 -0.002400
N	 -1.855091	 0.304026	 0.226942
C	 -1.132117	 0.869853	 -0.898337
H	 -1.474462	 -0.594947	 0.450726
C	 0.331961	 1.028067	 -0.545380
H	 -1.203680	 0.274984	 -1.809935
H	 -1.542759	 1.850929	 -1.116615
O	 0.874168	 -0.245412	 -0.342030
H	 0.860979	 1.535799	 -1.351598
H	 0.427830	 1.627487	 0.357249
C	 2.202317	 -0.244239	 0.074611
H	 2.711377	 -1.041390	 -0.449894
H	 2.692099	 0.699270	 -0.159667
H	 2.283185	 -0.418429	 1.145558

	symmetry c1
}
set optking {
	frozen_dihedral = ("
		5 8 11 13
	")
}

ee = optimize('scf')
oeprop('DIPOLE', 'QUADRUPOLE', 'MULLIKEN_CHARGES')
f=open( 'psi4out.xyz', 'w' )
f.write( "14  " )
f.write( str(ee) + "\n" )
f.write( MOL.save_string_xyz() )
f.close()
--------------------------------------------------------------------------

    Molecular point group: c1
  Charge       = 0
  Multiplicity = 1
  Basis Set: 6-31G*
  Basis Set:
  @DF-RHF Final Energy:  -248.12208478644567
    Total Energy =                       -248.1220847864454981
    Molecular point group: c1
  Basis Set: 6-31G*
  Basis Set:
  Basis Set: 6-31G*
  Basis Set:
  @DF-RHF Final Energy:  -248.12226151093145
    Total Energy =                       -248.1222615109314802
  Basis Set: 6-31G*
  Basis Set:
  Basis Set: 6-31G*
  Basis Set:
  @DF-RHF Final Energy:  -248.12232751744440
    Total Energy =                       -248.1223275174444893
  Basis Set: 6-31G*
  Basis Set:
  Charge       = 0
  Multiplicity = 1
  Basis Set: 6-31G*
  Basis Set:

    Orbital Energies (a.u.)
    -----------------------

    Doubly Occupied:

       1A    -20.554419     2A    -15.528075     3A    -11.266005
       4A    -11.265894     5A    -11.240352     6A     -1.377429
       7A     -1.173199     8A     -0.998834     9A     -0.907408
      10A     -0.814893    11A     -0.682813    12A     -0.671656
      13A     -0.643486    14A     -0.609039    15A     -0.605339
      16A     -0.540013    17A     -0.533953    18A     -0.496506
      19A     -0.471996    20A     -0.412873    21A     -0.379767

  @DF-RHF Final Energy:  -248.12232795877725

   => Energetics <=

    Nuclear Repulsion Energy =            194.4396105473029479
    One-Electron Energy =                -722.7759821484867189
    Two-Electron Energy =                 280.2140436424065228
    DFT Exchange-Correlation Energy =       0.0000000000000000
    Empirical Dispersion Energy =           0.0000000000000000
    PCM Polarization Energy =               0.0000000000000000
    EFP Energy =                            0.0000000000000000
    Total Energy =                       -248.1223279587773050
    Molecular point group: c1
  Basis Set: 6-31G*
  Basis Set:

  -Total Gradient:
     Atom            X                  Y                   Z
    ------   -----------------  -----------------  -----------------
       1        0.000006052274     0.000012782224    -0.000013573106
       2        0.000020797950     0.000008001995    -0.000011943822
       3       -0.000038075616     0.000019148595    -0.000015237977
       4        0.000008634822     0.000011093135    -0.000003332324
       5        0.000549112272    -0.000048238496    -0.001932484806
       6       -0.000005160646     0.000000999058     0.000011806583
       7       -0.000039598041     0.000009038804    -0.000010215302
       8       -0.000918240776     0.000361496624     0.003520903215
       9       -0.000000241789    -0.000025338978     0.000013991982
      10        0.000009993713    -0.000000797935    -0.000010460371
      11        0.001132407134    -0.001307205399    -0.003842449582
      12        0.000022633464    -0.000007033825    -0.000004954530
      13       -0.000734245632     0.000957487054     0.002293224708
      14       -0.000014069129     0.000008567143     0.000004725332

  **** Optimization is complete! (in 4 steps) ****
    Final optimized geometry and variables:
    Molecular point group: c1

    Geometry (in Angstrom), charge = 0, multiplicity = 1:

    H           -2.910299259350    -0.167033254797     0.287648926277
    N           -1.945560704747    -0.027074004195     0.516990183661
    C           -1.226568442198     0.544321585156    -0.608017345658
    H           -1.558494582001    -0.923528681674     0.739767292212
    C            0.236042722371     0.714884583141    -0.255117672762
    H           -1.292587949264    -0.051651307102    -1.519291982532
    H           -1.645168512785     1.521948606821    -0.826972516733
    O            0.785681186288    -0.556765600255    -0.053727115153
    H            0.760275818433     1.224927341359    -1.062073419787
    H            0.324144064156     1.316860019019     0.646232570490
    C            2.119877473394    -0.581106765262     0.358278037130
    H            2.625598385528    -1.394482486372    -0.146613927206
    H            2.628471485387     0.351261874114     0.130497828548
    H            2.184034015422    -0.739865725469     1.431496423929

  Mulliken Charges: (a.u.)
   Center  Symbol    Alpha    Beta     Spin     Total
       1     H     0.33292  0.33292  0.00000  0.33416
       2     N     3.92526  3.92526  0.00000 -0.85053
       3     C     3.06893  3.06893  0.00000 -0.13787
       4     H     0.32364  0.32364  0.00000  0.35271
       5     C     2.99006  2.99006  0.00000  0.01988
       6     H     0.42670  0.42670  0.00000  0.14661
       7     H     0.42066  0.42066  0.00000  0.15869
       8     O     4.31346  4.31346  0.00000 -0.62691
       9     H     0.43057  0.43057  0.00000  0.13886
      10     H     0.42259  0.42259  0.00000  0.15481
      11     C     3.07618  3.07618  0.00000 -0.15236
      12     H     0.41651  0.41651  0.00000  0.16698
      13     H     0.42929  0.42929  0.00000  0.14142
      14     H     0.42323  0.42323  0.00000  0.15355

   Total alpha = 21.00000, Total beta = 21.00000, Total charge =  0.00000
