                              Psi4 1.0.54 Driver

  ==> Input File <==

--------------------------------------------------------------------------
set {
	reference rhf
	basis cc-pvtz
}

set_num_threads( 4 )
memory 2 gb

molecule MOL {
0 1

H	 -3.642953	 0.223825	 0.000000
C	 -2.571844	 0.155001	 0.000000
C	 -1.957580	 -1.086132	 0.000000
C	 -1.807160	 1.303787	 0.000000
H	 -2.551493	 -1.979629	 0.000000
C	 -0.582719	 -1.174294	 0.000000
H	 -2.279934	 2.266806	 0.000000
C	 -0.427220	 1.213406	 0.000000
H	 -0.094904	 -2.127556	 0.000000
C	 0.196908	 -0.024061	 0.000000
H	 0.151409	 2.115254	 0.000000
C	 1.690041	 -0.173233	 0.000000
C	 2.336403	 -1.091219	 1.012017
O	 2.356597	 0.422265	 -0.785141
H	 2.107747	 -0.771038	 2.021561
H	 3.403889	 -1.070595	 0.861092
H	 1.974393	 -2.105841	 0.895953

	symmetry c1
}
set optking {
	frozen_dihedral = ("
		13 12 10 8
	")
}

ee,wfn = optimize('scf', return_wfn=True)
oeprop( wfn, 'DIPOLE', 'QUADRUPOLE', 'MULLIKEN_CHARGES')
f=open( 'psi4out.xyz', 'w' )
f.write( "17  " )
f.write( str(ee) + "\n" )
f.write( MOL.save_string_xyz() )
f.close()
--------------------------------------------------------------------------

    Molecular point group: c1
  Charge       = 0
  Multiplicity = 1
  Basis Set: CC-PVTZ
  Basis Set:
  @DF-RHF Final Energy:  -382.59989700732240
    Total Energy =                       -382.5998970073228520
    Molecular point group: c1
  Basis Set: CC-PVTZ
  Basis Set:
  Basis Set: CC-PVTZ
  Basis Set:
  @DF-RHF Final Energy:  -382.58282920329253
    Total Energy =                       -382.5828292032922491
  Basis Set: CC-PVTZ
  Basis Set:
  Basis Set: CC-PVTZ
  Basis Set:
  @DF-RHF Final Energy:  -382.59956326034637
    Total Energy =                       -382.5995632603462582
  Basis Set: CC-PVTZ
  Basis Set:
  Basis Set: CC-PVTZ
  Basis Set:
  @DF-RHF Final Energy:  -382.59565161433846
    Total Energy =                       -382.5956516143385215
  Basis Set: CC-PVTZ
  Basis Set:
  @DF-RHF Final Energy:  -382.59028149980412
    Total Energy =                       -382.5902814998044050
  @DF-RHF Final Energy:  -382.60092190410757
    Total Energy =                       -382.6009219041075085
  @DF-RHF Final Energy:  -382.60124516086438
    Total Energy =                       -382.6012451608645506
  Basis Set: CC-PVTZ
  Basis Set:
  @DF-RHF Final Energy:  -382.60147367589843
    Total Energy =                       -382.6014736758982053
  Basis Set: CC-PVTZ
  Basis Set:
  Basis Set: CC-PVTZ
  Basis Set:
  @DF-RHF Final Energy:  -382.60148180859755
    Total Energy =                       -382.6014818085975548
  Basis Set: CC-PVTZ
  Basis Set:
  Basis Set: CC-PVTZ
  Basis Set:
  @DF-RHF Final Energy:  -382.60148301665851
    Total Energy =                       -382.6014830166585625
  Basis Set: CC-PVTZ
  Basis Set:
  Charge       = 0
  Multiplicity = 1
  Basis Set: CC-PVTZ
  Basis Set:

    Orbital Energies (a.u.)
    -----------------------

    Doubly Occupied:

       1A    -20.543882     2A    -11.328982     3A    -11.245613
       4A    -11.244352     5A    -11.241479     6A    -11.240347
       7A    -11.239409     8A    -11.237828     9A    -11.230317
      10A     -1.404394    11A     -1.171495    12A     -1.053918
      13A     -1.030590    14A     -1.000151    15A     -0.863814
      16A     -0.840703    17A     -0.764704    18A     -0.709505
      19A     -0.662973    20A     -0.650955    21A     -0.627704
      22A     -0.621487    23A     -0.603477    24A     -0.592782
      25A     -0.560979    26A     -0.529928    27A     -0.518528
      28A     -0.506721    29A     -0.496477    30A     -0.414196
      31A     -0.349683    32A     -0.347359

  @DF-RHF Final Energy:  -382.60148377153001

   => Energetics <=

    Nuclear Repulsion Energy =            404.1248143694105579
    One-Electron Energy =               -1319.7031387859653933
    Two-Electron Energy =                 532.9768406450248222
    DFT Exchange-Correlation Energy =       0.0000000000000000
    Empirical Dispersion Energy =           0.0000000000000000
    PCM Polarization Energy =               0.0000000000000000
    EFP Energy =                            0.0000000000000000
    Total Energy =                       -382.6014837715299564
    Molecular point group: c1
  Basis Set: CC-PVTZ
  Basis Set:

  -Total Gradient:
     Atom            X                  Y                   Z
    ------   -----------------  -----------------  -----------------
       1       -0.000003643866    -0.000001305669     0.000000825048
       2       -0.000004159349    -0.000071069574    -0.000020566171
       3       -0.000059502983     0.000047545847    -0.000022823867
       4        0.000078381012     0.000041362759     0.000032306426
       5       -0.000003522272    -0.000003309234    -0.000000601959
       6        0.000055563318     0.000020836204     0.000059726925
       7       -0.000007613657     0.000000203522    -0.000001741491
       8       -0.000267388037    -0.001075424073     0.003391650147
       9        0.000003839189    -0.000008367096     0.000023975586
      10        0.000237852073     0.002357672189    -0.003661341934
      11        0.000006876874    -0.000014576140     0.000035195977
      12       -0.000072377653    -0.003060502259    -0.002646331667
      13        0.000000370563     0.001797293228     0.002812971362
      14        0.000039660126     0.000034908340    -0.000002194132
      15       -0.000016134422    -0.000008488016     0.000042622964
      16        0.000039723837    -0.000003578075     0.000000942828
      17       -0.000027924749    -0.000053201949    -0.000044616041

  **** Optimization is complete! (in 9 steps) ****
    Final optimized geometry and variables:
    Molecular point group: c1

    Geometry (in Angstrom), charge = 0, multiplicity = 1:

    H           -3.632976134416     0.281702894524    -0.058745262736
    C           -2.562795135211     0.201534166583    -0.056363993513
    C           -1.957760562913    -0.983217989863    -0.427720987667
    C           -1.788008683530     1.283643929389     0.320562515072
    H           -2.555363277194    -1.823703563279    -0.723989335382
    C           -0.579826460745    -1.091046509339    -0.409803397265
    H           -2.255685449053     2.203318459423     0.615202142913
    C           -0.411655310000     1.184153756843     0.313224412355
    H           -0.121968643616    -2.019981695148    -0.690207710919
    C            0.201580478132    -0.003014229063    -0.057563707354
    H            0.195580473902     2.024535177174     0.586288285377
    C            1.701409834430    -0.078727206377    -0.007180745415
    C            2.323398080688    -1.254526437487     0.708209809879
    O            2.366840743146     0.805340132364    -0.439298257454
    H            1.994958063268    -1.253280697033     1.741480247820
    H            3.398445286718    -1.172525041710     0.663766182766
    H            2.011045883147    -2.196050251755     0.273539233484

  Mulliken Charges: (a.u.)
   Center  Symbol    Alpha    Beta     Spin     Total
       1     H     0.42088  0.42088  0.00000  0.15824
       2     C     3.07957  3.07957  0.00000 -0.15914
       3     C     3.06883  3.06883  0.00000 -0.13766
       4     C     3.06764  3.06764  0.00000 -0.13527
       5     H     0.42171  0.42171  0.00000  0.15658
       6     C     3.09329  3.09329  0.00000 -0.18658
       7     H     0.42095  0.42095  0.00000  0.15809
       8     C     3.08776  3.08776  0.00000 -0.17551
       9     H     0.42343  0.42343  0.00000  0.15314
      10     C     2.97501  2.97501  0.00000  0.04998
      11     H     0.41352  0.41352  0.00000  0.17295
      12     C     2.86840  2.86840  0.00000  0.26321
      13     C     3.15365  3.15365  0.00000 -0.30730
      14     O     4.17264  4.17264  0.00000 -0.34529
      15     H     0.44592  0.44592  0.00000  0.10816
      16     H     0.43538  0.43538  0.00000  0.12925
      17     H     0.45142  0.45142  0.00000  0.09715

   Total alpha = 32.00000, Total beta = 32.00000, Total charge = -0.00000

*** Psi4 exiting successfully. Buy a developer a beer!
