  ==> Input File <==

--------------------------------------------------------------------------
set {
	reference rhf
	basis 6-31G*
}

set_num_threads( 4 )
memory 2 gb

molecule MOL {
0 1

H	 -2.646374	 -0.642757	 1.268656
C	 -2.083525	 -0.384536	 0.393091
O	 -0.807605	 -0.127164	 0.768327
F	 -2.118945	 -1.383102	 -0.486752
F	 -2.621877	 0.670592	 -0.209486
C	 0.084052	 0.273579	 -0.209957
C	 -0.059566	 -0.703388	 -1.369728
Cl	 1.743859	 0.268290	 0.408288
H	 -0.125472	 1.264157	 -0.574141
F	 0.754562	 -0.375365	 -2.350410
F	 -1.294843	 -0.642236	 -1.825566
F	 0.189394	 -1.938830	 -1.009625

	symmetry c1
}
set optking {
	frozen_dihedral = ("
		9 6 3 2
	")
}

ee = optimize('scf')
oeprop('DIPOLE', 'QUADRUPOLE', 'MULLIKEN_CHARGES')
f=open( 'psi4out.xyz', 'w' )
f.write( "12  " )
f.write( str(ee) + "\n" )
f.write( MOL.save_string_xyz() )
f.close()
--------------------------------------------------------------------------

    Molecular point group: c1
  Charge       = 0
  Multiplicity = 1
  Basis Set: 6-31G*
  Basis Set:
  @DF-RHF Final Energy: -1146.21676366158454
    Total Energy =                      -1146.2167636615849915
    Molecular point group: c1
  Basis Set: 6-31G*
  Basis Set:
  Basis Set: 6-31G*
  Basis Set:
  @DF-RHF Final Energy: -1146.26734493199160
    Total Energy =                      -1146.2673449319909196
  Basis Set: 6-31G*
  Basis Set:
  Basis Set: 6-31G*
  Basis Set:
  @DF-RHF Final Energy: -1146.28454145285173
    Total Energy =                      -1146.2845414528512720
  Basis Set: 6-31G*
  Basis Set:
  Basis Set: 6-31G*
  Basis Set:
  @DF-RHF Final Energy: -1146.29605045922517
    Total Energy =                      -1146.2960504592247162
  Basis Set: 6-31G*
  Basis Set:
  @DF-RHF Final Energy: -1146.30165531408920
    Total Energy =                      -1146.3016553140896576
  @DF-RHF Final Energy: -1146.30409118979469
    Total Energy =                      -1146.3040911897949172
  @DF-RHF Final Energy: -1146.30474318407005
    Total Energy =                      -1146.3047431840693662
  @DF-RHF Final Energy: -1146.30491695687215
    Total Energy =                      -1146.3049169568721481
  @DF-RHF Final Energy: -1146.30494302152829
    Total Energy =                      -1146.3049430215291977
  @DF-RHF Final Energy: -1146.30494992958211
    Total Energy =                      -1146.3049499295811984
  @DF-RHF Final Energy: -1146.30495175867827
    Total Energy =                      -1146.3049517586775892
  @DF-RHF Final Energy: -1146.30495343287998
    Total Energy =                      -1146.3049534328802110
  Basis Set: 6-31G*
  Basis Set:
  @DF-RHF Final Energy: -1146.30307272390655
    Total Energy =                      -1146.3030727239072348
  Basis Set: 6-31G*
  Basis Set:
  Basis Set: 6-31G*
  Basis Set:
  @DF-RHF Final Energy: -1146.30494899827727
    Total Energy =                      -1146.3049489982772684
  Basis Set: 6-31G*
  Basis Set:
  Basis Set: 6-31G*
  Basis Set:
  @DF-RHF Final Energy: -1146.30495605277747
    Total Energy =                      -1146.3049560527770154
  Basis Set: 6-31G*
  Basis Set:
  Charge       = 0
  Multiplicity = 1
  Basis Set: 6-31G*
  Basis Set:

    Orbital Energies (a.u.)
    -----------------------

    Doubly Occupied:

       1A   -104.845854     2A    -26.359974     3A    -26.359905
       4A    -26.358576     5A    -26.345223     6A    -26.339872
       7A    -20.644440     8A    -11.529412     9A    -11.487477
      10A    -11.403335    11A    -10.580504    12A     -8.049899
      13A     -8.046274    14A     -8.046189    15A     -1.762602
      16A     -1.713230    17A     -1.658618    18A     -1.656957
      19A     -1.636034    20A     -1.477470    21A     -1.182567
      22A     -1.042512    23A     -0.993381    24A     -0.918334
      25A     -0.854818    26A     -0.850977    27A     -0.847655
      28A     -0.828071    29A     -0.814111    30A     -0.778425
      31A     -0.728991    32A     -0.727156    33A     -0.706342
      34A     -0.691373    35A     -0.677452    36A     -0.673871
      37A     -0.660473    38A     -0.655740    39A     -0.647595
      40A     -0.641675    41A     -0.588888    42A     -0.548516
      43A     -0.534930    44A     -0.479225    45A     -0.469132

  @DF-RHF Final Energy: -1146.30495625123717

   => Energetics <=

    Nuclear Repulsion Energy =            752.5621129604680846
    One-Electron Energy =               -3088.0460288770909756
    Two-Electron Energy =                1189.1789596653864010
    DFT Exchange-Correlation Energy =       0.0000000000000000
    Empirical Dispersion Energy =           0.0000000000000000
    PCM Polarization Energy =               0.0000000000000000
    EFP Energy =                            0.0000000000000000
    Total Energy =                      -1146.3049562512367174
    Molecular point group: c1
  Basis Set: 6-31G*
  Basis Set:

  -Total Gradient:
     Atom            X                  Y                   Z
    ------   -----------------  -----------------  -----------------
       1       -0.000005418387     0.000007534462    -0.000002167988
       2        0.000772721192    -0.004035201287    -0.000886955038
       3       -0.000404629015     0.006622227848     0.002302830347
       4       -0.000007846806    -0.000015035756     0.000012777562
       5        0.000004741116     0.000000536425     0.000028616075
       6       -0.003377429727    -0.004146804593    -0.004562385025
       7       -0.000069498765    -0.000016547524     0.000008079774
       8       -0.000012667505    -0.000002257170    -0.000015785312
       9        0.003036342027     0.001519658552     0.003187124055
      10        0.000040393167     0.000007693526    -0.000003805096
      11        0.000013093987     0.000019724292    -0.000066465051
      12        0.000010198786     0.000038471182    -0.000001864270

  **** Optimization is complete! (in 16 steps) ****
    Final optimized geometry and variables:
    Molecular point group: c1

    Geometry (in Angstrom), charge = 0, multiplicity = 1:

    H           -2.213309157460    -0.001166631344     2.045157100437
    C           -1.742819831515     0.018848242269     1.080994337535
    O           -0.417938989258     0.231952102978     1.280125011188
    F           -1.964621461907    -1.130425188859     0.458004069286
    F           -2.272734870998     0.986441431988     0.336128658137
    C            0.451913351466     0.630927261794     0.270595579671
    C            0.469088561140    -0.263846199323    -0.971952749042
    CL           2.059665045872     0.632055910234     1.011986470476
    H            0.255837131766     1.646924716616    -0.027942479791
    F            1.435395366038     0.123727551751    -1.777864173100
    F           -0.664307082586    -0.144067011909    -1.633516338131
    F            0.649998695172    -1.525403628338    -0.669983291875

  Mulliken Charges: (a.u.)
   Center  Symbol    Alpha    Beta     Spin     Total
       1     H     0.40308  0.40308  0.00000  0.19384
       2     C     2.56125  2.56125  0.00000  0.87751
       3     O     4.30998  4.30998  0.00000 -0.61995
       4     F     4.68203  4.68203  0.00000 -0.36406
       5     F     4.68817  4.68817  0.00000 -0.37633
       6     C     3.02696  3.02696  0.00000 -0.05392
       7     C     2.44877  2.44877  0.00000  1.10245
       8    CL     8.49502  8.49502  0.00000  0.00996
       9     H     0.37010  0.37010  0.00000  0.25979
      10     F     4.67272  4.67272  0.00000 -0.34545
      11     F     4.67490  4.67490  0.00000 -0.34980
      12     F     4.66702  4.66702  0.00000 -0.33405

   Total alpha = 45.00000, Total beta = 45.00000, Total charge = -0.00000
