                              Psi4 1.0.54 Driver

  ==> Input File <==

--------------------------------------------------------------------------
set {
	reference rhf
	basis cc-pvtz
}

set_num_threads( 4 )
memory 2 gb

molecule MOL {
0 1

H	 1.043763	 0.573516	 0.345546
C	 0.788096	 -0.429819	 0.000000
N	 -0.537714	 -0.645117	 0.000000
O	 1.623368	 -1.211168	 -0.329441
C	 -1.522613	 0.412524	 0.000000
H	 -0.845894	 -1.585866	 0.000000
H	 -2.150256	 0.356137	 -0.880771
H	 -1.005621	 1.357208	 0.000000
H	 -2.150256	 0.356137	 0.880771

	symmetry c1
}
set optking {
	frozen_dihedral = ("
		1 2 3 6
	")
}

ee,wfn = optimize('scf', return_wfn=True)
oeprop( wfn, 'DIPOLE', 'QUADRUPOLE', 'MULLIKEN_CHARGES')
f=open( 'psi4out.xyz', 'w' )
f.write( "9  " )
f.write( str(ee) + "\n" )
f.write( MOL.save_string_xyz() )
f.close()
--------------------------------------------------------------------------

    Molecular point group: c1
  Charge       = 0
  Multiplicity = 1
  Basis Set: CC-PVTZ
  Basis Set:
  @DF-RHF Final Energy:  -208.03765094163353
    Total Energy =                       -208.0376509416335011
    Molecular point group: c1
  Basis Set: CC-PVTZ
  Basis Set:
  Basis Set: CC-PVTZ
  Basis Set:
  @DF-RHF Final Energy:  -208.03626510702128
    Total Energy =                       -208.0362651070211655
  Basis Set: CC-PVTZ
  Basis Set:
  Basis Set: CC-PVTZ
  Basis Set:
  @DF-RHF Final Energy:  -208.03958852635162
    Total Energy =                       -208.0395885263515368
  Basis Set: CC-PVTZ
  Basis Set:
  Basis Set: CC-PVTZ
  Basis Set:
  @DF-RHF Final Energy:  -208.04022046014018
    Total Energy =                       -208.0402204601401195
  Basis Set: CC-PVTZ
  Basis Set:
  @DF-RHF Final Energy:  -208.04039698908872
    Total Energy =                       -208.0403969890886628
  @DF-RHF Final Energy:  -208.04044278069995
    Total Energy =                       -208.0404427806999195
  Basis Set: CC-PVTZ
  Basis Set:
  @DF-RHF Final Energy:  -208.04050509870899
    Total Energy =                       -208.0405050987088202
  Basis Set: CC-PVTZ
  Basis Set:
  Basis Set: CC-PVTZ
  Basis Set:
  @DF-RHF Final Energy:  -208.04055059553258
    Total Energy =                       -208.0405505955325793
  Basis Set: CC-PVTZ
  Basis Set:
  Basis Set: CC-PVTZ
  Basis Set:
  @DF-RHF Final Energy:  -208.04055736563552
    Total Energy =                       -208.0405573656355216
  Basis Set: CC-PVTZ
  Basis Set:
  Charge       = 0
  Multiplicity = 1
  Basis Set: CC-PVTZ
  Basis Set:

    Orbital Energies (a.u.)
    -----------------------

    Doubly Occupied:

       1A    -20.520565     2A    -15.583396     3A    -11.339570
       4A    -11.273008     5A     -1.397189     6A     -1.242749
       7A     -0.964500     8A     -0.846342     9A     -0.693818
      10A     -0.679360    11A     -0.636679    12A     -0.595424
      13A     -0.569927    14A     -0.548711    15A     -0.431591
      16A     -0.397760

  @DF-RHF Final Energy:  -208.04055748705258

   => Energetics <=

    Nuclear Repulsion Energy =            120.6907064163036551
    One-Electron Energy =                -522.0213498667828844
    Two-Electron Energy =                 193.2900859634265771
    DFT Exchange-Correlation Energy =       0.0000000000000000
    Empirical Dispersion Energy =           0.0000000000000000
    PCM Polarization Energy =               0.0000000000000000
    EFP Energy =                            0.0000000000000000
    Total Energy =                       -208.0405574870526380
    Molecular point group: c1
  Basis Set: CC-PVTZ
  Basis Set:

  -Total Gradient:
     Atom            X                  Y                   Z
    ------   -----------------  -----------------  -----------------
       1       -0.000840911273    -0.001120531154     0.004793405840
       2        0.000611862186     0.001668935851    -0.004722807816
       3        0.001257223406    -0.001213298495    -0.005429455298
       4        0.000070734180    -0.000060795754     0.000007191523
       5       -0.000058518024     0.000064831030     0.000022580068
       6       -0.001111981869     0.000722679527     0.005355408375
       7        0.000098993540     0.000014447480     0.000095254971
       8       -0.000082276558    -0.000101435374     0.000009525537
       9        0.000054874416     0.000025166889    -0.000131103198

  **** Optimization is complete! (in 10 steps) ****
    Final optimized geometry and variables:
    Molecular point group: c1

    Geometry (in Angstrom), charge = 0, multiplicity = 1:

    H            0.958819495777     1.074004292892     0.348318060492
    C            0.711526913189     0.047091722781     0.070501108565
    N           -0.602105751754    -0.131687384422    -0.189398032524
    O            1.534308436254    -0.809035679455     0.036181296421
    C           -1.592297982475     0.890646093715     0.056852327922
    H           -0.906591293696    -1.076619958531    -0.135921050099
    H           -2.377952729341     0.830787585227    -0.683398542772
    H           -1.132999403982     1.865122371949    -0.030352685699
    H           -2.038805927324     0.810916157979     1.042317841243

  Mulliken Charges: (a.u.)
   Center  Symbol    Alpha    Beta     Spin     Total
       1     H     0.47185  0.47185  0.00000  0.05631
       2     C     2.87819  2.87819  0.00000  0.24361
       3     N     3.59883  3.59883  0.00000 -0.19766
       4     O     4.20396  4.20396  0.00000 -0.40793
       5     C     3.07558  3.07558  0.00000 -0.15117
       6     H     0.41306  0.41306  0.00000  0.17387
       7     H     0.44805  0.44805  0.00000  0.10390
       8     H     0.45366  0.45366  0.00000  0.09268
       9     H     0.45681  0.45681  0.00000  0.08638

   Total alpha = 16.00000, Total beta = 16.00000, Total charge = -0.00000

*** Psi4 exiting successfully. Buy a developer a beer!
