  ==> Input File <==

--------------------------------------------------------------------------
set {
	reference rhf
	basis 6-31G*
}

set_num_threads( 4 )
memory 2 gb

molecule MOL {
0 1

H	 -0.000158	 1.970498	 0.756846
O	 -0.000074	 1.880206	 -0.189275
C	 -0.000015	 0.544847	 -0.545111
C	 0.783020	 0.352765	 -1.839694
C	 -1.432022	 0.023445	 -0.604218
H	 0.514039	 -0.003249	 0.230416
F	 2.024740	 0.753431	 -1.668983
F	 0.810199	 -0.905697	 -2.224265
F	 0.257505	 1.072144	 -2.818431
F	 -1.999659	 0.155365	 0.575580
F	 -1.486688	 -1.247272	 -0.942846
F	 -2.148511	 0.714222	 -1.476599

	symmetry c1
}
set optking {
	frozen_dihedral = ("
		6 3 2 1
	")
}

ee = optimize('scf')
oeprop('DIPOLE', 'QUADRUPOLE', 'MULLIKEN_CHARGES')
f=open( 'psi4out.xyz', 'w' )
f.write( "12  " )
f.write( str(ee) + "\n" )
f.write( MOL.save_string_xyz() )
f.close()
--------------------------------------------------------------------------

    Molecular point group: c1
  Charge       = 0
  Multiplicity = 1
  Basis Set: 6-31G*
  Basis Set:
  @DF-RHF Final Energy:  -786.27392448750857
    Total Energy =                       -786.2739244875087934
    Molecular point group: c1
  Basis Set: 6-31G*
  Basis Set:
  Basis Set: 6-31G*
  Basis Set:
  @DF-RHF Final Energy:  -786.27572170678684
    Total Energy =                       -786.2757217067870670
  Basis Set: 6-31G*
  Basis Set:
  Basis Set: 6-31G*
  Basis Set:
  @DF-RHF Final Energy:  -786.27609170300502
    Total Energy =                       -786.2760917030044538
  Basis Set: 6-31G*
  Basis Set:
  Basis Set: 6-31G*
  Basis Set:
  @DF-RHF Final Energy:  -786.27612936140383
    Total Energy =                       -786.2761293614037186
  Basis Set: 6-31G*
  Basis Set:
  Basis Set: 6-31G*
  Basis Set:
  @DF-RHF Final Energy:  -786.27613515925930
    Total Energy =                       -786.2761351592596384
  Basis Set: 6-31G*
  Basis Set:
  Charge       = 0
  Multiplicity = 1
  Basis Set: 6-31G*
  Basis Set:

    Orbital Energies (a.u.)
    -----------------------

    Doubly Occupied:

       1A    -26.357547     2A    -26.356622     3A    -26.355072
       4A    -26.354250     5A    -26.352270     6A    -26.351126
       7A    -20.616955     8A    -11.521052     9A    -11.520809
      10A    -11.349438    11A     -1.758730    12A     -1.752549
      13A     -1.654813    14A     -1.653550    15A     -1.649840
      16A     -1.648983    17A     -1.434892    18A     -1.101863
      19A     -0.991912    20A     -0.931770    21A     -0.861052
      22A     -0.854318    23A     -0.849779    24A     -0.837809
      25A     -0.827147    26A     -0.778950    27A     -0.763796
      28A     -0.725267    29A     -0.719130    30A     -0.715704
      31A     -0.711600    32A     -0.678558    33A     -0.674365
      34A     -0.665671    35A     -0.664524    36A     -0.656205
      37A     -0.650322    38A     -0.624134    39A     -0.616958
      40A     -0.555263    41A     -0.504963

  @DF-RHF Final Energy:  -786.27613610537742

   => Energetics <=

    Nuclear Repulsion Energy =            669.8939954617251260
    One-Electron Energy =               -2427.0411433788731301
    Two-Electron Energy =                 970.8710118117701313
    DFT Exchange-Correlation Energy =       0.0000000000000000
    Empirical Dispersion Energy =           0.0000000000000000
    PCM Polarization Energy =               0.0000000000000000
    EFP Energy =                            0.0000000000000000
    Total Energy =                       -786.2761361053778728
    Molecular point group: c1
  Basis Set: 6-31G*
  Basis Set:

  -Total Gradient:
     Atom            X                  Y                   Z
    ------   -----------------  -----------------  -----------------
       1        0.001067834812     0.000029177052     0.000004302538
       2       -0.001575040520    -0.000080386178     0.000171547033
       3        0.001349038423     0.000246864578    -0.000596357026
       4       -0.000064511742     0.000164033454    -0.000072978608
       5       -0.000048494869     0.000067047075    -0.000136472737
       6       -0.000845950958    -0.000107165663     0.000454726409
       7        0.000039155775    -0.000018627883     0.000019624945
       8       -0.000019361752    -0.000140686748    -0.000035482163
       9        0.000012333976    -0.000068362125     0.000095320441
      10       -0.000002393175    -0.000010944622     0.000070560882
      11        0.000042688019    -0.000066143668    -0.000011975470
      12        0.000044702019    -0.000014805280     0.000037183755

  **** Optimization is complete! (in 6 steps) ****
    Final optimized geometry and variables:
    Molecular point group: c1

    Geometry (in Angstrom), charge = 0, multiplicity = 1:

    H            0.344987266837     1.648671843557     1.932315722527
    O            0.336285987398     1.538591818410     0.991864020103
    C            0.336652600693     0.196568074394     0.654494300629
    C            1.106647271044     0.065610945355    -0.652335723103
    C           -1.100348380245    -0.307321599178     0.580398828998
    H            0.844489010428    -0.422012795187     1.385315018035
    F            2.361410940533     0.419023870219    -0.458055832275
    F            1.099764971393    -1.185074695063    -1.075966747369
    F            0.607663502191     0.823595378288    -1.600612672324
    F           -1.686025965866    -0.070989476321     1.744366840585
    F           -1.145539902316    -1.608107981701     0.367189914440
    F           -1.800113874951     0.289641416381    -0.355935317673

  Mulliken Charges: (a.u.)
   Center  Symbol    Alpha    Beta     Spin     Total
       1     H     0.26420  0.26420  0.00000  0.47160
       2     O     4.36181  4.36181  0.00000 -0.72362
       3     C     3.05651  3.05651  0.00000 -0.11301
       4     C     2.43314  2.43314  0.00000  1.13373
       5     C     2.43828  2.43828  0.00000  1.12343
       6     H     0.38714  0.38714  0.00000  0.22572
       7     F     4.67832  4.67832  0.00000 -0.35665
       8     F     4.67842  4.67842  0.00000 -0.35683
       9     F     4.67040  4.67040  0.00000 -0.34080
      10     F     4.68521  4.68521  0.00000 -0.37041
      11     F     4.67634  4.67634  0.00000 -0.35267
      12     F     4.67024  4.67024  0.00000 -0.34049

   Total alpha = 41.00000, Total beta = 41.00000, Total charge = -0.00000
