                              Psi4 1.0.54 Driver

  ==> Input File <==

--------------------------------------------------------------------------
set {
	reference rhf
	basis cc-pvtz
}

set_num_threads( 4 )
memory 2 gb

molecule MOL {
0 1

O	 -1.510770	 1.240811	 -0.054933
C	 -1.081510	 0.147522	 0.122720
C	 0.327029	 -0.064006	 0.641890
C	 -1.903028	 -1.084121	 -0.174656
C	 1.349460	 -0.017068	 -0.500215
H	 0.399029	 -1.014606	 1.159950
H	 0.538021	 0.726928	 1.350471
C	 0.984818	 -0.953229	 -1.646682
H	 1.431825	 0.998333	 -0.877063
H	 2.322897	 -0.281735	 -0.104364
H	 1.728064	 -0.909271	 -2.433881
H	 0.026195	 -0.689265	 -2.080405
H	 0.922726	 -1.980705	 -1.305642
H	 -1.341891	 -1.779207	 -0.789259
H	 -2.820449	 -0.808163	 -0.671328
H	 -2.133314	 -1.593056	 0.755831

	symmetry c1
}
set optking {
	frozen_dihedral = ("
		9 5 3 2
	")
}

ee,wfn = optimize('scf', return_wfn=True)
oeprop( wfn, 'DIPOLE', 'QUADRUPOLE', 'MULLIKEN_CHARGES')
f=open( 'psi4out.xyz', 'w' )
f.write( "16  " )
f.write( str(ee) + "\n" )
f.write( MOL.save_string_xyz() )
f.close()
--------------------------------------------------------------------------

    Molecular point group: c1
  Charge       = 0
  Multiplicity = 1
  Basis Set: CC-PVTZ
  Basis Set:
  @DF-RHF Final Energy:  -270.12427291575034
    Total Energy =                       -270.1242729157502254
    Molecular point group: c1
  Basis Set: CC-PVTZ
  Basis Set:
  Basis Set: CC-PVTZ
  Basis Set:
  @DF-RHF Final Energy:  -270.12667020640453
    Total Energy =                       -270.1266702064044694
  Basis Set: CC-PVTZ
  Basis Set:
  Basis Set: CC-PVTZ
  Basis Set:
  @DF-RHF Final Energy:  -270.12278193156999
    Total Energy =                       -270.1227819315700458
  Basis Set: CC-PVTZ
  Basis Set:
  Basis Set: CC-PVTZ
  Basis Set:
  @DF-RHF Final Energy:  -270.12671530212435
    Total Energy =                       -270.1267153021241256
  Basis Set: CC-PVTZ
  Basis Set:
  @DF-RHF Final Energy:  -270.12715958162744
    Total Energy =                       -270.1271595816270974
  @DF-RHF Final Energy:  -270.12758362811633
    Total Energy =                       -270.1275836281165539
  @DF-RHF Final Energy:  -270.12767651816210
    Total Energy =                       -270.1276765181617066
  @DF-RHF Final Energy:  -270.12775480443014
    Total Energy =                       -270.1277548044302534
  @DF-RHF Final Energy:  -270.12782394104738
    Total Energy =                       -270.1278239410474953
  @DF-RHF Final Energy:  -270.12788915359391
    Total Energy =                       -270.1278891535939124
  @DF-RHF Final Energy:  -270.12803727482560
    Total Energy =                       -270.1280372748254308
  @DF-RHF Final Energy:  -270.12818018420990
    Total Energy =                       -270.1281801842100663
  @DF-RHF Final Energy:  -270.12828491040659
    Total Energy =                       -270.1282849104066486
  @DF-RHF Final Energy:  -270.12840611056117
    Total Energy =                       -270.1284061105614001
  @DF-RHF Final Energy:  -270.12848170724635
    Total Energy =                       -270.1284817072464648
  @DF-RHF Final Energy:  -270.12854833202800
    Total Energy =                       -270.1285483320281742
  @DF-RHF Final Energy:  -270.12861440649129
    Total Energy =                       -270.1286144064912946
  @DF-RHF Final Energy:  -270.12876725458125
    Total Energy =                       -270.1287672545809073
  @DF-RHF Final Energy:  -270.12892372200935
    Total Energy =                       -270.1289237220095174
  @DF-RHF Final Energy:  -270.12896018224217
    Total Energy =                       -270.1289601822420536
  @DF-RHF Final Energy:  -270.12898578972414
    Total Energy =                       -270.1289857897241973
  @DF-RHF Final Energy:  -270.12899142186836
    Total Energy =                       -270.1289914218684771
  @DF-RHF Final Energy:  -270.12899214998015
    Total Energy =                       -270.1289921499800926
  @DF-RHF Final Energy:  -270.12899187120235
    Total Energy =                       -270.1289918712022313
  @DF-RHF Final Energy:  -270.12886860206436
    Total Energy =                       -270.1288686020639034
  @DF-RHF Final Energy:  -270.12899353296564
    Total Energy =                       -270.1289935329656373
  @DF-RHF Final Energy:  -270.12899654183332
    Total Energy =                       -270.1289965418334305
  Basis Set: CC-PVTZ
  Basis Set:
  @DF-RHF Final Energy:  -270.12900100509387
    Total Energy =                       -270.1290010050937553
  Basis Set: CC-PVTZ
  Basis Set:
  Basis Set: CC-PVTZ
  Basis Set:
  @DF-RHF Final Energy:  -270.12901005254662
    Total Energy =                       -270.1290100525467324
  Basis Set: CC-PVTZ
  Basis Set:
  Basis Set: CC-PVTZ
  Basis Set:
  @DF-RHF Final Energy:  -270.12901236209024
    Total Energy =                       -270.1290123620902932
  Basis Set: CC-PVTZ
  Basis Set:
  Charge       = 0
  Multiplicity = 1
  Basis Set: CC-PVTZ
  Basis Set:

    Orbital Energies (a.u.)
    -----------------------

    Doubly Occupied:

       1A    -20.538844     2A    -11.321554     3A    -11.231571
       4A    -11.227341     5A    -11.220894     6A    -11.204509
       7A     -1.399418     8A     -1.076587     9A     -1.015898
      10A     -0.945996    11A     -0.828934    12A     -0.727175
      13A     -0.663584    14A     -0.639218    15A     -0.625697
      16A     -0.597426    17A     -0.582986    18A     -0.550885
      19A     -0.547399    20A     -0.504788    21A     -0.488577
      22A     -0.480358    23A     -0.478158    24A     -0.401222

  @DF-RHF Final Energy:  -270.12901141590146

   => Energetics <=

    Nuclear Repulsion Energy =            242.0420437357753087
    One-Electron Energy =                -845.7440720904376121
    Two-Electron Energy =                 333.5730169387608157
    DFT Exchange-Correlation Energy =       0.0000000000000000
    Empirical Dispersion Energy =           0.0000000000000000
    PCM Polarization Energy =               0.0000000000000000
    EFP Energy =                            0.0000000000000000
    Total Energy =                       -270.1290114159014593
    Molecular point group: c1
  Basis Set: CC-PVTZ
  Basis Set:

  -Total Gradient:
     Atom            X                  Y                   Z
    ------   -----------------  -----------------  -----------------
       1       -0.000026813509     0.000049665094    -0.000099328546
       2       -0.000498634472    -0.002765620195    -0.001578384975
       3        0.001762427246     0.003496130877     0.002843443377
       4       -0.000008066831    -0.000056482166     0.000153550011
       5       -0.004168284901     0.000068615609    -0.004292969482
       6        0.000055016575    -0.000024960855     0.000081892812
       7       -0.000153152510     0.000163493445     0.000010045064
       8        0.000095045792    -0.000064918580     0.000004873303
       9        0.003128730246    -0.000539963563     0.003013346789
      10       -0.000128268860    -0.000367036903    -0.000132140645
      11       -0.000011186911    -0.000019028067     0.000015809337
      12       -0.000004466977     0.000015835582     0.000034916731
      13       -0.000011688216     0.000013100095    -0.000009286659
      14        0.000020093005     0.000008127078     0.000003623081
      15       -0.000023316128    -0.000000856219    -0.000023472461
      16       -0.000027433552     0.000023898763    -0.000025917739

  **** Optimization is complete! (in 31 steps) ****
    Final optimized geometry and variables:
    Molecular point group: c1

    Geometry (in Angstrom), charge = 0, multiplicity = 1:

    O           -1.017777020637     1.054017504410    -0.286096776960
    C           -0.777739708792     0.156856986844     0.454290351978
    C            0.638599504674    -0.303457041247     0.740752513628
    C           -1.877135106157    -0.570386286859     1.193422846775
    C            1.689940643846     0.071463716918    -0.302266811347
    H            0.622753453026    -1.380167237489     0.886613676849
    H            0.903159761578     0.119044094728     1.707618991287
    C            1.385253056922    -0.394766238544    -1.721938610166
    H            1.866755236427     1.139908980042    -0.273057836395
    H            2.622822604530    -0.384590976848     0.017567021453
    H            2.223179063046    -0.182637122933    -2.375582080741
    H            0.512653973974     0.097983770384    -2.124884617397
    H            1.214511797670    -1.467177700079    -1.749346997269
    H           -1.961892944884    -1.580740374925     0.806807356488
    H           -2.815632577423    -0.054992222645     1.058317648851
    H           -1.643810333473    -0.648112614910     2.249325422905

  Mulliken Charges: (a.u.)
   Center  Symbol    Alpha    Beta     Spin     Total
       1     O     4.17368  4.17368  0.00000 -0.34737
       2     C     2.85753  2.85753  0.00000  0.28495
       3     C     3.11946  3.11946  0.00000 -0.23892
       4     C     3.15171  3.15171  0.00000 -0.30341
       5     C     3.08021  3.08021  0.00000 -0.16041
       6     H     0.44489  0.44489  0.00000  0.11022
       7     H     0.43689  0.43689  0.00000  0.12622
       8     C     3.15613  3.15613  0.00000 -0.31226
       9     H     0.44739  0.44739  0.00000  0.10521
      10     H     0.44983  0.44983  0.00000  0.10033
      11     H     0.44823  0.44823  0.00000  0.10354
      12     H     0.43886  0.43886  0.00000  0.12228
      13     H     0.45915  0.45915  0.00000  0.08169
      14     H     0.44950  0.44950  0.00000  0.10100
      15     H     0.43598  0.43598  0.00000  0.12804
      16     H     0.45055  0.45055  0.00000  0.09889

   Total alpha = 24.00000, Total beta = 24.00000, Total charge = -0.00000

*** Psi4 exiting successfully. Buy a developer a beer!
