                              Psi4 1.0.54 Driver

  ==> Input File <==

--------------------------------------------------------------------------
set {
	reference rhf
	basis cc-pvtz
}

set_num_threads( 4 )
memory 2 gb

molecule MOL {
0 1

H	 -0.843094	 1.481681	 4.539307
O	 0.041054	 1.451287	 4.854247
C	 0.522346	 0.133444	 4.823905
C	 0.812160	 -0.374179	 3.419265
H	 1.436389	 0.139417	 5.402239
H	 -0.172735	 -0.536060	 5.326974
C	 -0.424390	 -0.508910	 2.533465
H	 1.526712	 0.295759	 2.950484
H	 1.298441	 -1.342732	 3.507771
C	 -0.098968	 -1.052007	 1.142788
H	 -0.905646	 0.458891	 2.439887
H	 -1.142407	 -1.170239	 3.015525
C	 -1.311023	 -1.277304	 0.237018
H	 0.596762	 -0.377261	 0.649935
H	 0.425585	 -1.996792	 1.255449
C	 -2.041121	 -0.006551	 -0.194127
H	 -0.977972	 -1.803191	 -0.653514
H	 -2.012026	 -1.943261	 0.735267
C	 -3.489218	 0.042606	 0.286507
H	 -2.022185	 0.066287	 -1.279394
H	 -1.518764	 0.869305	 0.178730
C	 -4.219984	 1.311773	 -0.139038
H	 -4.022855	 -0.824300	 -0.093339
H	 -3.510372	 -0.038577	 1.370031
H	 -4.244251	 1.405725	 -1.219696
H	 -5.244345	 1.313233	 0.215630
H	 -3.732090	 2.196311	 0.257073

	symmetry c1
}
set optking {
	frozen_dihedral = ("
		10 13 16 20
	")
}

ee,wfn = optimize('scf', return_wfn=True)
oeprop( wfn, 'DIPOLE', 'QUADRUPOLE', 'MULLIKEN_CHARGES')
f=open( 'psi4out.xyz', 'w' )
f.write( "27  " )
f.write( str(ee) + "\n" )
f.write( MOL.save_string_xyz() )
f.close()
--------------------------------------------------------------------------

    Molecular point group: c1
  Charge       = 0
  Multiplicity = 1
  Basis Set: CC-PVTZ
  Basis Set:
  @DF-RHF Final Energy:  -388.42239036286742
    Total Energy =                       -388.4223903628668495
    Molecular point group: c1
  Basis Set: CC-PVTZ
  Basis Set:
  Basis Set: CC-PVTZ
  Basis Set:
  @DF-RHF Final Energy:  -388.42257715626749
    Total Energy =                       -388.4225771562676073
  Basis Set: CC-PVTZ
  Basis Set:
  Basis Set: CC-PVTZ
  Basis Set:
  @DF-RHF Final Energy:  -388.42276429458599
    Total Energy =                       -388.4227642945852494
  Basis Set: CC-PVTZ
  Basis Set:
  Basis Set: CC-PVTZ
  Basis Set:
  @DF-RHF Final Energy:  -388.42276213968665
    Total Energy =                       -388.4227621396862560
  Basis Set: CC-PVTZ
  Basis Set:
  Basis Set: CC-PVTZ
  Basis Set:
  @DF-RHF Final Energy:  -388.42276553595042
    Total Energy =                       -388.4227655359507025
  Basis Set: CC-PVTZ
  Basis Set:
  Basis Set: CC-PVTZ
  Basis Set:
  @DF-RHF Final Energy:  -388.42277094193537
    Total Energy =                       -388.4227709419354824
  Basis Set: CC-PVTZ
  Basis Set:
  Charge       = 0
  Multiplicity = 1
  Basis Set: CC-PVTZ
  Basis Set:

    Orbital Energies (a.u.)
    -----------------------

    Doubly Occupied:

       1A    -20.545644     2A    -11.265232     3A    -11.217044
       4A    -11.214986     5A    -11.214834     6A    -11.213461
       7A    -11.212913     8A    -11.211905     9A    -11.207592
      10A     -1.363513    11A     -1.095546    12A     -1.061537
      13A     -1.012387    14A     -0.948801    15A     -0.889437
      16A     -0.823848    17A     -0.798344    18A     -0.780359
      19A     -0.696785    20A     -0.651654    21A     -0.637791
      22A     -0.613373    23A     -0.601057    24A     -0.590223
      25A     -0.578790    26A     -0.556820    27A     -0.546086
      28A     -0.521101    29A     -0.508664    30A     -0.495794
      31A     -0.486199    32A     -0.478323    33A     -0.470048
      34A     -0.459606    35A     -0.448517    36A     -0.442083
      37A     -0.425757

  @DF-RHF Final Energy:  -388.42277096331793

   => Energetics <=

    Nuclear Repulsion Energy =            467.5773532881684105
    One-Electron Energy =               -1453.4281348987983620
    Two-Electron Energy =                 597.4280106473120213
    DFT Exchange-Correlation Energy =       0.0000000000000000
    Empirical Dispersion Energy =           0.0000000000000000
    PCM Polarization Energy =               0.0000000000000000
    EFP Energy =                            0.0000000000000000
    Total Energy =                       -388.4227709633179302
    Molecular point group: c1
  Basis Set: CC-PVTZ
  Basis Set:

  -Total Gradient:
     Atom            X                  Y                   Z
    ------   -----------------  -----------------  -----------------
       1       -0.000004898200    -0.000017757654    -0.000002870359
       2        0.000028639768     0.000002579267     0.000015446493
       3        0.000007931908    -0.000027470413    -0.000011715199
       4       -0.000020525065    -0.000002279361     0.000005414434
       5       -0.000004596372     0.000025774640     0.000014956905
       6       -0.000012531815     0.000011533155     0.000005716471
       7        0.000009584195     0.000005199777    -0.000020406686
       8       -0.000005237575     0.000003821059    -0.000004241916
       9        0.000003307525    -0.000006054704    -0.000001523804
      10        0.000066815638    -0.000009548605    -0.000097355794
      11       -0.000007767761     0.000010647872    -0.000002505661
      12        0.000006780896     0.000007256315     0.000006541523
      13       -0.000055151827     0.000006334675     0.000131111021
      14       -0.000004240978    -0.000000386885    -0.000000776727
      15        0.000003730766    -0.000001487549     0.000000045668
      16       -0.000139511107    -0.000099468520    -0.000040107552
      17        0.000005177295    -0.000009498285     0.000004896638
      18        0.000006897759    -0.000003332754     0.000000086369
      19       -0.000007199498     0.000010137811    -0.000011843257
      20        0.000130097216     0.000084558335     0.000010803842
      21       -0.000004447446     0.000007736861    -0.000003255465
      22       -0.000004861201    -0.000000725510     0.000004441169
      23       -0.000000361238     0.000002404704    -0.000002616967
      24        0.000003275407    -0.000002529245    -0.000001073182
      25       -0.000000258501    -0.000001079996     0.000000164214
      26       -0.000001525509     0.000002742525     0.000000809190
      27        0.000000875725     0.000000892485    -0.000000141368

  **** Optimization is complete! (in 7 steps) ****
    Final optimized geometry and variables:
    Molecular point group: c1

    Geometry (in Angstrom), charge = 0, multiplicity = 1:

    H            0.188225620857     1.366522619604     2.643539540923
    O            1.081871088074     1.411813735327     2.928056665335
    C            1.674086930312     0.140765676404     2.872896283022
    C            1.967140743126    -0.330112169702     1.456286788539
    H            2.599838355611     0.221748111348     3.426428340203
    H            1.053312907358    -0.589431958157     3.388385082760
    C            0.723168924844    -0.553812122970     0.599627555518
    H            2.614716690666     0.397936169027     0.977191962583
    H            2.530073952867    -1.258123929385     1.522408289546
    C            1.049012271207    -1.082807743720    -0.795843115457
    H            0.173101903508     0.378164573581     0.513024169364
    H            0.062986010661    -1.259574127330     1.100402239794
    C           -0.172849400454    -1.306150941648    -1.689527686310
    H            1.732839741488    -0.396814848572    -1.289603489882
    H            1.584107272301    -2.022945178650    -0.693795913682
    C           -0.905827187785    -0.017516478760    -2.119899277987
    H            0.149189510917    -1.847397216266    -2.572183156856
    H           -0.866357852676    -1.966146672465    -1.175659334474
    C           -2.351442815587     0.069550694338    -1.634275883304
    H           -0.899944013295     0.058618443171    -3.202597188962
    H           -0.362852605873     0.852909657896    -1.763634650183
    C           -3.054210814325     1.350779277849    -2.069050617322
    H           -2.904185261105    -0.788900103655    -2.006006439983
    H           -2.372641361833    -0.004611880467    -0.550284311068
    H           -3.079757458811     1.434902387676    -3.150450926125
    H           -4.077119810784     1.379484209230    -1.711341756957
    H           -2.544335831883     2.227675422177    -1.683674240720

  Mulliken Charges: (a.u.)
   Center  Symbol    Alpha    Beta     Spin     Total
       1     H     0.39218  0.39218  0.00000  0.21565
       2     O     4.20561  4.20561  0.00000 -0.41121
       3     C     2.98027  2.98027  0.00000  0.03946
       4     C     3.08816  3.08816  0.00000 -0.17631
       5     H     0.44855  0.44855  0.00000  0.10290
       6     H     0.46939  0.46939  0.00000  0.06121
       7     C     3.10478  3.10478  0.00000 -0.20955
       8     H     0.45072  0.45072  0.00000  0.09856
       9     H     0.45508  0.45508  0.00000  0.08984
      10     C     3.09532  3.09532  0.00000 -0.19064
      11     H     0.45599  0.45599  0.00000  0.08802
      12     H     0.45287  0.45287  0.00000  0.09426
      13     C     3.10431  3.10431  0.00000 -0.20862
      14     H     0.45195  0.45195  0.00000  0.09610
      15     H     0.44823  0.44823  0.00000  0.10354
      16     C     3.10528  3.10528  0.00000 -0.21056
      17     H     0.44261  0.44261  0.00000  0.11478
      18     H     0.45434  0.45434  0.00000  0.09132
      19     C     3.08190  3.08190  0.00000 -0.16379
      20     H     0.44422  0.44422  0.00000  0.11157
      21     H     0.45139  0.45139  0.00000  0.09722
      22     C     3.15055  3.15055  0.00000 -0.30109
      23     H     0.45279  0.45279  0.00000  0.09442
      24     H     0.45555  0.45555  0.00000  0.08889
      25     H     0.45444  0.45444  0.00000  0.09112
      26     H     0.44848  0.44848  0.00000  0.10303
      27     H     0.45505  0.45505  0.00000  0.08989

   Total alpha = 37.00000, Total beta = 37.00000, Total charge =  0.00000

*** Psi4 exiting successfully. Buy a developer a beer!
