  ==> Input File <==

--------------------------------------------------------------------------
set {
	reference rhf
	basis 6-31G*
}

set_num_threads( 4 )
memory 2 gb

molecule MOL {
0 1

H	 -0.944757	 -0.000069	 1.678017
O	 -0.042387	 -0.000390	 1.388199
C	 -0.001487	 0.000018	 -0.026623
C	 -1.340646	 0.493876	 -0.577440
C	 1.146245	 0.891113	 -0.505480
C	 0.241952	 -1.453011	 -0.418881
H	 -1.356968	 0.466624	 -1.662285
H	 -1.530084	 1.519794	 -0.270012
H	 -2.150409	 -0.123408	 -0.204263
H	 1.229951	 0.881758	 -1.587605
H	 0.990276	 1.921818	 -0.195231
H	 2.085808	 0.551915	 -0.083529
H	 0.289994	 -1.561796	 -1.497585
H	 -0.557552	 -2.081458	 -0.042936
H	 1.175316	 -1.804388	 0.006276

	symmetry c1
}
set optking {
	frozen_dihedral = ("
		4 3 2 1
	")
}

ee = optimize('scf')
oeprop('DIPOLE', 'QUADRUPOLE', 'MULLIKEN_CHARGES')
f=open( 'psi4out.xyz', 'w' )
f.write( "15  " )
f.write( str(ee) + "\n" )
f.write( MOL.save_string_xyz() )
f.close()
--------------------------------------------------------------------------

    Molecular point group: c1
  Charge       = 0
  Multiplicity = 1
  Basis Set: 6-31G*
  Basis Set:
  @DF-RHF Final Energy:  -232.15015718735202
    Total Energy =                       -232.1501571873523062
    Molecular point group: c1
  Basis Set: 6-31G*
  Basis Set:
  Basis Set: 6-31G*
  Basis Set:
  @DF-RHF Final Energy:  -232.15118274427343
    Total Energy =                       -232.1511827442731715
  Basis Set: 6-31G*
  Basis Set:
  Basis Set: 6-31G*
  Basis Set:
  @DF-RHF Final Energy:  -232.15146429671216
    Total Energy =                       -232.1514642967123336
  Basis Set: 6-31G*
  Basis Set:
  Basis Set: 6-31G*
  Basis Set:
  @DF-RHF Final Energy:  -232.15147019996110
    Total Energy =                       -232.1514701999608974
  Basis Set: 6-31G*
  Basis Set:
  Basis Set: 6-31G*
  Basis Set:
  @DF-RHF Final Energy:  -232.15147696525582
    Total Energy =                       -232.1514769652560517
  Basis Set: 6-31G*
  Basis Set:
  Charge       = 0
  Multiplicity = 1
  Basis Set: 6-31G*
  Basis Set:

    Orbital Energies (a.u.)
    -----------------------

    Doubly Occupied:

       1A    -20.547197     2A    -11.282006     3A    -11.217851
       4A    -11.205135     5A    -11.204640     6A     -1.358585
       7A     -1.063695     8A     -0.945213     9A     -0.935767
      10A     -0.775643    11A     -0.669412    12A     -0.622702
      13A     -0.620930    14A     -0.575160    15A     -0.556313
      16A     -0.532998    17A     -0.516782    18A     -0.508798
      19A     -0.501744    20A     -0.457138    21A     -0.422872

  @DF-RHF Final Energy:  -232.15147679561886

   => Energetics <=

    Nuclear Repulsion Energy =            200.2682005201641005
    One-Electron Energy =                -711.7981915040406875
    Two-Electron Energy =                 279.3785141882575545
    DFT Exchange-Correlation Energy =       0.0000000000000000
    Empirical Dispersion Energy =           0.0000000000000000
    PCM Polarization Energy =               0.0000000000000000
    EFP Energy =                            0.0000000000000000
    Total Energy =                       -232.1514767956190326
    Molecular point group: c1
  Basis Set: 6-31G*
  Basis Set:

  -Total Gradient:
     Atom            X                  Y                   Z
    ------   -----------------  -----------------  -----------------
       1        0.000036612569     0.001903051400    -0.000082481325
       2       -0.000195586606    -0.002771610132     0.000137345235
       3        0.000576248602     0.001960723333    -0.000061407020
       4       -0.000445583050    -0.001134487565     0.000032880709
       5        0.000020397117    -0.000011440620     0.000000021718
       6        0.000002326340     0.000016130296    -0.000017760333
       7       -0.000013239420    -0.000004352304    -0.000004340055
       8        0.000024482301     0.000009262286    -0.000016864298
       9       -0.000003950011     0.000022189819     0.000017161481
      10        0.000003073939    -0.000013675887     0.000016443113
      11       -0.000024014606    -0.000004726382    -0.000008809791
      12        0.000022909033     0.000018881232     0.000008538999
      13       -0.000000830770    -0.000011982679    -0.000017381510
      14        0.000004754497     0.000008375007     0.000001424645
      15       -0.000007599934     0.000013662198    -0.000004771568

  **** Optimization is complete! (in 6 steps) ****
    Final optimized geometry and variables:
    Molecular point group: c1

    Geometry (in Angstrom), charge = 0, multiplicity = 1:

    H           -0.890143197327     0.092145615094     1.715660046737
    O           -0.001998018760     0.059955310181     1.391515561372
    C            0.002195808623    -0.001547505901    -0.026083683007
    C           -1.335854975139     0.493862259146    -0.575904271690
    C            1.147146813532     0.894189982306    -0.489278126719
    C            0.246775402881    -1.453143838430    -0.441240120153
    H           -1.345584156990     0.474160981552    -1.660219151236
    H           -1.527796431758     1.513361391573    -0.254693762047
    H           -2.152669601618    -0.134366942273    -0.227837878325
    H            1.257263463093     0.864164933674    -1.568871412367
    H            0.969269905072     1.920360328922    -0.186777011720
    H            2.078657570049     0.568608085126    -0.039724051257
    H            0.298743048737    -1.555162690641    -1.521207116082
    H           -0.552081669195    -2.092133884513    -0.077200838128
    H            1.178509266496    -1.809211717977    -0.016201783726

  Mulliken Charges: (a.u.)
   Center  Symbol    Alpha    Beta     Spin     Total
       1     H     0.28045  0.28045  0.00000  0.43911
       2     O     4.38205  4.38205  0.00000 -0.76411
       3     C     2.84624  2.84624  0.00000  0.30751
       4     C     3.25792  3.25792  0.00000 -0.51584
       5     C     3.23221  3.23221  0.00000 -0.46443
       6     C     3.23231  3.23231  0.00000 -0.46461
       7     H     0.41500  0.41500  0.00000  0.16999
       8     H     0.41459  0.41459  0.00000  0.17082
       9     H     0.42210  0.42210  0.00000  0.15579
      10     H     0.42525  0.42525  0.00000  0.14950
      11     H     0.41727  0.41727  0.00000  0.16545
      12     H     0.41274  0.41274  0.00000  0.17451
      13     H     0.42559  0.42559  0.00000  0.14882
      14     H     0.42308  0.42308  0.00000  0.15384
      15     H     0.41319  0.41319  0.00000  0.17362

   Total alpha = 21.00000, Total beta = 21.00000, Total charge = -0.00000
