  ==> Input File <==

--------------------------------------------------------------------------
set {
	reference rhf
	basis cc-pvtz
}

set_num_threads( 4 )
memory 2 gb

molecule MOL {
0 1

H	 1.536136	 0.029170	 -3.001842
C	 1.506414	 0.160973	 -1.925492
C	 0.120711	 -0.176643	 -1.392249
H	 1.755339	 1.190125	 -1.697890
H	 2.275712	 -0.469845	 -1.497729
N	 0.000297	 0.000045	 0.046090
H	 -0.592409	 0.475527	 -1.877275
H	 -0.152309	 -1.194235	 -1.685331
C	 -1.359159	 0.315706	 0.454404
C	 0.557950	 -1.117310	 0.791117
C	 -2.416729	 -0.286720	 -0.460525
H	 -1.478729	 1.390261	 0.442008
H	 -1.539692	 0.003361	 1.486761
C	 1.062757	 -0.725855	 2.173278
H	 1.391479	 -1.519044	 0.231743
H	 -0.168054	 -1.930544	 0.877613
H	 -2.285276	 0.073129	 -1.473515
H	 -2.371743	 -1.368476	 -0.483209
H	 -3.408658	 -0.007405	 -0.121593
H	 1.832724	 0.031277	 2.090758
H	 0.273998	 -0.331191	 2.801670
H	 1.481760	 -1.589941	 2.677861

	symmetry c1
}
set optking {
	frozen_dihedral = ("
		3 6 9 11
	")
}

ee = optimize('scf')
oeprop('DIPOLE', 'QUADRUPOLE', 'MULLIKEN_CHARGES')
f=open( 'psi4out.xyz', 'w' )
f.write( "22  " )
f.write( str(ee) + "\n" )
f.write( MOL.save_string_xyz() )
f.close()
--------------------------------------------------------------------------

    Molecular point group: c1
  Charge       = 0
  Multiplicity = 1
  Basis Set: CC-PVTZ
  Basis Set:
  @DF-RHF Final Energy:  -290.46460180148802
    Total Energy =                       -290.4646018014879019
    Molecular point group: c1
  Basis Set: CC-PVTZ
  Basis Set:
  Basis Set: CC-PVTZ
  Basis Set:
  @DF-RHF Final Energy:  -290.46350861909747
    Total Energy =                       -290.4635086190977518
  Basis Set: CC-PVTZ
  Basis Set:
  Basis Set: CC-PVTZ
  Basis Set:
  @DF-RHF Final Energy:  -290.46905470692309
    Total Energy =                       -290.4690547069228614
  Basis Set: CC-PVTZ
  Basis Set:
  Basis Set: CC-PVTZ
  Basis Set:
  @DF-RHF Final Energy:  -290.46962968636296
    Total Energy =                       -290.4696296863627936
  Basis Set: CC-PVTZ
  Basis Set:
  Basis Set: CC-PVTZ
  Basis Set:
  @DF-RHF Final Energy:  -290.46967117410605
    Total Energy =                       -290.4696711741058834
  Basis Set: CC-PVTZ
  Basis Set:
  Basis Set: CC-PVTZ
  Basis Set:
  @DF-RHF Final Energy:  -290.46969054912358
    Total Energy =                       -290.4696905491236407
  Basis Set: CC-PVTZ
  Basis Set:
  Basis Set: CC-PVTZ
  Basis Set:
  @DF-RHF Final Energy:  -290.46970513942091
    Total Energy =                       -290.4697051394210803
  Basis Set: CC-PVTZ
  Basis Set:
  Charge       = 0
  Multiplicity = 1
  Basis Set: CC-PVTZ
  Basis Set:

    Orbital Energies (a.u.)
    -----------------------

    Doubly Occupied:

       1A    -15.530946     2A    -11.238671     3A    -11.238053
       4A    -11.236955     5A    -11.207416     6A    -11.202777
       7A    -11.202047     8A     -1.221000     9A     -1.023636
      10A     -1.022356    11A     -0.956743    12A     -0.857416
      13A     -0.846234    14A     -0.759343    15A     -0.658628
      16A     -0.642264    17A     -0.618530    18A     -0.598300
      19A     -0.577826    20A     -0.546507    21A     -0.542839
      22A     -0.516602    23A     -0.511887    24A     -0.505979
      25A     -0.492457    26A     -0.491630    27A     -0.465354
      28A     -0.457226    29A     -0.338085

  @DF-RHF Final Energy:  -290.46970525479060

   => Energetics <=

    Nuclear Repulsion Energy =            338.3200322971556488
    One-Electron Energy =               -1062.5640612229590261
    Two-Electron Energy =                 433.7743236710126666
    DFT Exchange-Correlation Energy =       0.0000000000000000
    Empirical Dispersion Energy =           0.0000000000000000
    PCM Polarization Energy =               0.0000000000000000
    EFP Energy =                            0.0000000000000000
    Total Energy =                       -290.4697052547907106
    Molecular point group: c1
  Basis Set: CC-PVTZ
  Basis Set:

  -Total Gradient:
     Atom            X                  Y                   Z
    ------   -----------------  -----------------  -----------------
       1       -0.000005548599     0.000000501211    -0.000001753283
       2       -0.000003596676    -0.000007400613     0.000015196958
       3       -0.001023043712    -0.005671780984     0.000500260565
       4       -0.000002877991    -0.000001371747     0.000000972517
       5        0.000002653044    -0.000001297819     0.000001332203
       6        0.001530426679     0.010337343450    -0.002201257918
       7       -0.000002042241     0.000003218324     0.000011466780
       8        0.000008309768     0.000002702181    -0.000000184846
       9       -0.000491935111    -0.009354360670     0.004821634898
      10       -0.000016770250    -0.000023481447    -0.000012132352
      11        0.000022281801     0.004675990258    -0.003093443516
      12       -0.000001063672    -0.000003150334    -0.000003126379
      13       -0.000005276092     0.000003779412    -0.000007765098
      14       -0.000008611228     0.000028055535    -0.000014614199
      15        0.000006634527     0.000012681919    -0.000010253217
      16       -0.000010439563    -0.000006226213    -0.000004332366
      17       -0.000003718340    -0.000002070305     0.000000128562
      18        0.000000802082     0.000006047242     0.000003152152
      19       -0.000005365285    -0.000001317384    -0.000000678906
      20        0.000006395398     0.000005886800     0.000006209328
      21        0.000007785863    -0.000002825569     0.000008027142
      22       -0.000005000404    -0.000000923248    -0.000018839026

  **** Optimization is complete! (in 8 steps) ****
    Final optimized geometry and variables:
    Molecular point group: c1

    Geometry (in Angstrom), charge = 0, multiplicity = 1:

    H            1.738402462935     0.321058075915    -2.901821874326
    C            1.669093168190     0.399115144694    -1.821955548457
    C            0.245988079545     0.093850900447    -1.369177484942
    H            1.945728052721     1.405232624986    -1.531758229064
    H            2.397381691876    -0.281999618632    -1.400656165618
    N            0.060396133108     0.255844696772     0.062692384168
    H           -0.405410166965     0.793813982359    -1.874633490372
    H           -0.042597808802    -0.902118988554    -1.711408305749
    C           -1.311718961885     0.545982042962     0.484675066439
    C            0.645495350207    -0.837614319748     0.827815425822
    C           -2.455463525747    -0.009977106005    -0.366972836290
    H           -1.435597326058     1.624867085963     0.530906680913
    H           -1.432605939136     0.191239311547     1.498248259096
    C            1.155499665179    -0.400399017645     2.194635917071
    H            1.480081526587    -1.242175945161     0.273479737917
    H           -0.063050610957    -1.661084096568     0.945697971455
    H           -2.488827858466     0.431440399562    -1.353099170125
    H           -2.394959291545    -1.086936206564    -0.482103015573
    H           -3.397291050425     0.215025910642     0.121331938152
    H            1.914555671540     0.364340443641     2.084220134003
    H            0.364902271631     0.004766931154     2.814376484069
    H            1.588636406759    -1.243234229411     2.723152801311

  Mulliken Charges: (a.u.)
   Center  Symbol    Alpha    Beta     Spin     Total
       1     H     0.45277  0.45277  0.00000  0.09446
       2     C     3.14440  3.14440  0.00000 -0.28881
       3     C     3.03940  3.03940  0.00000 -0.07879
       4     H     0.45151  0.45151  0.00000  0.09698
       5     H     0.45611  0.45611  0.00000  0.08779
       6     N     3.62283  3.62283  0.00000 -0.24565
       7     H     0.45285  0.45285  0.00000  0.09431
       8     H     0.46333  0.46333  0.00000  0.07334
       9     C     3.04976  3.04976  0.00000 -0.09951
      10     C     3.04619  3.04619  0.00000 -0.09238
      11     C     3.15627  3.15627  0.00000 -0.31254
      12     H     0.44897  0.44897  0.00000  0.10207
      13     H     0.45414  0.45414  0.00000  0.09171
      14     C     3.13862  3.13862  0.00000 -0.27723
      15     H     0.44872  0.44872  0.00000  0.10256
      16     H     0.46253  0.46253  0.00000  0.07494
      17     H     0.45052  0.45052  0.00000  0.09897
      18     H     0.45260  0.45260  0.00000  0.09480
      19     H     0.44629  0.44629  0.00000  0.10742
      20     H     0.45202  0.45202  0.00000  0.09596
      21     H     0.45578  0.45578  0.00000  0.08843
      22     H     0.45440  0.45440  0.00000  0.09119

   Total alpha = 29.00000, Total beta = 29.00000, Total charge = -0.00000
