                              Psi4 1.0.54 Driver

  ==> Input File <==

--------------------------------------------------------------------------
set {
	reference rhf
	basis cc-pvtz
}

set_num_threads( 4 )
memory 2 gb

molecule MOL {
0 1

H	 2.271421	 2.490687	 0.396765
N	 1.471633	 1.900221	 0.311288
C	 1.860978	 0.530248	 0.016256
H	 0.905557	 2.275332	 -0.420968
C	 0.644130	 -0.381765	 -0.031064
H	 2.526705	 0.197698	 0.805639
H	 2.414599	 0.438640	 -0.919194
C	 -0.678115	 0.376691	 0.025731
H	 0.693998	 -0.977147	 -0.936845
H	 0.693309	 -1.082142	 0.800523
C	 -1.900706	 -0.535531	 -0.022488
H	 -0.725296	 1.079516	 -0.802982
H	 -0.715474	 0.974884	 0.933278
C	 -3.220513	 0.226854	 0.028039
H	 -1.865036	 -1.134397	 -0.928236
H	 -1.857948	 -1.236381	 0.806820
H	 -3.309098	 0.911849	 -0.808725
H	 -4.066838	 -0.449485	 -0.008086
H	 -3.301685	 0.809374	 0.939860

	symmetry c1
}
set optking {
	frozen_dihedral = ("
		6 3 5 9
	")
}

ee,wfn = optimize('scf', return_wfn=True)
oeprop( wfn, 'DIPOLE', 'QUADRUPOLE', 'MULLIKEN_CHARGES')
f=open( 'psi4out.xyz', 'w' )
f.write( "19  " )
f.write( str(ee) + "\n" )
f.write( MOL.save_string_xyz() )
f.close()
--------------------------------------------------------------------------

    Molecular point group: c1
  Charge       = 0
  Multiplicity = 1
  Basis Set: CC-PVTZ
  Basis Set:
  @DF-RHF Final Energy:  -251.43553185338965
    Total Energy =                       -251.4355318533896479
    Molecular point group: c1
  Basis Set: CC-PVTZ
  Basis Set:
  Basis Set: CC-PVTZ
  Basis Set:
  @DF-RHF Final Energy:  -251.43556389795887
    Total Energy =                       -251.4355638979586729
  Basis Set: CC-PVTZ
  Basis Set:
  Basis Set: CC-PVTZ
  Basis Set:
  @DF-RHF Final Energy:  -251.43836430545406
    Total Energy =                       -251.4383643054537743
  Basis Set: CC-PVTZ
  Basis Set:
  Basis Set: CC-PVTZ
  Basis Set:
  @DF-RHF Final Energy:  -251.43866368360676
    Total Energy =                       -251.4386636836069329
  Basis Set: CC-PVTZ
  Basis Set:
  Basis Set: CC-PVTZ
  Basis Set:
  @DF-RHF Final Energy:  -251.43868186561170
    Total Energy =                       -251.4386818656119544
  Basis Set: CC-PVTZ
  Basis Set:
  Basis Set: CC-PVTZ
  Basis Set:
  @DF-RHF Final Energy:  -251.43869176351984
    Total Energy =                       -251.4386917635197278
  Basis Set: CC-PVTZ
  Basis Set:
  Basis Set: CC-PVTZ
  Basis Set:
  @DF-RHF Final Energy:  -251.43869366130596
    Total Energy =                       -251.4386936613060470
  Basis Set: CC-PVTZ
  Basis Set:
  Charge       = 0
  Multiplicity = 1
  Basis Set: CC-PVTZ
  Basis Set:

    Orbital Energies (a.u.)
    -----------------------

    Doubly Occupied:

       1A    -15.526152     2A    -11.239314     3A    -11.208578
       4A    -11.208331     5A    -11.204600     6A    -11.202695
       7A     -1.176826     8A     -1.068462     9A     -0.993497
      10A     -0.905806    11A     -0.813908    12A     -0.776327
      13A     -0.667666    14A     -0.644550    15A     -0.613955
      16A     -0.583462    17A     -0.564081    18A     -0.549815
      19A     -0.526187    20A     -0.498289    21A     -0.480464
      22A     -0.461442    23A     -0.458650    24A     -0.444841
      25A     -0.379828

  @DF-RHF Final Energy:  -251.43869433642166

   => Energetics <=

    Nuclear Repulsion Energy =            249.9428896592011426
    One-Electron Energy =                -834.3677171461127955
    Two-Electron Energy =                 332.9861331504900477
    DFT Exchange-Correlation Energy =       0.0000000000000000
    Empirical Dispersion Energy =           0.0000000000000000
    PCM Polarization Energy =               0.0000000000000000
    EFP Energy =                            0.0000000000000000
    Total Energy =                       -251.4386943364216336
    Molecular point group: c1
  Basis Set: CC-PVTZ
  Basis Set:

  -Total Gradient:
     Atom            X                  Y                   Z
    ------   -----------------  -----------------  -----------------
       1       -0.000002991172    -0.000017896793    -0.000008325390
       2        0.000005972988    -0.000007954304     0.000021850273
       3        0.001113240872    -0.001812716603    -0.002657822706
       4        0.000005390365    -0.000017556805    -0.000002537689
       5        0.001348375998    -0.002185056928     0.002148597635
       6       -0.001148862515     0.001898434954     0.001902808061
       7        0.000006046387     0.000000542860     0.000001820624
       8       -0.000002806584    -0.000010902960     0.000005303946
       9       -0.001314722273     0.002154558438    -0.001417848605
      10        0.000000519736    -0.000001675525    -0.000000456039
      11       -0.000009072853    -0.000004268488     0.000023738431
      12       -0.000003979529     0.000004446539    -0.000007114904
      13       -0.000003506465    -0.000001516985     0.000001761867
      14        0.000004823406     0.000003210516    -0.000010417376
      15        0.000004159619     0.000001332652    -0.000001792427
      16       -0.000001355248    -0.000003272111     0.000003625860
      17       -0.000002553814     0.000005090719    -0.000002316405
      18        0.000000040891    -0.000002908749    -0.000003762006
      19        0.000001280187    -0.000001890422     0.000002886849

  **** Optimization is complete! (in 8 steps) ****
    Final optimized geometry and variables:
    Molecular point group: c1

    Geometry (in Angstrom), charge = 0, multiplicity = 1:

    H            2.880189622806     1.884851930698     0.348062712118
    N            1.992830454823     1.446484658364     0.222327938338
    C            2.169225855290     0.030878156536    -0.079628333008
    H            1.534019305512     1.926159921686    -0.522492252902
    C            0.849012362202    -0.778706259837    -0.075540716113
    H            2.815892240197    -0.358372606717     0.696571914877
    H            2.681094882396    -0.125684183468    -1.027021784269
    C           -0.445108732421     0.034417469795    -0.026661668266
    H            0.817259156481    -1.388230861405    -0.973244075469
    H            0.852771060570    -1.464413159859     0.764718780475
    C           -1.686843359395    -0.853459960338    -0.028482335118
    H           -0.494957183872     0.703931577573    -0.882676156770
    H           -0.450227785902     0.664544806344     0.853862922156
    C           -2.988439339934    -0.059655922514     0.014226843840
    H           -1.680491338335    -1.485780957290    -0.912473393971
    H           -1.648012411507    -1.524958127331     0.825065272406
    H           -3.075472085246     0.596386363632    -0.845746180901
    H           -3.850521376947    -0.717066099664     0.016102663177
    H           -3.040650261816     0.557439474473     0.904932223169

  Mulliken Charges: (a.u.)
   Center  Symbol    Alpha    Beta     Spin     Total
       1     H     0.42933  0.42933  0.00000  0.14134
       2     N     3.68797  3.68797  0.00000 -0.37593
       3     C     3.03383  3.03383  0.00000 -0.06766
       4     H     0.42910  0.42910  0.00000  0.14180
       5     C     3.09483  3.09483  0.00000 -0.18967
       6     H     0.45634  0.45634  0.00000  0.08732
       7     H     0.46171  0.46171  0.00000  0.07659
       8     C     3.08927  3.08927  0.00000 -0.17854
       9     H     0.45412  0.45412  0.00000  0.09176
      10     H     0.45348  0.45348  0.00000  0.09305
      11     C     3.08450  3.08450  0.00000 -0.16900
      12     H     0.46107  0.46107  0.00000  0.07786
      13     H     0.44250  0.44250  0.00000  0.11499
      14     C     3.15013  3.15013  0.00000 -0.30026
      15     H     0.45662  0.45662  0.00000  0.08676
      16     H     0.45503  0.45503  0.00000  0.08993
      17     H     0.45636  0.45636  0.00000  0.08727
      18     H     0.44930  0.44930  0.00000  0.10140
      19     H     0.45450  0.45450  0.00000  0.09100

   Total alpha = 25.00000, Total beta = 25.00000, Total charge = -0.00000

*** Psi4 exiting successfully. Buy a developer a beer!
