  ==> Input File <==

--------------------------------------------------------------------------
set {
	reference rhf
	basis 6-31G*
}

set_num_threads( 1 )
memory 2 gb

molecule MOL {
0 1

O	 1.737906	 1.486773	 -0.403255
C	 1.387150	 0.672228	 -1.194838
C	 0.070675	 -0.065482	 -1.171466
O	 2.127992	 0.300649	 -2.231283
C	 -0.823008	 0.326187	 0.001381
H	 -0.422596	 0.120471	 -2.121634
H	 0.294509	 -1.128702	 -1.158051
C	 -2.149452	 -0.435131	 -0.000098
H	 -1.010812	 1.394694	 -0.033418
H	 -0.293514	 0.143228	 0.931150
C	 -3.368779	 0.488503	 -0.000883
H	 -2.193746	 -1.087250	 -0.871175
H	 -2.195311	 -1.087803	 0.870418
C	 -4.693822	 -0.272754	 -0.001129
H	 -3.325798	 1.139422	 -0.871284
H	 -3.326423	 1.139959	 0.869145
H	 -4.781274	 -0.907928	 -0.878124
H	 -5.538651	 0.408946	 -0.001420
H	 -4.781694	 -0.907783	 0.875984
C	 3.392964	 0.921049	 -2.372367
H	 3.281397	 1.989537	 -2.488186
H	 3.834450	 0.492867	 -3.258722
H	 4.013070	 0.720121	 -1.510623

	symmetry c1
}
set optking {
	frozen_dihedral = ("
		15 11 8 12,
		1 2 3 6,
		9 5 3 6,
		1 2 4 20
	")
}

ee = energy('scf')
oeprop('DIPOLE', 'QUADRUPOLE', 'MULLIKEN_CHARGES')
f=open( 'psi4out.xyz', 'w' )
f.write( "23  " )
f.write( str(ee) + "\n" )
f.write( MOL.save_string_xyz() )
f.close()
--------------------------------------------------------------------------

    Molecular point group: c1

    Geometry (in Angstrom), charge = 0, multiplicity = 1:

       Center              X                  Y                   Z               Mass
    ------------   -----------------  -----------------  -----------------  -----------------
           O          1.960440820567     1.097427143785     0.432517087634    15.994914619560
           C          1.609684820567     0.282882143785    -0.359065912366    12.000000000000
           C          0.293209820567    -0.454827856215    -0.335693912366    12.000000000000
           O          2.350526820567    -0.088696856215    -1.395510912366    15.994914619560
           C         -0.600473179433    -0.063158856215     0.837153087634    12.000000000000
           H         -0.200061179433    -0.268874856215    -1.285861912366     1.007825032070
           H          0.517043820567    -1.518047856215    -0.322278912366     1.007825032070
           C         -1.926917179433    -0.824476856215     0.835674087634    12.000000000000
           H         -0.788277179433     1.005348143785     0.802354087634     1.007825032070
           H         -0.070979179433    -0.246117856215     1.766922087634     1.007825032070
           C         -3.146244179433     0.099157143785     0.834889087634    12.000000000000
           H         -1.971211179433    -1.476595856215    -0.035402912366     1.007825032070
           H         -1.972776179433    -1.477148856215     1.706190087634     1.007825032070
           C         -4.471287179433    -0.662099856215     0.834643087634    12.000000000000
           H         -3.103263179433     0.750076143785    -0.035511912366     1.007825032070
           H         -3.103888179433     0.750613143785     1.704917087634     1.007825032070
           H         -4.558739179433    -1.297273856215    -0.042351912366     1.007825032070
           H         -5.316116179433     0.019600143785     0.834352087634     1.007825032070
           H         -4.559159179433    -1.297128856215     1.711756087634     1.007825032070
           C          3.615498820567     0.531703143785    -1.536594912366    12.000000000000
           H          3.503931820567     1.600191143785    -1.652413912366     1.007825032070
           H          4.056984820567     0.103521143785    -2.422949912366     1.007825032070
           H          4.235604820567     0.330775143785    -0.674850912366     1.007825032070

  Charge       = 0
  Multiplicity = 1
  Basis Set: 6-31G*
  Basis Set:

    Orbital Energies (a.u.)
    -----------------------

    Doubly Occupied:

       1A    -20.603423     2A    -20.545273     3A    -11.371712
       4A    -11.280721     5A    -11.235863     6A    -11.217611
       7A    -11.217422     8A    -11.216086     9A    -11.209495
      10A     -1.469129    11A     -1.362561    12A     -1.093649
      13A     -1.043121    14A     -0.986855    15A     -0.931992
      16A     -0.844593    17A     -0.795005    18A     -0.767481
      19A     -0.699747    20A     -0.682438    21A     -0.672196
      22A     -0.640460    23A     -0.617729    24A     -0.598828
      25A     -0.572610    26A     -0.559631    27A     -0.556169
      28A     -0.527641    29A     -0.521166    30A     -0.500668
      31A     -0.492138    32A     -0.471023    33A     -0.463911
      34A     -0.458472    35A     -0.451986    36A     -0.434859

  @DF-RHF Final Energy:  -422.97061431982820

   => Energetics <=

    Nuclear Repulsion Energy =            453.9434847304132745
    One-Electron Energy =               -1475.6009457483285132
    Two-Electron Energy =                 598.6868466980895391
    DFT Exchange-Correlation Energy =       0.0000000000000000
    Empirical Dispersion Energy =           0.0000000000000000
    PCM Polarization Energy =               0.0000000000000000
    EFP Energy =                            0.0000000000000000
    Total Energy =                       -422.9706143198256996

  Mulliken Charges: (a.u.)
   Center  Symbol    Alpha    Beta     Spin     Total
       1     O     4.28596  4.28596  0.00000 -0.57191
       2     C     2.60566  2.60566  0.00000  0.78869
       3     C     3.21083  3.21083  0.00000 -0.42167
       4     O     4.30740  4.30740  0.00000 -0.61479
       5     C     3.15500  3.15500  0.00000 -0.30999
       6     H     0.40058  0.40058  0.00000  0.19884
       7     H     0.40008  0.40008  0.00000  0.19983
       8     C     3.15625  3.15625  0.00000 -0.31251
       9     H     0.40881  0.40881  0.00000  0.18237
      10     H     0.40942  0.40942  0.00000  0.18117
      11     C     3.15391  3.15391  0.00000 -0.30782
      12     H     0.42238  0.42238  0.00000  0.15525
      13     H     0.41920  0.41920  0.00000  0.16159
      14     C     3.24025  3.24025  0.00000 -0.48050
      15     H     0.42301  0.42301  0.00000  0.15398
      16     H     0.42005  0.42005  0.00000  0.15989
      17     H     0.42199  0.42199  0.00000  0.15601
      18     H     0.41874  0.41874  0.00000  0.16251
      19     H     0.42131  0.42131  0.00000  0.15738
      20     C     3.09245  3.09245  0.00000 -0.18490
      21     H     0.40909  0.40909  0.00000  0.18181
      22     H     0.40850  0.40850  0.00000  0.18300
      23     H     0.40912  0.40912  0.00000  0.18177

   Total alpha = 36.00000, Total beta = 36.00000, Total charge = -0.00000
