  ==> Input File <==

--------------------------------------------------------------------------
set {
	reference rhf
	basis 6-31G*
}

set_num_threads( 4 )
memory 2 gb

molecule MOL {
0 1

O	 0.625848	 1.349995	 -0.000749
C	 0.486307	 0.169203	 0.000779
C	 1.608116	 -0.841643	 0.000302
O	 -0.698257	 -0.426125	 0.001050
C	 2.990107	 -0.200498	 -0.000684
H	 1.468623	 -1.481519	 -0.865924
H	 1.469683	 -1.481289	 0.866878
H	 3.129736	 0.423364	 -0.875135
H	 3.757882	 -0.966877	 -0.001197
H	 3.130964	 0.423383	 0.873533
C	 -1.819035	 0.338795	 -0.430407
C	 -3.038888	 -0.553586	 -0.341379
H	 -1.645387	 0.678643	 -1.442304
H	 -1.914857	 1.211207	 0.201499
H	 -2.924976	 -1.425333	 -0.975602
H	 -3.920103	 -0.007826	 -0.662712
H	 -3.196050	 -0.889867	 0.677185

	symmetry c1
}
set optking {
	frozen_dihedral = ("
		11 4 2 3
	")
}

ee = optimize('scf')
oeprop('DIPOLE', 'QUADRUPOLE', 'MULLIKEN_CHARGES')
f=open( 'psi4out.xyz', 'w' )
f.write( "17  " )
f.write( str(ee) + "\n" )
f.write( MOL.save_string_xyz() )
f.close()
--------------------------------------------------------------------------

    Molecular point group: c1
  Charge       = 0
  Multiplicity = 1
  Basis Set: 6-31G*
  Basis Set:
  @DF-RHF Final Energy:  -344.90958019712230
    Total Energy =                       -344.9095801971223523
    Molecular point group: c1
  Basis Set: 6-31G*
  Basis Set:
  Basis Set: 6-31G*
  Basis Set:
  @DF-RHF Final Energy:  -344.90741913048799
    Total Energy =                       -344.9074191304879946
  Basis Set: 6-31G*
  Basis Set:
  Basis Set: 6-31G*
  Basis Set:
  @DF-RHF Final Energy:  -344.90986192839443
    Total Energy =                       -344.9098619283943776
  Basis Set: 6-31G*
  Basis Set:
  Basis Set: 6-31G*
  Basis Set:
  @DF-RHF Final Energy:  -344.90993460327843
    Total Energy =                       -344.9099346032780886
  Basis Set: 6-31G*
  Basis Set:
  Basis Set: 6-31G*
  Basis Set:
  @DF-RHF Final Energy:  -344.90996833242559
    Total Energy =                       -344.9099683324256489
  Basis Set: 6-31G*
  Basis Set:
  Basis Set: 6-31G*
  Basis Set:
  @DF-RHF Final Energy:  -344.90997061126950
    Total Energy =                       -344.9099706112693866
  Basis Set: 6-31G*
  Basis Set:
  Charge       = 0
  Multiplicity = 1
  Basis Set: 6-31G*
  Basis Set:

    Orbital Energies (a.u.)
    -----------------------

    Doubly Occupied:

       1A    -20.599224     2A    -20.545013     3A    -11.371584
       4A    -11.285647     5A    -11.237941     6A    -11.222586
       7A    -11.216058     8A     -1.466475     9A     -1.362069
      10A     -1.069668    11A     -1.032191    12A     -0.910401
      13A     -0.848695    14A     -0.772499    15A     -0.696022
      16A     -0.687935    17A     -0.664627    18A     -0.629536
      19A     -0.583362    20A     -0.573129    21A     -0.557814
      22A     -0.524354    23A     -0.520800    24A     -0.513755
      25A     -0.504107    26A     -0.492744    27A     -0.452311
      28A     -0.435558

  @DF-RHF Final Energy:  -344.90997074442117

   => Energetics <=

    Nuclear Repulsion Energy =            314.6295177169167232
    One-Electron Energy =               -1093.5267631011315643
    Two-Electron Energy =                 433.9872746397935543
    DFT Exchange-Correlation Energy =       0.0000000000000000
    Empirical Dispersion Energy =           0.0000000000000000
    PCM Polarization Energy =               0.0000000000000000
    EFP Energy =                            0.0000000000000000
    Total Energy =                       -344.9099707444212299
    Molecular point group: c1
  Basis Set: 6-31G*
  Basis Set:

  -Total Gradient:
     Atom            X                  Y                   Z
    ------   -----------------  -----------------  -----------------
       1        0.000005973757    -0.000019376622     0.000026761837
       2        0.000597376467    -0.000329103473     0.003787247246
       3       -0.000216615266    -0.000381760411    -0.004231189981
       4       -0.000893911741     0.002576577886     0.004762924328
       5       -0.000017778028     0.000000752834    -0.000000124764
       6       -0.000002405893     0.000001926241    -0.000004325913
       7       -0.000002039820     0.000000719626     0.000000742448
       8        0.000000575090     0.000003212751    -0.000005922229
       9       -0.000009614865     0.000001524013     0.000000012829
      10        0.000005747502     0.000002679255     0.000005853796
      11        0.000495755404    -0.001834182969    -0.004326320182
      12        0.000015240278    -0.000011257542    -0.000003514806
      13        0.000011682180    -0.000003856406    -0.000014180198
      14        0.000005184534    -0.000007018574     0.000001438392
      15       -0.000004626549    -0.000004399438     0.000000086520
      16        0.000008348030     0.000003066854    -0.000000897866
      17        0.000001108920     0.000000495976     0.000001408543

  **** Optimization is complete! (in 7 steps) ****
    Final optimized geometry and variables:
    Molecular point group: c1

    Geometry (in Angstrom), charge = 0, multiplicity = 1:

    O            0.630153976979     1.363035188160    -0.099235355261
    C            0.482402251362     0.195911014946     0.069840391816
    C            1.594354758705    -0.824710130078     0.101700016958
    O           -0.708580369325    -0.380522441480     0.181162301120
    C            2.980839849905    -0.199895440688     0.194087920999
    H            1.490937910070    -1.414559255624    -0.805378951461
    H            1.408046216003    -1.508130644258     0.923622611246
    H            3.162186023218     0.468246009839    -0.638288259171
    H            3.741500403659    -0.973250916742     0.186598678641
    H            3.089882800633     0.374199549626     1.106951012419
    C           -1.841570769798     0.361132029777    -0.259591622679
    C           -3.045719983864    -0.551809731782    -0.167001496377
    H           -1.668043801333     0.692099781915    -1.275233898599
    H           -1.958099255733     1.238546397775     0.361034226678
    H           -2.913801756082    -1.428212591117    -0.791271338953
    H           -3.935206026360    -0.024894334150    -0.496941723090
    H           -3.200524386522    -0.879743440171     0.854564860316

  Mulliken Charges: (a.u.)
   Center  Symbol    Alpha    Beta     Spin     Total
       1     O     4.28410  4.28410  0.00000 -0.56819
       2     C     2.60536  2.60536  0.00000  0.78928
       3     C     3.20514  3.20514  0.00000 -0.41029
       4     O     4.31423  4.31423  0.00000 -0.62846
       5     C     3.23980  3.23980  0.00000 -0.47961
       6     H     0.40116  0.40116  0.00000  0.19767
       7     H     0.40086  0.40086  0.00000  0.19827
       8     H     0.40739  0.40739  0.00000  0.18521
       9     H     0.41798  0.41798  0.00000  0.16404
      10     H     0.41214  0.41214  0.00000  0.17572
      11     C     3.00223  3.00223  0.00000 -0.00446
      12     C     3.24832  3.24832  0.00000 -0.49665
      13     H     0.41329  0.41329  0.00000  0.17341
      14     H     0.40816  0.40816  0.00000  0.18369
      15     H     0.41257  0.41257  0.00000  0.17487
      16     H     0.41636  0.41636  0.00000  0.16729
      17     H     0.41089  0.41089  0.00000  0.17821

   Total alpha = 28.00000, Total beta = 28.00000, Total charge = -0.00000
