  ==> Input File <==

--------------------------------------------------------------------------
set {
	reference rhf
	basis 6-31G*
}

set_num_threads( 4 )
memory 2 gb

molecule MOL {
0 1

O	 0.712767	 0.655984	 -0.980073
C	 1.122059	 0.121804	 -0.000188
C	 0.539830	 0.262701	 1.385110
O	 2.172624	 -0.688929	 0.000216
C	 -0.672836	 1.186576	 1.441998
H	 0.291211	 -0.735274	 1.735807
H	 1.334446	 0.615434	 2.036969
C	 -1.242486	 1.311823	 2.855921
H	 -1.438572	 0.814749	 0.768279
H	 -0.393936	 2.167331	 1.069388
C	 -2.457051	 2.236722	 2.922244
H	 -1.519557	 0.326294	 3.224757
H	 -0.470435	 1.682274	 3.527318
H	 -3.260242	 1.874263	 2.287294
H	 -2.841462	 2.307805	 3.934890
H	 -2.203478	 3.240059	 2.592614
C	 3.452279	 -0.082609	 0.000533
H	 3.583069	 0.529321	 -0.880332
H	 4.163299	 -0.894027	 0.001117
H	 3.582335	 0.529955	 0.881077

	symmetry c1
}
set optking {
	frozen_dihedral = ("
		1 2 4 17
	")
}

ee = optimize('scf')
oeprop('DIPOLE', 'QUADRUPOLE', 'MULLIKEN_CHARGES')
f=open( 'psi4out.xyz', 'w' )
f.write( "20  " )
f.write( str(ee) + "\n" )
f.write( MOL.save_string_xyz() )
f.close()
--------------------------------------------------------------------------

    Molecular point group: c1
  Charge       = 0
  Multiplicity = 1
  Basis Set: 6-31G*
  Basis Set:
  @DF-RHF Final Energy:  -383.92158601251782
    Total Energy =                       -383.9215860125175368
    Molecular point group: c1
  Basis Set: 6-31G*
  Basis Set:
  Basis Set: 6-31G*
  Basis Set:
  @DF-RHF Final Energy:  -383.91980602625188
    Total Energy =                       -383.9198060262518766
  Basis Set: 6-31G*
  Basis Set:
  Basis Set: 6-31G*
  Basis Set:
  @DF-RHF Final Energy:  -383.92257508339270
    Total Energy =                       -383.9225750833927577
  Basis Set: 6-31G*
  Basis Set:
  Basis Set: 6-31G*
  Basis Set:
  @DF-RHF Final Energy:  -383.92286102351471
    Total Energy =                       -383.9228610235145425
  Basis Set: 6-31G*
  Basis Set:
  Basis Set: 6-31G*
  Basis Set:
  @DF-RHF Final Energy:  -383.92286866506856
    Total Energy =                       -383.9228686650687905
  Basis Set: 6-31G*
  Basis Set:
  Charge       = 0
  Multiplicity = 1
  Basis Set: 6-31G*
  Basis Set:

    Orbital Energies (a.u.)
    -----------------------

    Doubly Occupied:

       1A    -20.585722     2A    -20.557273     3A    -11.375153
       4A    -11.290678     5A    -11.239293     6A    -11.222556
       7A    -11.221795     8A    -11.212329     9A     -1.459366
      10A     -1.366972    11A     -1.090032    12A     -1.019948
      13A     -0.970019    14A     -0.894638    15A     -0.807132
      16A     -0.765716    17A     -0.695686    18A     -0.678679
      19A     -0.673561    20A     -0.643123    21A     -0.614740
      22A     -0.591399    23A     -0.587582    24A     -0.548621
      25A     -0.537038    26A     -0.512489    27A     -0.498333
      28A     -0.487705    29A     -0.478900    30A     -0.472236
      31A     -0.451461    32A     -0.433781

  @DF-RHF Final Energy:  -383.92286962173148

   => Energetics <=

    Nuclear Repulsion Energy =            380.9753943863580616
    One-Electron Energy =               -1277.8286188024940202
    Two-Electron Energy =                 512.9303547944044794
    DFT Exchange-Correlation Energy =       0.0000000000000000
    Empirical Dispersion Energy =           0.0000000000000000
    PCM Polarization Energy =               0.0000000000000000
    EFP Energy =                            0.0000000000000000
    Total Energy =                       -383.9228696217314791
    Molecular point group: c1
  Basis Set: 6-31G*
  Basis Set:

  -Total Gradient:
     Atom            X                  Y                   Z
    ------   -----------------  -----------------  -----------------
       1       -0.003183264969    -0.003943363192    -0.000607079825
       2        0.004795126525     0.005736274594     0.002822251793
       3       -0.000009144141    -0.000000716618    -0.000050206237
       4       -0.001793493588    -0.001948083969    -0.006252490190
       5       -0.000010950676     0.000016731559     0.000014628590
       6        0.000008891822     0.000010637286    -0.000006320198
       7        0.000012454259     0.000006274808     0.000000974238
       8       -0.000013758472    -0.000000595479     0.000007019802
       9        0.000002585078    -0.000004593398     0.000002484423
      10       -0.000001204731    -0.000003769867     0.000000634325
      11        0.000004651074     0.000003804216    -0.000002387733
      12       -0.000002590629    -0.000003467877    -0.000002386300
      13        0.000002968272    -0.000001089287    -0.000000603061
      14       -0.000002921993    -0.000002449219     0.000000453041
      15        0.000006498860    -0.000001869989    -0.000002039083
      16       -0.000000673620     0.000004017268    -0.000001885274
      17        0.000167406162     0.000140679139     0.004085788758
      18        0.000001422064    -0.000013218366    -0.000006141328
      19       -0.000002804446     0.000004868016    -0.000005728503
      20        0.000018803149    -0.000000069622     0.000003032758

  **** Optimization is complete! (in 6 steps) ****
    Final optimized geometry and variables:
    Molecular point group: c1

    Geometry (in Angstrom), charge = 0, multiplicity = 1:

    O            0.239295260841     0.011877150414    -1.895862678560
    C            0.661238980187    -0.482283692767    -0.908529512683
    C            0.053044979537    -0.337898129013     0.464267620220
    O            1.719311880519    -1.325817904966    -0.926159971240
    C           -1.163452336243     0.580867317525     0.510053402694
    H           -0.194807015015    -1.340375354188     0.804153985329
    H            0.834734746928     0.010312513206     1.136379090157
    C           -1.757298734049     0.693880524263     1.915027974990
    H           -1.915565179182     0.210059365129    -0.179172399611
    H           -0.883210488620     1.565980600786     0.148989081994
    C           -2.977308586125     1.612450473305     1.967230623465
    H           -2.035631431653    -0.295551690233     2.272021795507
    H           -0.998556717967     1.063372475711     2.602117676845
    H           -3.768037821999     1.250048644904     1.316904018872
    H           -3.378544813527     1.674966851250     2.973854380772
    H           -2.723460396238     2.619199188028     1.648284091947
    C            2.998721105959    -0.732705652751    -0.999076150501
    H            3.086679378725    -0.118650989205    -1.886225015357
    H            3.711177130375    -1.541462797142    -1.045412912878
    H            3.197776624994    -0.132116119582    -0.117274162663

  Mulliken Charges: (a.u.)
   Center  Symbol    Alpha    Beta     Spin     Total
       1     O     4.25472  4.25472  0.00000 -0.50944
       2     C     2.61240  2.61240  0.00000  0.77519
       3     C     3.21204  3.21204  0.00000 -0.42408
       4     O     4.31625  4.31625  0.00000 -0.63250
       5     C     3.15176  3.15176  0.00000 -0.30352
       6     H     0.39763  0.39763  0.00000  0.20474
       7     H     0.40760  0.40760  0.00000  0.18481
       8     C     3.15414  3.15414  0.00000 -0.30828
       9     H     0.40999  0.40999  0.00000  0.18002
      10     H     0.41351  0.41351  0.00000  0.17299
      11     C     3.23941  3.23941  0.00000 -0.47882
      12     H     0.42220  0.42220  0.00000  0.15560
      13     H     0.42366  0.42366  0.00000  0.15268
      14     H     0.41934  0.41934  0.00000  0.16131
      15     H     0.41845  0.41845  0.00000  0.16311
      16     H     0.42013  0.42013  0.00000  0.15975
      17     C     3.09332  3.09332  0.00000 -0.18664
      18     H     0.40757  0.40757  0.00000  0.18486
      19     H     0.40323  0.40323  0.00000  0.19354
      20     H     0.42265  0.42265  0.00000  0.15469

   Total alpha = 32.00000, Total beta = 32.00000, Total charge = -0.00000
