                              Psi4 1.0.54 Driver

  ==> Input File <==

--------------------------------------------------------------------------
set {
	reference rhf
	basis cc-pvtz
}

set_num_threads( 4 )
memory 2 gb

molecule MOL {
0 1

H	 -3.144994	 -1.202467	 -0.018751
O	 -2.321472	 -0.864941	 -0.318626
C	 -2.021813	 0.336996	 0.342658
C	 -0.669613	 0.837286	 -0.127252
H	 -2.780861	 1.084746	 0.127159
H	 -2.006390	 0.184138	 1.420053
C	 0.490865	 -0.082543	 0.241244
H	 -0.708709	 0.967192	 -1.204587
H	 -0.507562	 1.822272	 0.303070
C	 0.374848	 -1.469937	 -0.383484
H	 0.544582	 -0.173702	 1.320068
H	 1.425126	 0.376020	 -0.076559
C	 1.538198	 -2.387396	 -0.022001
H	 -0.557043	 -1.928985	 -0.064805
H	 0.313373	 -1.376214	 -1.464745
H	 1.604347	 -2.529197	 1.051514
H	 1.425726	 -3.364229	 -0.478566
H	 2.482950	 -1.972468	 -0.357744

	symmetry c1
}
set optking {
	frozen_dihedral = ("
		10 7 4 8
	")
}

ee,wfn = optimize('scf', return_wfn=True)
oeprop( wfn, 'DIPOLE', 'QUADRUPOLE', 'MULLIKEN_CHARGES')
f=open( 'psi4out.xyz', 'w' )
f.write( "18  " )
f.write( str(ee) + "\n" )
f.write( MOL.save_string_xyz() )
f.close()
--------------------------------------------------------------------------

    Molecular point group: c1
  Charge       = 0
  Multiplicity = 1
  Basis Set: CC-PVTZ
  Basis Set:
  @DF-RHF Final Energy:  -271.27830739782979
    Total Energy =                       -271.2783073978299626
    Molecular point group: c1
  Basis Set: CC-PVTZ
  Basis Set:
  Basis Set: CC-PVTZ
  Basis Set:
  @DF-RHF Final Energy:  -271.25658388498221
    Total Energy =                       -271.2565838849824331
  Basis Set: CC-PVTZ
  Basis Set:
  Basis Set: CC-PVTZ
  Basis Set:
  @DF-RHF Final Energy:  -271.28294837960448
    Total Energy =                       -271.2829483796044769
  Basis Set: CC-PVTZ
  Basis Set:
  Basis Set: CC-PVTZ
  Basis Set:
  @DF-RHF Final Energy:  -271.28362822808361
    Total Energy =                       -271.2836282280836713
  Basis Set: CC-PVTZ
  Basis Set:
  Basis Set: CC-PVTZ
  Basis Set:
  @DF-RHF Final Energy:  -271.28369886087950
    Total Energy =                       -271.2836988608796673
  Basis Set: CC-PVTZ
  Basis Set:
  Basis Set: CC-PVTZ
  Basis Set:
  @DF-RHF Final Energy:  -271.28371615678952
    Total Energy =                       -271.2837161567894668
  Basis Set: CC-PVTZ
  Basis Set:
  Basis Set: CC-PVTZ
  Basis Set:
  @DF-RHF Final Energy:  -271.28372081454495
    Total Energy =                       -271.2837208145448926
  Basis Set: CC-PVTZ
  Basis Set:
  Charge       = 0
  Multiplicity = 1
  Basis Set: CC-PVTZ
  Basis Set:

    Orbital Energies (a.u.)
    -----------------------

    Doubly Occupied:

       1A    -20.546856     2A    -11.267073     3A    -11.211965
       4A    -11.208233     5A    -11.200674     6A    -11.198989
       7A     -1.364894     8A     -1.073503     9A     -1.007640
      10A     -0.913877    11A     -0.826778    12A     -0.773890
      13A     -0.705523    14A     -0.651444    15A     -0.617777
      16A     -0.575832    17A     -0.573668    18A     -0.556889
      19A     -0.529442    20A     -0.507101    21A     -0.487249
      22A     -0.462927    23A     -0.454317    24A     -0.448081
      25A     -0.428325

  @DF-RHF Final Energy:  -271.28372150444557

   => Energetics <=

    Nuclear Repulsion Energy =            254.3886707716179671
    One-Electron Energy =                -872.1588911222212346
    Two-Electron Energy =                 346.4864988461575876
    DFT Exchange-Correlation Energy =       0.0000000000000000
    Empirical Dispersion Energy =           0.0000000000000000
    PCM Polarization Energy =               0.0000000000000000
    EFP Energy =                            0.0000000000000000
    Total Energy =                       -271.2837215044456798
    Molecular point group: c1
  Basis Set: CC-PVTZ
  Basis Set:

  -Total Gradient:
     Atom            X                  Y                   Z
    ------   -----------------  -----------------  -----------------
       1        0.000048043545     0.000043408072     0.000002246564
       2       -0.000014962366    -0.000011407925     0.000011284399
       3       -0.000031640547    -0.000018256839     0.000043536887
       4       -0.000866694348    -0.001372086175    -0.000285549128
       5        0.000040586738    -0.000012701119     0.000003545180
       6       -0.000009139651    -0.000002659139    -0.000013873567
       7        0.000841153365     0.000916229279    -0.000663739473
       8        0.000533696390     0.000956556749     0.000389736901
       9       -0.000009700777    -0.000040597696    -0.000015317304
      10       -0.000518732325    -0.000496904057     0.000538261753
      11       -0.000002082906     0.000004174415    -0.000011552857
      12       -0.000026395335    -0.000009203807    -0.000004310992
      13       -0.000016870650     0.000008216675    -0.000007531402
      14        0.000046209032     0.000029491490    -0.000004121427
      15       -0.000004349274     0.000009208260     0.000009090662
      16        0.000015345862     0.000002022193    -0.000009751466
      17       -0.000002567894     0.000018096600     0.000011726462
      18       -0.000021898862    -0.000023586974     0.000006318808

  **** Optimization is complete! (in 8 steps) ****
    Final optimized geometry and variables:
    Molecular point group: c1

    Geometry (in Angstrom), charge = 0, multiplicity = 1:

    H           -2.771282258666    -0.665686416501    -0.687727389458
    O           -1.926404677714    -0.261792836663    -0.760186381571
    C           -1.748551684199     0.667792493333     0.277471763735
    C           -0.394376179499     1.343798903932     0.149824042673
    H           -2.525787730073     1.426124090462     0.230276624516
    H           -1.828097895214     0.177908156237     1.246328653022
    C            0.826567627781     0.516350630453     0.559193325532
    H           -0.280610448216     1.701099589535    -0.869172043612
    H           -0.422237579944     2.228074333560     0.780759458317
    C            1.114904470849    -0.727352904594    -0.279802910335
    H            0.718049893320     0.223164409683     1.601697990132
    H            1.694783489039     1.169204670689     0.522709439810
    C            2.409796222655    -1.418099717324     0.136368065405
    H            0.290232357949    -1.423141860064    -0.204064882092
    H            1.174583160443    -0.447120980795    -1.327489749611
    H            2.370964394895    -1.732801458676     1.174547294870
    H            2.595136007370    -2.299261216748    -0.467374650805
    H            3.263375298077    -0.756956849343     0.026115817639

  Mulliken Charges: (a.u.)
   Center  Symbol    Alpha    Beta     Spin     Total
       1     H     0.39617  0.39617  0.00000  0.20766
       2     O     4.19724  4.19724  0.00000 -0.39447
       3     C     2.97762  2.97762  0.00000  0.04477
       4     C     3.09755  3.09755  0.00000 -0.19510
       5     H     0.46134  0.46134  0.00000  0.07731
       6     H     0.47201  0.47201  0.00000  0.05597
       7     C     3.09583  3.09583  0.00000 -0.19167
       8     H     0.45078  0.45078  0.00000  0.09844
       9     H     0.44859  0.44859  0.00000  0.10283
      10     C     3.07836  3.07836  0.00000 -0.15672
      11     H     0.45692  0.45692  0.00000  0.08616
      12     H     0.45106  0.45106  0.00000  0.09788
      13     C     3.15054  3.15054  0.00000 -0.30108
      14     H     0.44822  0.44822  0.00000  0.10357
      15     H     0.45430  0.45430  0.00000  0.09139
      16     H     0.45747  0.45747  0.00000  0.08506
      17     H     0.44902  0.44902  0.00000  0.10197
      18     H     0.45699  0.45699  0.00000  0.08603

   Total alpha = 25.00000, Total beta = 25.00000, Total charge = -0.00000

*** Psi4 exiting successfully. Buy a developer a beer!
