  ==> Input File <==

--------------------------------------------------------------------------
set {
	reference rhf
	basis 6-31G*
}

set_num_threads( 4 )
memory 2 gb

molecule MOL {
0 1

H	 -3.161837	 0.500524	 -0.000234
C	 -2.367097	 -0.232926	 -0.000000
O	 -1.158440	 0.455814	 -0.000122
H	 -2.468853	 -0.861886	 -0.882833
H	 -2.468942	 -0.861421	 0.883154
C	 -0.038095	 -0.350520	 0.206096
C	 1.204841	 0.521957	 0.182548
H	 0.021594	 -1.115606	 -0.569133
H	 -0.119190	 -0.868264	 1.162795
C	 2.486552	 -0.280763	 0.401040
H	 1.244362	 1.039117	 -0.771205
H	 1.104648	 1.284712	 0.948620
H	 2.618461	 -1.034680	 -0.370085
H	 3.357019	 0.366295	 0.379875
H	 2.477488	 -0.788001	 1.361785

	symmetry c1
}
set optking {
	frozen_dihedral = ("
		6 3 2 4
	")
}

ee = optimize('scf')
oeprop('DIPOLE', 'QUADRUPOLE', 'MULLIKEN_CHARGES')
f=open( 'psi4out.xyz', 'w' )
f.write( "15  " )
f.write( str(ee) + "\n" )
f.write( MOL.save_string_xyz() )
f.close()
--------------------------------------------------------------------------

    Molecular point group: c1
  Charge       = 0
  Multiplicity = 1
  Basis Set: 6-31G*
  Basis Set:
  @DF-RHF Final Energy:  -232.13921717595505
    Total Energy =                       -232.1392171759550820
    Molecular point group: c1
  Basis Set: 6-31G*
  Basis Set:
  Basis Set: 6-31G*
  Basis Set:
  @DF-RHF Final Energy:  -232.13922726037427
    Total Energy =                       -232.1392272603742413
  Basis Set: 6-31G*
  Basis Set:
  Charge       = 0
  Multiplicity = 1
  Basis Set: 6-31G*
  Basis Set:

    Orbital Energies (a.u.)
    -----------------------

    Doubly Occupied:

       1A    -20.553233     2A    -11.266288     3A    -11.263922
       4A    -11.214248     5A    -11.212931     6A     -1.378003
       7A     -1.057268     8A     -0.955355     9A     -0.877209
      10A     -0.809052    11A     -0.674731    12A     -0.653737
      13A     -0.630082    14A     -0.607780    15A     -0.565293
      16A     -0.541751    17A     -0.502751    18A     -0.488716
      19A     -0.478158    20A     -0.461348    21A     -0.413616

  @DF-RHF Final Energy:  -232.13922820017919

   => Energetics <=

    Nuclear Repulsion Energy =            189.7013678445161702
    One-Electron Energy =                -690.4702484149333941
    Two-Electron Energy =                 268.6296523702382046
    DFT Exchange-Correlation Energy =       0.0000000000000000
    Empirical Dispersion Energy =           0.0000000000000000
    PCM Polarization Energy =               0.0000000000000000
    EFP Energy =                            0.0000000000000000
    Total Energy =                       -232.1392282001789908
    Molecular point group: c1
  Basis Set: 6-31G*
  Basis Set:

  -Total Gradient:
     Atom            X                  Y                   Z
    ------   -----------------  -----------------  -----------------
       1       -0.000005668105    -0.000012965221    -0.000007311333
       2        0.000748801200    -0.001321415522     0.001327381130
       3       -0.000042821713     0.000042178277    -0.001781375880
       4       -0.000629281794     0.001098454116    -0.000709601514
       5        0.000024606257     0.000023916014     0.000020349979
       6       -0.000094486996     0.000169414045     0.001191671807
       7       -0.000010618830     0.000002352327    -0.000010365189
       8       -0.000002881715     0.000008854531    -0.000013045062
       9        0.000013199160    -0.000012659939    -0.000001696788
      10       -0.000004539972    -0.000007407970    -0.000016484493
      11        0.000015525932     0.000009962030    -0.000002308806
      12       -0.000009474697    -0.000002389500     0.000001178536
      13        0.000001867746    -0.000003556509     0.000003529581
      14       -0.000001648420     0.000001747876    -0.000003031184
      15       -0.000002578052     0.000003515446     0.000001109217

  **** Optimization is complete! (in 3 steps) ****
    Final optimized geometry and variables:
    Molecular point group: c1

    Geometry (in Angstrom), charge = 0, multiplicity = 1:

    H           -3.155561374455     0.490675762695    -0.163042540460
    C           -2.361817511521    -0.244343827986    -0.157278418338
    O           -1.152372238003     0.443585994933    -0.152839101720
    H           -2.462610225751    -0.867584568975    -1.044187034782
    H           -2.471246919585    -0.870944033857     0.725708999392
    C           -0.030860106810    -0.362812099240     0.048935516979
    C            1.211104172608     0.510977029566     0.023798634046
    H            0.028731737527    -1.126844718323    -0.727491666258
    H           -0.110365514150    -0.881351384064     1.005068787659
    C            2.493807576197    -0.290288987020     0.242084528225
    H            1.249631025072     1.027809730888    -0.930181908815
    H            1.110351661478     1.273933382112     0.789617630538
    H            2.625470775000    -1.045232694483    -0.528075296577
    H            3.363797543803     0.357381060587     0.218922381922
    H            2.486237979647    -0.796267283949     1.203523206817

  Mulliken Charges: (a.u.)
   Center  Symbol    Alpha    Beta     Spin     Total
       1     H     0.41257  0.41257  0.00000  0.17486
       2     C     3.07911  3.07911  0.00000 -0.15822
       3     O     4.30610  4.30610  0.00000 -0.61220
       4     H     0.42949  0.42949  0.00000  0.14102
       5     H     0.43087  0.43087  0.00000  0.13825
       6     C     2.98150  2.98150  0.00000  0.03700
       7     C     3.15985  3.15985  0.00000 -0.31970
       8     H     0.43366  0.43366  0.00000  0.13268
       9     H     0.43314  0.43314  0.00000  0.13372
      10     C     3.24791  3.24791  0.00000 -0.49582
      11     H     0.41434  0.41434  0.00000  0.17132
      12     H     0.41432  0.41432  0.00000  0.17135
      13     H     0.42084  0.42084  0.00000  0.15831
      14     H     0.41541  0.41541  0.00000  0.16917
      15     H     0.42087  0.42087  0.00000  0.15825

   Total alpha = 21.00000, Total beta = 21.00000, Total charge = -0.00000
