  ==> Input File <==

--------------------------------------------------------------------------
set {
	reference rhf
	basis 6-31G*
}

set_num_threads( 4 )
memory 2 gb

molecule MOL {
0 1

H	 -0.483287	 6.967198	 2.070064
C	 -1.428272	 6.436723	 2.005852
C	 -1.259531	 5.090966	 1.301835
H	 -1.801901	 6.303094	 3.016736
H	 -2.130045	 7.074069	 1.474717
C	 -2.575983	 4.319055	 1.188164
H	 -0.534461	 4.491861	 1.843083
H	 -0.851606	 5.255054	 0.305660
C	 -2.441801	 2.975302	 0.471512
H	 -2.985712	 4.151062	 2.177884
H	 -3.297579	 4.925357	 0.645266
C	 -1.701888	 1.911048	 1.268465
H	 -3.430662	 2.571780	 0.259162
H	 -1.960250	 3.097286	 -0.496168
C	 -1.181045	 0.701995	 0.511084
O	 -1.548630	 2.007054	 2.449016
C	 -2.285934	 -0.139295	 -0.145128
H	 -0.623278	 0.100860	 1.219072
H	 -0.487534	 1.045637	 -0.254186
C	 -3.651768	 0.085446	 0.506485
H	 -2.346596	 0.110469	 -1.202272
H	 -2.034737	 -1.195320	 -0.088721
C	 -4.759797	 -0.746382	 -0.137905
H	 -3.908762	 1.140117	 0.445781
H	 -3.588286	 -0.154158	 1.565709
H	 -4.868882	 -0.505166	 -1.191300
H	 -4.548009	 -1.809175	 -0.062213
H	 -5.715422	 -0.564821	 0.343442

	symmetry c1
}
set optking {
	frozen_dihedral = ("
		12 15 17 21
	")
}

ee = optimize('scf')
oeprop('DIPOLE', 'QUADRUPOLE', 'MULLIKEN_CHARGES')
f=open( 'psi4out.xyz', 'w' )
f.write( "28  " )
f.write( str(ee) + "\n" )
f.write( MOL.save_string_xyz() )
f.close()
--------------------------------------------------------------------------

    Molecular point group: c1
  Charge       = 0
  Multiplicity = 1
  Basis Set: 6-31G*
  Basis Set:
  @DF-RHF Final Energy:  -426.14956022589092
    Total Energy =                       -426.1495602258910367
    Molecular point group: c1
  Basis Set: 6-31G*
  Basis Set:
  Basis Set: 6-31G*
  Basis Set:
  @DF-RHF Final Energy:  -426.15932890583952
    Total Energy =                       -426.1593289058392884
  Basis Set: 6-31G*
  Basis Set:
  Basis Set: 6-31G*
  Basis Set:
  @DF-RHF Final Energy:  -426.16192868747203
    Total Energy =                       -426.1619286874725958
  Basis Set: 6-31G*
  Basis Set:
  Basis Set: 6-31G*
  Basis Set:
  @DF-RHF Final Energy:  -426.16118149494253
    Total Energy =                       -426.1611814949426389
  Basis Set: 6-31G*
  Basis Set:
  @DF-RHF Final Energy:  -426.16316583859634
    Total Energy =                       -426.1631658385965693
  @DF-RHF Final Energy:  -426.16358548812639
    Total Energy =                       -426.1635854881263867
  @DF-RHF Final Energy:  -426.16374841710035
    Total Energy =                       -426.1637484171008055
  Basis Set: 6-31G*
  Basis Set:
  @DF-RHF Final Energy:  -426.16373446227760
    Total Energy =                       -426.1637344622772616
  Basis Set: 6-31G*
  Basis Set:
  Basis Set: 6-31G*
  Basis Set:
  @DF-RHF Final Energy:  -426.16377335907487
    Total Energy =                       -426.1637733590753214
  Basis Set: 6-31G*
  Basis Set:
  Basis Set: 6-31G*
  Basis Set:
  @DF-RHF Final Energy:  -426.16377469945189
    Total Energy =                       -426.1637746994516647
  Basis Set: 6-31G*
  Basis Set:
  Charge       = 0
  Multiplicity = 1
  Basis Set: 6-31G*
  Basis Set:

    Orbital Energies (a.u.)
    -----------------------

    Doubly Occupied:

       1A    -20.548646     2A    -11.322523     3A    -11.231262
       4A    -11.230546     5A    -11.228635     6A    -11.221126
       7A    -11.216414     8A    -11.213229     9A    -11.209884
      10A    -11.204456    11A     -1.394103    12A     -1.090461
      13A     -1.075675    14A     -1.020206    15A     -0.989959
      16A     -0.907632    17A     -0.871930    18A     -0.812639
      19A     -0.794760    20A     -0.720119    21A     -0.663011
      22A     -0.651647    23A     -0.628128    24A     -0.615217
      25A     -0.607303    26A     -0.583646    27A     -0.579242
      28A     -0.570750    29A     -0.553577    30A     -0.531740
      31A     -0.515771    32A     -0.507719    33A     -0.496250
      34A     -0.486959    35A     -0.475036    36A     -0.468073
      37A     -0.464718    38A     -0.462352    39A     -0.455895
      40A     -0.392064

  @DF-RHF Final Energy:  -426.16377523209269

   => Energetics <=

    Nuclear Repulsion Energy =            543.6696702531127130
    One-Electron Energy =               -1655.6402938344072027
    Two-Electron Energy =                 685.8068483492021414
    DFT Exchange-Correlation Energy =       0.0000000000000000
    Empirical Dispersion Energy =           0.0000000000000000
    PCM Polarization Energy =               0.0000000000000000
    EFP Energy =                            0.0000000000000000
    Total Energy =                       -426.1637752320924619
    Molecular point group: c1
  Basis Set: 6-31G*
  Basis Set:

  -Total Gradient:
     Atom            X                  Y                   Z
    ------   -----------------  -----------------  -----------------
       1        0.000001398217     0.000011304880    -0.000004044783
       2        0.000007121871     0.000014645931    -0.000003912577
       3       -0.000018603812    -0.000009432921     0.000010074145
       4        0.000007755851    -0.000007396483     0.000002598579
       5       -0.000004259851    -0.000004416835    -0.000003505507
       6        0.000022969166     0.000047949284     0.000003395670
       7       -0.000016294605     0.000011521761     0.000015846662
       8        0.000000968361    -0.000013782580    -0.000002855650
       9       -0.000041961084    -0.000014313486    -0.000083105536
      10        0.000014709408    -0.000016943797    -0.000007585173
      11       -0.000000018232     0.000011884390     0.000016513124
      12        0.000297704570    -0.002154415053     0.003706670005
      13        0.000005832624    -0.000002717734     0.000005789014
      14       -0.000001971346    -0.000004393994     0.000022085805
      15        0.000446632724     0.001975484911    -0.005619547648
      16       -0.000002481094    -0.000018885835     0.000068765066
      17       -0.004342252572     0.004529513261     0.003432326077
      18       -0.000016135418     0.000001219263    -0.000000744299
      19       -0.000001811252    -0.000010372961    -0.000019295969
      20        0.000019657990    -0.000011966791     0.000024585845
      21        0.003613916261    -0.004312017043    -0.001569881010
      22        0.000002057842    -0.000017320327     0.000007861650
      23       -0.000010199956    -0.000002301357    -0.000014413331
      24        0.000019394591    -0.000011507239     0.000001215208
      25       -0.000007581523     0.000008504750     0.000005704407
      26        0.000007442966    -0.000003965406     0.000008162908
      27       -0.000004638604    -0.000000826672     0.000004967024
      28        0.000000646903     0.000004948083    -0.000007669710

  **** Optimization is complete! (in 11 steps) ****
    Final optimized geometry and variables:
    Molecular point group: c1

    Geometry (in Angstrom), charge = 0, multiplicity = 1:

    H            1.545288098068     4.617324393906     1.880201288813
    C            0.686824896747     4.129488204929     1.428962279845
    C            1.105471578638     2.879377946596     0.656247362740
    H           -0.008066521324     3.880582796455     2.225665241443
    H            0.200277571340     4.851425269048     0.778448886652
    C           -0.081335365294     2.174941889974    -0.005396255377
    H            1.605560377381     2.190496315930     1.327378858887
    H            1.828580367702     3.156206648020    -0.109446798105
    C            0.304008443040     0.927527057032    -0.800342071265
    H           -0.809653674271     1.902402564653     0.751544299822
    H           -0.574338335427     2.871688310826    -0.679695227466
    C            0.656128513663    -0.287732175101     0.040635802472
    H           -0.507784066241     0.630825945054    -1.463277693380
    H            1.147584035716     1.134564661961    -1.457114992849
    C            1.016633344303    -1.561241426756    -0.708325050385
    O            0.636878953536    -0.267250623028     1.234378537704
    C           -0.203094538184    -2.433445632958    -1.110672648203
    H            1.650399714767    -2.125765237018    -0.035202140961
    H            1.599457113496    -1.324434917444    -1.592524486930
    C           -1.449542140820    -2.307614863742    -0.231909529006
    H           -0.448335505039    -2.262219620473    -2.155759312337
    H            0.128994698639    -3.467909531695    -1.079359842007
    C           -2.537828475327    -3.301336022606    -0.636457389462
    H           -1.851883166970    -1.299413134133    -0.289306376180
    H           -1.176268531273    -2.464303384403     0.806888807579
    H           -2.846345060242    -3.150210313144    -1.667204041421
    H           -2.188614240518    -4.325641304405    -0.543066286072
    H           -3.416619485894    -3.193243438615    -0.008952542446

  Mulliken Charges: (a.u.)
   Center  Symbol    Alpha    Beta     Spin     Total
       1     H     0.41940  0.41940  0.00000  0.16121
       2     C     3.24034  3.24034  0.00000 -0.48069
       3     C     3.15604  3.15604  0.00000 -0.31207
       4     H     0.41895  0.41895  0.00000  0.16209
       5     H     0.42424  0.42424  0.00000  0.15152
       6     C     3.14880  3.14880  0.00000 -0.29761
       7     H     0.40597  0.40597  0.00000  0.18807
       8     H     0.42825  0.42825  0.00000  0.14350
       9     C     3.21248  3.21248  0.00000 -0.42497
      10     H     0.41017  0.41017  0.00000  0.17965
      11     H     0.42213  0.42213  0.00000  0.15574
      12     C     2.73417  2.73417  0.00000  0.53165
      13     H     0.40667  0.40667  0.00000  0.18666
      14     H     0.40907  0.40907  0.00000  0.18186
      15     C     3.19961  3.19961  0.00000 -0.39923
      16     O     4.26798  4.26798  0.00000 -0.53596
      17     C     3.15947  3.15947  0.00000 -0.31893
      18     H     0.40051  0.40051  0.00000  0.19897
      19     H     0.41305  0.41305  0.00000  0.17389
      20     C     3.16128  3.16128  0.00000 -0.32256
      21     H     0.41902  0.41902  0.00000  0.16196
      22     H     0.41434  0.41434  0.00000  0.17131
      23     C     3.24035  3.24035  0.00000 -0.48070
      24     H     0.42196  0.42196  0.00000  0.15608
      25     H     0.40688  0.40688  0.00000  0.18624
      26     H     0.42221  0.42221  0.00000  0.15558
      27     H     0.42042  0.42042  0.00000  0.15916
      28     H     0.41623  0.41623  0.00000  0.16754

   Total alpha = 40.00000, Total beta = 40.00000, Total charge =  0.00000
