  ==> Input File <==

--------------------------------------------------------------------------
set {
	reference rhf
	basis 6-31G*
}

set_num_threads( 4 )
memory 2 gb

molecule MOL {
0 1

H	 1.148083	 -1.049780	 0.784252
O	 1.319262	 -0.618148	 -0.041729
C	 0.709265	 0.639550	 -0.033818
C	 0.195837	 1.067984	 1.315781
H	 -0.115339	 0.580105	 -0.735029
H	 1.388055	 1.401288	 -0.415949
C	 0.146507	 0.304987	 2.389171
H	 -0.153972	 2.087542	 1.366939
H	 0.469205	 -0.720160	 2.369973
H	 -0.232992	 0.677789	 3.323504

	symmetry c1
}
set optking {
	frozen_dihedral = ("
		5 3 2 1
	")
}

ee = optimize('scf')
oeprop('DIPOLE', 'QUADRUPOLE', 'MULLIKEN_CHARGES')
f=open( 'psi4out.xyz', 'w' )
f.write( "10  " )
f.write( str(ee) + "\n" )
f.write( MOL.save_string_xyz() )
f.close()
--------------------------------------------------------------------------

    Molecular point group: c1
  Charge       = 0
  Multiplicity = 1
  Basis Set: 6-31G*
  Basis Set:
  @DF-RHF Final Energy:  -191.90974000786869
    Total Energy =                       -191.9097400078686348
    Molecular point group: c1
  Basis Set: 6-31G*
  Basis Set:
  Basis Set: 6-31G*
  Basis Set:
  @DF-RHF Final Energy:  -191.91114891017753
    Total Energy =                       -191.9111489101776158
  Basis Set: 6-31G*
  Basis Set:
  Basis Set: 6-31G*
  Basis Set:
  @DF-RHF Final Energy:  -191.91213935482241
    Total Energy =                       -191.9121393548224148
  Basis Set: 6-31G*
  Basis Set:
  Basis Set: 6-31G*
  Basis Set:
  @DF-RHF Final Energy:  -191.91256194860500
    Total Energy =                       -191.9125619486050027
  Basis Set: 6-31G*
  Basis Set:
  @DF-RHF Final Energy:  -191.91275377862908
    Total Energy =                       -191.9127537786290247
  @DF-RHF Final Energy:  -191.91288138243050
    Total Energy =                       -191.9128813824304984
  @DF-RHF Final Energy:  -191.91297845723741
    Total Energy =                       -191.9129784572373296
  Basis Set: 6-31G*
  Basis Set:
  @DF-RHF Final Energy:  -191.91310403085180
    Total Energy =                       -191.9131040308517981
  Basis Set: 6-31G*
  Basis Set:
  Basis Set: 6-31G*
  Basis Set:
  @DF-RHF Final Energy:  -191.91310812494953
    Total Energy =                       -191.9131081249495878
  Basis Set: 6-31G*
  Basis Set:
  Basis Set: 6-31G*
  Basis Set:
  @DF-RHF Final Energy:  -191.91310966758408
    Total Energy =                       -191.9131096675841093
  Basis Set: 6-31G*
  Basis Set:
  Charge       = 0
  Multiplicity = 1
  Basis Set: 6-31G*
  Basis Set:

    Orbital Energies (a.u.)
    -----------------------

    Doubly Occupied:

       1A    -20.555770     2A    -11.278125     3A    -11.242130
       4A    -11.230329     5A     -1.365460     6A     -1.065777
       7A     -0.933920     8A     -0.776762     9A     -0.687361
      10A     -0.656658    11A     -0.625524    12A     -0.570578
      13A     -0.555839    14A     -0.482259    15A     -0.451217
      16A     -0.371639

  @DF-RHF Final Energy:  -191.91310972935315

   => Energetics <=

    Nuclear Repulsion Energy =            119.2473903406852855
    One-Electron Energy =                -496.6223063178530310
    Two-Electron Energy =                 185.4618062478146783
    DFT Exchange-Correlation Energy =       0.0000000000000000
    Empirical Dispersion Energy =           0.0000000000000000
    PCM Polarization Energy =               0.0000000000000000
    EFP Energy =                            0.0000000000000000
    Total Energy =                       -191.9131097293530672
    Molecular point group: c1
  Basis Set: 6-31G*
  Basis Set:

  -Total Gradient:
     Atom            X                  Y                   Z
    ------   -----------------  -----------------  -----------------
       1        0.003124370492     0.000909477958     0.002353859629
       2       -0.003162848395    -0.000848716040    -0.003399230535
       3       -0.002644692302    -0.001142940566     0.002977556953
       4        0.000030700225     0.000016519566     0.000003788670
       5        0.002675087220     0.001069932680    -0.001945111206
       6       -0.000011389352     0.000000605271     0.000009107817
       7        0.000018821679     0.000016984145     0.000007729242
       8       -0.000008136274    -0.000003322568    -0.000003290063
       9       -0.000005235914    -0.000004738822    -0.000000021978
      10       -0.000016677380    -0.000013801625    -0.000004388525

  **** Optimization is complete! (in 11 steps) ****
    Final optimized geometry and variables:
    Molecular point group: c1

    Geometry (in Angstrom), charge = 0, multiplicity = 1:

    H            0.231719699016    -1.483835991337    -0.271156488053
    O            0.603042262872    -0.960292918837    -0.965248831999
    C            0.145332550617     0.359148926716    -0.869521164362
    C           -0.509016550186     0.720497579151     0.437879104024
    H           -0.532921246267     0.566471651214    -1.693406977211
    H            1.001744685396     1.011604570510    -1.019870624267
    C           -0.355191795097     0.088093195233     1.584756219566
    H           -1.138741912779     1.594780641947     0.401782469111
    H            0.284015212718    -0.771100808468     1.696145443655
    H           -0.857003834903     0.418548857334     2.475772857737

  Mulliken Charges: (a.u.)
   Center  Symbol    Alpha    Beta     Spin     Total
       1     H     0.27732  0.27732  0.00000  0.44536
       2     O     4.37554  4.37554  0.00000 -0.75108
       3     C     2.98781  2.98781  0.00000  0.02439
       4     C     3.09523  3.09523  0.00000 -0.19046
       5     H     0.42184  0.42184  0.00000  0.15633
       6     H     0.41320  0.41320  0.00000  0.17360
       7     C     3.20473  3.20473  0.00000 -0.40946
       8     H     0.40518  0.40518  0.00000  0.18964
       9     H     0.41284  0.41284  0.00000  0.17432
      10     H     0.40632  0.40632  0.00000  0.18736

   Total alpha = 16.00000, Total beta = 16.00000, Total charge = -0.00000
