                              Psi4 1.0.54 Driver

  ==> Input File <==

--------------------------------------------------------------------------
set {
	reference rhf
	basis cc-pvtz
}

set_num_threads( 4 )
memory 2 gb

molecule MOL {
0 1

O	 1.847685	 1.294399	 -0.000190
C	 1.704209	 0.119472	 -0.000093
C	 0.380337	 -0.600947	 -0.000234
O	 2.715427	 -0.733672	 0.000025
C	 -0.824290	 0.329213	 -0.000115
H	 0.371455	 -1.255476	 -0.865660
H	 0.371410	 -1.255787	 0.864952
C	 -2.146151	 -0.432825	 -0.000068
H	 -0.773936	 0.979158	 -0.866319
H	 -0.773838	 0.979034	 0.866186
C	 -3.366283	 0.483552	 0.000557
H	 -2.189286	 -1.084450	 -0.869996
H	 -2.188867	 -1.085083	 0.869399
C	 -4.319753	 0.212347	 -1.158216
H	 -3.036903	 1.518047	 -0.038006
H	 -3.899135	 0.369353	 0.940338
H	 -3.824906	 0.352152	 -2.113629
H	 -5.173601	 0.879256	 -1.128053
H	 -4.694268	 -0.805503	 -1.127332
C	 4.020999	 -0.192556	 0.000019
H	 4.182809	 0.412891	 -0.879449
H	 4.692590	 -1.035653	 0.000152
H	 4.182726	 0.413087	 0.879368

	symmetry c1
}
set optking {
	frozen_dihedral = ("
		15 11 8 12
	")
}

ee,wfn = optimize('scf', return_wfn=True)
oeprop( wfn, 'DIPOLE', 'QUADRUPOLE', 'MULLIKEN_CHARGES')
f=open( 'psi4out.xyz', 'w' )
f.write( "23  " )
f.write( str(ee) + "\n" )
f.write( MOL.save_string_xyz() )
f.close()
--------------------------------------------------------------------------

    Molecular point group: c1
  Charge       = 0
  Multiplicity = 1
  Basis Set: CC-PVTZ
  Basis Set:
  @DF-RHF Final Energy:  -423.12531555092642
    Total Energy =                       -423.1253155509261887
    Molecular point group: c1
  Basis Set: CC-PVTZ
  Basis Set:
  Basis Set: CC-PVTZ
  Basis Set:
  @DF-RHF Final Energy:  -423.12554781896290
    Total Energy =                       -423.1255478189631276
  Basis Set: CC-PVTZ
  Basis Set:
  Basis Set: CC-PVTZ
  Basis Set:
  @DF-RHF Final Energy:  -423.12561027668249
    Total Energy =                       -423.1256102766826643
  Basis Set: CC-PVTZ
  Basis Set:
  Charge       = 0
  Multiplicity = 1
  Basis Set: CC-PVTZ
  Basis Set:

    Orbital Energies (a.u.)
    -----------------------

    Doubly Occupied:

       1A    -20.596317     2A    -20.534126     3A    -11.364620
       4A    -11.278488     5A    -11.233610     6A    -11.217736
       7A    -11.215541     8A    -11.214206     9A    -11.208048
      10A     -1.472215    11A     -1.365786    12A     -1.093066
      13A     -1.043146    14A     -0.987899    15A     -0.932328
      16A     -0.845985    17A     -0.795032    18A     -0.769583
      19A     -0.699059    20A     -0.686593    21A     -0.675773
      22A     -0.645637    23A     -0.612968    24A     -0.599978
      25A     -0.579268    26A     -0.566426    27A     -0.545165
      28A     -0.527306    29A     -0.523233    30A     -0.504085
      31A     -0.493829    32A     -0.469536    33A     -0.462689
      34A     -0.461089    35A     -0.455892    36A     -0.438174

  @DF-RHF Final Energy:  -423.12561004012025

   => Energetics <=

    Nuclear Repulsion Energy =            453.7435186990322791
    One-Electron Energy =               -1475.5093986520457747
    Two-Electron Energy =                 598.6402699128930180
    DFT Exchange-Correlation Energy =       0.0000000000000000
    Empirical Dispersion Energy =           0.0000000000000000
    PCM Polarization Energy =               0.0000000000000000
    EFP Energy =                            0.0000000000000000
    Total Energy =                       -423.1256100401204776
    Molecular point group: c1
  Basis Set: CC-PVTZ
  Basis Set:

  -Total Gradient:
     Atom            X                  Y                   Z
    ------   -----------------  -----------------  -----------------
       1        0.000011357222    -0.000012150056     0.000190944702
       2       -0.000003707401    -0.000016051931    -0.000524204806
       3       -0.000008833985    -0.000007090497     0.000154926250
       4        0.000013909009     0.000021267476     0.000148861018
       5       -0.000003938215    -0.000003809490     0.000015844527
       6        0.000034366135     0.000019948674     0.000007199418
       7       -0.000025203686    -0.000017226045     0.000000087232
       8        0.000688754473     0.001000381574    -0.000485616608
       9       -0.000013236179    -0.000004082987     0.000005387414
      10       -0.000012819419     0.000001883745    -0.000002653605
      11       -0.000140230556    -0.000250124431    -0.001283766708
      12       -0.000575049293    -0.000778017437     0.000615593889
      13        0.000011009800     0.000006469043     0.000000230030
      14       -0.000020452685     0.000002975309    -0.000001755682
      15        0.000022749234     0.000033898580     0.001143201452
      16       -0.000007988988    -0.000003502991    -0.000012257636
      17        0.000008937414     0.000001319769     0.000012149991
      18       -0.000006449534     0.000005490722     0.000003893721
      19        0.000009430922     0.000002792833     0.000003318867
      20        0.000012005117    -0.000006497523     0.000005402553
      21       -0.000004906712    -0.000001467713     0.000000719093
      22        0.000005105217     0.000002687487     0.000002686062
      23        0.000005192112     0.000000905891    -0.000000191176

  **** Optimization is complete! (in 4 steps) ****
    Final optimized geometry and variables:
    Molecular point group: c1

    Geometry (in Angstrom), charge = 0, multiplicity = 1:

    O            1.810798280757     1.236693118415     0.133455872419
    C            1.667481696020     0.061727779917     0.133733068722
    C            0.343637895638    -0.658739346528     0.132160567342
    O            2.678934787030    -0.791164918944     0.138974309315
    C           -0.860730168278     0.271209917555     0.129171499827
    H            0.336158352431    -1.314290031630    -0.732557608626
    H            0.333088478302    -1.312654965654     0.998056698831
    C           -2.183856127722    -0.489833459868     0.125184368389
    H           -0.809704299755     0.921812845296    -0.736760561135
    H           -0.813916009810     0.921122583317     0.995686620371
    C           -3.421166876454     0.431033497572     0.127396506047
    H           -2.219132649794    -1.144884965711    -0.740920181797
    H           -2.216312123340    -1.148078389960     0.988388951846
    C           -4.388532669414     0.158402565613    -1.020130769481
    H           -3.102314058794     1.467444880863     0.087425949780
    H           -3.951883295324     0.325839521532     1.067577520754
    H           -3.903289518664     0.298453450077    -1.980558031173
    H           -5.243520715612     0.823742614000    -0.980359511104
    H           -4.759510474492    -0.860607081842    -0.984503163454
    C            3.984334653156    -0.249798903905     0.142690499269
    H            4.149244201051     0.354136026288    -0.737257157695
    H            4.656169297875    -1.092713059574     0.146707925519
    H            4.142876340190     0.357446775735     1.021528751004

  Mulliken Charges: (a.u.)
   Center  Symbol    Alpha    Beta     Spin     Total
       1     O     4.19696  4.19696  0.00000 -0.39392
       2     C     2.80618  2.80618  0.00000  0.38765
       3     C     3.10279  3.10279  0.00000 -0.20559
       4     O     4.14651  4.14651  0.00000 -0.29301
       5     C     3.08419  3.08419  0.00000 -0.16838
       6     H     0.43981  0.43981  0.00000  0.12038
       7     H     0.44017  0.44017  0.00000  0.11965
       8     C     3.09633  3.09633  0.00000 -0.19265
       9     H     0.44597  0.44597  0.00000  0.10805
      10     H     0.44518  0.44518  0.00000  0.10964
      11     C     3.08912  3.08912  0.00000 -0.17824
      12     H     0.45521  0.45521  0.00000  0.08957
      13     H     0.45123  0.45123  0.00000  0.09754
      14     C     3.14725  3.14725  0.00000 -0.29449
      15     H     0.45161  0.45161  0.00000  0.09677
      16     H     0.45046  0.45046  0.00000  0.09907
      17     H     0.45525  0.45525  0.00000  0.08950
      18     H     0.44912  0.44912  0.00000  0.10176
      19     H     0.45491  0.45491  0.00000  0.09017
      20     C     3.03768  3.03768  0.00000 -0.07537
      21     H     0.45437  0.45437  0.00000  0.09127
      22     H     0.44534  0.44534  0.00000  0.10931
      23     H     0.45434  0.45434  0.00000  0.09131

   Total alpha = 36.00000, Total beta = 36.00000, Total charge = -0.00000

*** Psi4 exiting successfully. Buy a developer a beer!
