                              Psi4 1.0.54 Driver

  ==> Input File <==

--------------------------------------------------------------------------
set {
	reference rhf
	basis cc-pvtz
}

set_num_threads( 4 )
memory 2 gb

molecule MOL {
0 1

O	 0.074770	 1.259872	 0.000487
C	 0.029490	 0.077183	 0.000078
C	 -1.232113	 -0.748027	 0.000015
O	 1.106773	 -0.690081	 -0.000204
C	 -2.501422	 0.088592	 -0.000052
H	 -1.188777	 -1.400384	 -0.865133
H	 -1.188857	 -1.400312	 0.865225
H	 -2.548170	 0.725504	 -0.873205
H	 -3.371613	 -0.556398	 -0.000040
H	 -2.548215	 0.725571	 0.873047
C	 0.917944	 -2.073670	 -0.218537
H	 0.288314	 -2.498307	 0.549242
H	 1.899532	 -2.517536	 -0.182581
H	 0.464577	 -2.248917	 -1.182898

	symmetry c1
}
set optking {
	frozen_dihedral = ("
		11 4 2 3
	")
}

ee,wfn = optimize('scf', return_wfn=True)
oeprop( wfn, 'DIPOLE', 'QUADRUPOLE', 'MULLIKEN_CHARGES')
f=open( 'psi4out.xyz', 'w' )
f.write( "14  " )
f.write( str(ee) + "\n" )
f.write( MOL.save_string_xyz() )
f.close()
--------------------------------------------------------------------------

    Molecular point group: c1
  Charge       = 0
  Multiplicity = 1
  Basis Set: CC-PVTZ
  Basis Set:
  @DF-RHF Final Energy:  -305.96221845245577
    Total Energy =                       -305.9622184524558861
    Molecular point group: c1
  Basis Set: CC-PVTZ
  Basis Set:
  Basis Set: CC-PVTZ
  Basis Set:
  @DF-RHF Final Energy:  -305.94351784638815
    Total Energy =                       -305.9435178463880334
  Basis Set: CC-PVTZ
  Basis Set:
  Basis Set: CC-PVTZ
  Basis Set:
  @DF-RHF Final Energy:  -305.96969098649572
    Total Energy =                       -305.9696909864958343
  Basis Set: CC-PVTZ
  Basis Set:
  Basis Set: CC-PVTZ
  Basis Set:
  @DF-RHF Final Energy:  -305.97263839657472
    Total Energy =                       -305.9726383965746095
  Basis Set: CC-PVTZ
  Basis Set:
  @DF-RHF Final Energy:  -305.97298211897481
    Total Energy =                       -305.9729821189748691
  @DF-RHF Final Energy:  -305.97252563514019
    Total Energy =                       -305.9725256351400162
  Basis Set: CC-PVTZ
  Basis Set:
  @DF-RHF Final Energy:  -305.97335074860450
    Total Energy =                       -305.9733507486046165
  Basis Set: CC-PVTZ
  Basis Set:
  Basis Set: CC-PVTZ
  Basis Set:
  @DF-RHF Final Energy:  -305.97337363949782
    Total Energy =                       -305.9733736394978791
  Basis Set: CC-PVTZ
  Basis Set:
  Basis Set: CC-PVTZ
  Basis Set:
  @DF-RHF Final Energy:  -305.97337782943413
    Total Energy =                       -305.9733778294339572
  Basis Set: CC-PVTZ
  Basis Set:
  Charge       = 0
  Multiplicity = 1
  Basis Set: CC-PVTZ
  Basis Set:

    Orbital Energies (a.u.)
    -----------------------

    Doubly Occupied:

       1A    -20.595801     2A    -20.528621     3A    -11.366836
       4A    -11.294096     5A    -11.247041     6A    -11.218968
       7A     -1.466861     8A     -1.368362     9A     -1.064396
      10A     -0.987823    11A     -0.900554    12A     -0.769713
      13A     -0.707604    14A     -0.691399    15A     -0.675684
      16A     -0.626136    17A     -0.606353    18A     -0.558884
      19A     -0.556007    20A     -0.527335    21A     -0.510177
      22A     -0.506506    23A     -0.451812    24A     -0.435798

  @DF-RHF Final Energy:  -305.97337817224468

   => Energetics <=

    Nuclear Repulsion Energy =            248.0876409744903128
    One-Electron Energy =                -908.7965018964855517
    Two-Electron Energy =                 354.7354827497506449
    DFT Exchange-Correlation Energy =       0.0000000000000000
    Empirical Dispersion Energy =           0.0000000000000000
    PCM Polarization Energy =               0.0000000000000000
    EFP Energy =                            0.0000000000000000
    Total Energy =                       -305.9733781722445656
    Molecular point group: c1
  Basis Set: CC-PVTZ
  Basis Set:

  -Total Gradient:
     Atom            X                  Y                   Z
    ------   -----------------  -----------------  -----------------
       1       -0.000086876355    -0.000078314026    -0.000022029808
       2        0.000132176994     0.000077870146    -0.001361653142
       3        0.000014260723     0.000055068349     0.000624272768
       4       -0.000123881836    -0.000072314341     0.001542577691
       5        0.000011052518     0.000009470641    -0.000001893468
       6       -0.000015765096    -0.000000383667     0.000012870059
       7        0.000016579985    -0.000005160350    -0.000010477409
       8       -0.000001584449    -0.000001542878     0.000009932543
       9        0.000004966754    -0.000001932867    -0.000001019619
      10        0.000000761081    -0.000001835806    -0.000007890772
      11        0.000039167688     0.000048637173    -0.000818377974
      12       -0.000014573770     0.000009012114     0.000018354805
      13        0.000000998686     0.000003890996     0.000001925356
      14        0.000022717077    -0.000042465482     0.000013408968

  **** Optimization is complete! (in 10 steps) ****
    Final optimized geometry and variables:
    Molecular point group: c1

    Geometry (in Angstrom), charge = 0, multiplicity = 1:

    O            0.336466625061     1.553748327742    -0.043123227703
    C            0.242323107172     0.379550755148     0.000928398627
    C           -1.085931757446    -0.343003586945     0.072862404434
    O            1.352280935137    -0.355689521434     0.020399247834
    C           -2.271571597713     0.609434561893     0.058246053177
    H           -1.149494848847    -1.041302898414    -0.754307665096
    H           -1.091034063595    -0.944891752287     0.975552949034
    H           -2.282462827496     1.200582248425    -0.846932881955
    H           -3.196713636497     0.048715730047     0.115208984488
    H           -2.230157486392     1.292482099837     0.895013650613
    C            1.352273090828    -1.755391927637    -0.100755391127
    H            0.813363672344    -2.231987728069     0.707001317914
    H            2.386387436132    -2.055500760184    -0.054089315852
    H            0.939095985658    -2.072602443268    -1.049264034283

  Mulliken Charges: (a.u.)
   Center  Symbol    Alpha    Beta     Spin     Total
       1     O     4.18057  4.18057  0.00000 -0.36114
       2     C     2.80735  2.80735  0.00000  0.38530
       3     C     3.12215  3.12215  0.00000 -0.24430
       4     O     4.12816  4.12816  0.00000 -0.25632
       5     C     3.13906  3.13906  0.00000 -0.27812
       6     H     0.44240  0.44240  0.00000  0.11519
       7     H     0.44019  0.44019  0.00000  0.11963
       8     H     0.44580  0.44580  0.00000  0.10839
       9     H     0.45148  0.45148  0.00000  0.09705
      10     H     0.44477  0.44477  0.00000  0.11046
      11     C     3.04468  3.04468  0.00000 -0.08936
      12     H     0.46098  0.46098  0.00000  0.07804
      13     H     0.43275  0.43275  0.00000  0.13449
      14     H     0.45965  0.45965  0.00000  0.08070

   Total alpha = 24.00000, Total beta = 24.00000, Total charge = -0.00000

*** Psi4 exiting successfully. Buy a developer a beer!
