                              Psi4 1.0.54 Driver

  ==> Input File <==

--------------------------------------------------------------------------
set {
	reference rhf
	basis cc-pvtz
}

set_num_threads( 4 )
memory 2 gb

molecule MOL {
0 1

O	 1.385972	 0.061341	 0.856531
C	 0.576499	 0.134701	 -0.003900
C	 -0.765656	 -0.550508	 -0.002152
O	 0.755060	 0.838670	 -1.109575
C	 -1.945526	 0.411052	 0.000603
H	 -0.794329	 -1.203792	 -0.868145
H	 -0.791555	 -1.205429	 0.862701
C	 -3.282915	 -0.321280	 0.002596
H	 -1.880300	 1.059126	 -0.864925
H	 -1.877207	 1.057892	 0.866807
H	 -3.388495	 -0.952755	 -0.873419
H	 -4.107811	 0.380864	 0.004116
H	 -3.385717	 -0.953283	 0.878571
C	 1.978857	 1.532628	 -1.246528
H	 2.100594	 2.251269	 -0.449791
H	 1.929733	 2.036362	 -2.198120
H	 2.810967	 0.844590	 -1.231116

	symmetry c1
}
set optking {
	frozen_dihedral = ("
		1 2 3 6
	")
}

ee,wfn = optimize('scf', return_wfn=True)
oeprop( wfn, 'DIPOLE', 'QUADRUPOLE', 'MULLIKEN_CHARGES')
f=open( 'psi4out.xyz', 'w' )
f.write( "17  " )
f.write( str(ee) + "\n" )
f.write( MOL.save_string_xyz() )
f.close()
--------------------------------------------------------------------------

    Molecular point group: c1
  Charge       = 0
  Multiplicity = 1
  Basis Set: CC-PVTZ
  Basis Set:
  @DF-RHF Final Energy:  -345.03382014437926
    Total Energy =                       -345.0338201443795469
    Molecular point group: c1
  Basis Set: CC-PVTZ
  Basis Set:
  Basis Set: CC-PVTZ
  Basis Set:
  @DF-RHF Final Energy:  -345.03411196471473
    Total Energy =                       -345.0341119647149526
  Basis Set: CC-PVTZ
  Basis Set:
  Basis Set: CC-PVTZ
  Basis Set:
  @DF-RHF Final Energy:  -345.03412517050043
    Total Energy =                       -345.0341251705000332
  Basis Set: CC-PVTZ
  Basis Set:
  Basis Set: CC-PVTZ
  Basis Set:
  @DF-RHF Final Energy:  -345.03412705459669
    Total Energy =                       -345.0341270545966381
  Basis Set: CC-PVTZ
  Basis Set:
  Charge       = 0
  Multiplicity = 1
  Basis Set: CC-PVTZ
  Basis Set:

    Orbital Energies (a.u.)
    -----------------------

    Doubly Occupied:

       1A    -20.597290     2A    -20.533125     3A    -11.363864
       4A    -11.278903     5A    -11.233208     6A    -11.229283
       7A    -11.216607     8A     -1.472261     9A     -1.364941
      10A     -1.085535    11A     -0.999994    12A     -0.942602
      13A     -0.831914    14A     -0.776395    15A     -0.699302
      16A     -0.683675    17A     -0.676422    18A     -0.638686
      19A     -0.597329    20A     -0.579558    21A     -0.550306
      22A     -0.547088    23A     -0.527118    24A     -0.511204
      25A     -0.490015    26A     -0.484257    27A     -0.459072
      28A     -0.434914

  @DF-RHF Final Energy:  -345.03412717442046

   => Energetics <=

    Nuclear Repulsion Energy =            314.7077468362957120
    One-Electron Energy =               -1093.8740125673516559
    Two-Electron Energy =                 434.1321385566357094
    DFT Exchange-Correlation Energy =       0.0000000000000000
    Empirical Dispersion Energy =           0.0000000000000000
    PCM Polarization Energy =               0.0000000000000000
    EFP Energy =                            0.0000000000000000
    Total Energy =                       -345.0341271744202913
    Molecular point group: c1
  Basis Set: CC-PVTZ
  Basis Set:

  -Total Gradient:
     Atom            X                  Y                   Z
    ------   -----------------  -----------------  -----------------
       1        0.000162241517    -0.000350811162    -0.000247368425
       2       -0.000224078859     0.000423751443     0.000421706236
       3       -0.000107509995     0.000196909900    -0.000366830785
       4        0.000022977924     0.000021331593    -0.000023095459
       5       -0.000006010630     0.000020135481    -0.000011512570
       6        0.000161001325    -0.000308664526     0.000238260159
       7       -0.000002284827    -0.000001383745    -0.000005828539
       8       -0.000003937365    -0.000006608626     0.000005888262
       9       -0.000003855843    -0.000000301008     0.000009062392
      10       -0.000005959367    -0.000010529567    -0.000007966324
      11        0.000006315978     0.000004617451     0.000007460502
      12        0.000000741700     0.000001862427    -0.000003013070
      13        0.000001265430     0.000004717450    -0.000006054647
      14       -0.000013601523    -0.000000229611    -0.000006329946
      15        0.000001483232    -0.000001937627    -0.000003989777
      16        0.000009300107     0.000004048967     0.000000116343
      17        0.000001911196     0.000003091161    -0.000000504353

  **** Optimization is complete! (in 5 steps) ****
    Final optimized geometry and variables:
    Molecular point group: c1

    Geometry (in Angstrom), charge = 0, multiplicity = 1:

    O            1.547976860413    -0.280847631139     1.066800935371
    C            0.736809335864    -0.188755185352     0.209147264389
    C           -0.603252211040    -0.877294373423     0.216622833851
    O            0.917819202705     0.537469290709    -0.881891828601
    C           -1.784013896700     0.097106789738     0.204476862545
    H           -0.650433905882    -1.521549920749    -0.655097880666
    H           -0.632342392314    -1.501898944490     1.097899553370
    C           -3.123981682520    -0.628060968609     0.253547719667
    H           -1.732297152412     0.713792160555    -0.683913726801
    H           -1.702919206008     0.765530664540     1.056010099780
    H           -3.244975587483    -1.284072378750    -0.601874584475
    H           -3.945945423607     0.077711848230     0.248469554317
    H           -3.211248037846    -1.232496917480     1.149725619967
    C            2.141882596689     1.233588716232    -1.002421333194
    H            2.263796633009     1.933606600562    -0.189276268661
    H            2.094422967845     1.759152584335    -1.942362976632
    H            2.973360796887     0.544572741185    -1.001753868366

  Mulliken Charges: (a.u.)
   Center  Symbol    Alpha    Beta     Spin     Total
       1     O     4.19944  4.19944  0.00000 -0.39888
       2     C     2.80851  2.80851  0.00000  0.38298
       3     C     3.07836  3.07836  0.00000 -0.15673
       4     O     4.14976  4.14976  0.00000 -0.29953
       5     C     3.09207  3.09207  0.00000 -0.18415
       6     H     0.44761  0.44761  0.00000  0.10477
       7     H     0.43743  0.43743  0.00000  0.12514
       8     C     3.15125  3.15125  0.00000 -0.30250
       9     H     0.44369  0.44369  0.00000  0.11261
      10     H     0.44875  0.44875  0.00000  0.10250
      11     H     0.45432  0.45432  0.00000  0.09136
      12     H     0.44615  0.44615  0.00000  0.10770
      13     H     0.45294  0.45294  0.00000  0.09411
      14     C     3.03696  3.03696  0.00000 -0.07392
      15     H     0.45429  0.45429  0.00000  0.09142
      16     H     0.44563  0.44563  0.00000  0.10875
      17     H     0.45282  0.45282  0.00000  0.09435

   Total alpha = 28.00000, Total beta = 28.00000, Total charge = -0.00000

*** Psi4 exiting successfully. Buy a developer a beer!
