                              Psi4 1.0.54 Driver

  ==> Input File <==

--------------------------------------------------------------------------
set {
	reference rhf
	basis cc-pvtz
}

set_num_threads( 4 )
memory 2 gb

molecule MOL {
0 1

H	 2.714091	 -0.649118	 0.705151
N	 2.326826	 -0.066186	 0.000000
C	 0.934676	 -0.005420	 0.000000
H	 2.778153	 0.818547	 -0.023943
C	 0.226436	 -0.001077	 -1.195129
C	 0.226436	 -0.001077	 1.195129
H	 0.759091	 -0.011439	 -2.128123
C	 -1.153391	 0.009141	 -1.189028
H	 0.759091	 -0.011439	 2.128123
C	 -1.153391	 0.009141	 1.189028
H	 -1.680905	 0.012964	 -2.124348
C	 -1.857876	 0.014675	 0.000000
H	 -1.680905	 0.012964	 2.124348
H	 -2.930222	 0.022904	 0.000000

	symmetry c1
}
set optking {
	frozen_dihedral = ("
		1 2 3 5
	")
}

ee,wfn = optimize('scf', return_wfn=True)
oeprop( wfn, 'DIPOLE', 'QUADRUPOLE', 'MULLIKEN_CHARGES')
f=open( 'psi4out.xyz', 'w' )
f.write( "14  " )
f.write( str(ee) + "\n" )
f.write( MOL.save_string_xyz() )
f.close()
--------------------------------------------------------------------------

    Molecular point group: c1
  Charge       = 0
  Multiplicity = 1
  Basis Set: CC-PVTZ
  Basis Set:
  @DF-RHF Final Energy:  -285.82680581694990
    Total Energy =                       -285.8268058169497863
    Molecular point group: c1
  Basis Set: CC-PVTZ
  Basis Set:
  Basis Set: CC-PVTZ
  Basis Set:
  @DF-RHF Final Energy:  -285.82768377994768
    Total Energy =                       -285.8276837799477335
  Basis Set: CC-PVTZ
  Basis Set:
  Basis Set: CC-PVTZ
  Basis Set:
  @DF-RHF Final Energy:  -285.82784508057387
    Total Energy =                       -285.8278450805740931
  Basis Set: CC-PVTZ
  Basis Set:
  Basis Set: CC-PVTZ
  Basis Set:
  @DF-RHF Final Energy:  -285.82790629395117
    Total Energy =                       -285.8279062939512301
  Basis Set: CC-PVTZ
  Basis Set:
  Basis Set: CC-PVTZ
  Basis Set:
  @DF-RHF Final Energy:  -285.82791403960863
    Total Energy =                       -285.8279140396085722
  Basis Set: CC-PVTZ
  Basis Set:
  Charge       = 0
  Multiplicity = 1
  Basis Set: CC-PVTZ
  Basis Set:

    Orbital Energies (a.u.)
    -----------------------

    Doubly Occupied:

       1A    -15.542715     2A    -11.260630     3A    -11.228126
       4A    -11.226727     5A    -11.222957     6A    -11.222524
       7A    -11.218922     8A     -1.210751     9A     -1.131396
      10A     -1.015482    11A     -0.989861    12A     -0.830611
      13A     -0.811076    14A     -0.706027    15A     -0.670065
      16A     -0.648811    17A     -0.627063    18A     -0.594454
      19A     -0.585250    20A     -0.509658    21A     -0.502049
      22A     -0.494887    23A     -0.416716    24A     -0.336112
      25A     -0.323245

  @DF-RHF Final Energy:  -285.82791455133179

   => Energetics <=

    Nuclear Repulsion Energy =            273.0385100873796773
    One-Electron Energy =                -927.0806259093592416
    Two-Electron Energy =                 368.2142012706480045
    DFT Exchange-Correlation Energy =       0.0000000000000000
    Empirical Dispersion Energy =           0.0000000000000000
    PCM Polarization Energy =               0.0000000000000000
    EFP Energy =                            0.0000000000000000
    Total Energy =                       -285.8279145513315598
    Molecular point group: c1
  Basis Set: CC-PVTZ
  Basis Set:

  -Total Gradient:
     Atom            X                  Y                   Z
    ------   -----------------  -----------------  -----------------
       1       -0.000120693946    -0.002034354481    -0.001635159563
       2        0.000161137644     0.001735224144     0.002079691798
       3        0.000035030145     0.002400360554    -0.000450185156
       4       -0.000052360524    -0.000104846217     0.000001196735
       5       -0.000118259476    -0.002026812105     0.000012126045
       6        0.000054661788     0.000042787505     0.000003566372
       7        0.000001694927     0.000005069683     0.000002952135
       8        0.000064844485     0.000036529417    -0.000019323220
       9       -0.000003960773    -0.000009184533    -0.000004485979
      10       -0.000018387281    -0.000042128902    -0.000020094058
      11       -0.000005303319    -0.000006209144    -0.000002799810
      12       -0.000002061550    -0.000007644644     0.000033157154
      13       -0.000001569575     0.000008501547     0.000002948464
      14        0.000005227454     0.000002707176    -0.000003590916

  **** Optimization is complete! (in 6 steps) ****
    Final optimized geometry and variables:
    Molecular point group: c1

    Geometry (in Angstrom), charge = 0, multiplicity = 1:

    H            2.725638886858    -0.647356592361     0.667266884783
    N            2.350278615746    -0.056797910320    -0.041566096046
    C            0.926779431074    -0.008457999954     0.000225816640
    H            2.765022233879     0.846938312785     0.031943132750
    C            0.225351700373    -0.011631668776    -1.193666632205
    C            0.219970331625     0.000575019214     1.192627467252
    H            0.774413757457    -0.043950698018    -2.114398547536
    C           -1.156152911709     0.020590005715    -1.195713891581
    H            0.754823344808    -0.002565553791     2.124388980997
    C           -1.162096738241     0.014358400694     1.190576611462
    H           -1.685777361469     0.023227803004    -2.129494359073
    C           -1.856090880082     0.030681422754    -0.004004092151
    H           -1.694909153044     0.017895457028     2.122569915374
    H           -2.929025522778     0.045895788069    -0.006212956958

  Mulliken Charges: (a.u.)
   Center  Symbol    Alpha    Beta     Spin     Total
       1     H     0.42048  0.42048  0.00000  0.15905
       2     N     3.70435  3.70435  0.00000 -0.40871
       3     C     2.89932  2.89932  0.00000  0.20136
       4     H     0.42135  0.42135  0.00000  0.15730
       5     C     3.10054  3.10054  0.00000 -0.20109
       6     C     3.11292  3.11292  0.00000 -0.22584
       7     H     0.41854  0.41854  0.00000  0.16293
       8     C     3.06583  3.06583  0.00000 -0.13166
       9     H     0.42729  0.42729  0.00000  0.14543
      10     C     3.07232  3.07232  0.00000 -0.14464
      11     H     0.42327  0.42327  0.00000  0.15347
      12     C     3.08624  3.08624  0.00000 -0.17249
      13     H     0.42370  0.42370  0.00000  0.15259
      14     H     0.42385  0.42385  0.00000  0.15230

   Total alpha = 25.00000, Total beta = 25.00000, Total charge = -0.00000

*** Psi4 exiting successfully. Buy a developer a beer!
