                              Psi4 1.0.54 Driver

  ==> Input File <==

--------------------------------------------------------------------------
set {
	reference rhf
	basis cc-pvtz
}

set_num_threads( 4 )
memory 2 gb

molecule MOL {
0 1

H	 -4.371280	 0.525095	 -1.042662
O	 -3.458596	 0.315260	 -0.960865
C	 -3.176635	 -0.080824	 0.355601
C	 -1.763371	 0.265266	 0.799691
H	 -3.321825	 -1.153438	 0.379502
H	 -3.895468	 0.357385	 1.043382
C	 -0.673390	 -0.426948	 -0.013392
H	 -1.631049	 1.344913	 0.747560
H	 -1.664587	 -0.001624	 1.849167
C	 0.737842	 -0.043159	 0.423759
H	 -0.806103	 -0.190518	 -1.063345
H	 -0.797221	 -1.503753	 0.074146
C	 1.824000	 -0.743224	 -0.390623
H	 0.850588	 1.033777	 0.343840
H	 0.868587	 -0.286314	 1.476203
C	 3.255957	 -0.453067	 0.062319
H	 1.718250	 -0.470599	 -1.438164
H	 1.658105	 -1.815850	 -0.339904
C	 3.707029	 0.992337	 -0.133857
H	 3.928201	 -1.104096	 -0.488158
H	 3.362667	 -0.724561	 1.109374
H	 3.605811	 1.294044	 -1.171549
H	 4.748333	 1.111029	 0.143343
H	 3.129882	 1.683078	 0.468956

	symmetry c1
}
set optking {
	frozen_dihedral = ("
		1 2 3 5
	")
}

ee,wfn = optimize('scf', return_wfn=True)
oeprop( wfn, 'DIPOLE', 'QUADRUPOLE', 'MULLIKEN_CHARGES')
f=open( 'psi4out.xyz', 'w' )
f.write( "24  " )
f.write( str(ee) + "\n" )
f.write( MOL.save_string_xyz() )
f.close()
--------------------------------------------------------------------------

    Molecular point group: c1
  Charge       = 0
  Multiplicity = 1
  Basis Set: CC-PVTZ
  Basis Set:
  @DF-RHF Final Energy:  -349.37853113659895
    Total Energy =                       -349.3785311365990651
    Molecular point group: c1
  Basis Set: CC-PVTZ
  Basis Set:
  Basis Set: CC-PVTZ
  Basis Set:
  @DF-RHF Final Energy:  -349.37961450225856
    Total Energy =                       -349.3796145022583914
  Basis Set: CC-PVTZ
  Basis Set:
  Basis Set: CC-PVTZ
  Basis Set:
  @DF-RHF Final Energy:  -349.37982644043660
    Total Energy =                       -349.3798264404363181
  Basis Set: CC-PVTZ
  Basis Set:
  Basis Set: CC-PVTZ
  Basis Set:
  @DF-RHF Final Energy:  -349.37983465482830
    Total Energy =                       -349.3798346548280733
  Basis Set: CC-PVTZ
  Basis Set:
  Basis Set: CC-PVTZ
  Basis Set:
  @DF-RHF Final Energy:  -349.37983816487986
    Total Energy =                       -349.3798381648797999
  Basis Set: CC-PVTZ
  Basis Set:
  Charge       = 0
  Multiplicity = 1
  Basis Set: CC-PVTZ
  Basis Set:

    Orbital Energies (a.u.)
    -----------------------

    Doubly Occupied:

       1A    -20.545436     2A    -11.265900     3A    -11.209809
       4A    -11.209413     5A    -11.206477     6A    -11.205756
       7A    -11.204202     8A    -11.202567     9A     -1.363161
      10A     -1.086342    11A     -1.047057    12A     -0.984972
      13A     -0.912863    14A     -0.844155    15A     -0.790196
      16A     -0.773318    17A     -0.705518    18A     -0.649644
      19A     -0.629868    20A     -0.611458    21A     -0.585474
      22A     -0.577996    23A     -0.557352    24A     -0.529987
      25A     -0.527168    26A     -0.503966    27A     -0.488841
      28A     -0.484451    29A     -0.466732    30A     -0.454738
      31A     -0.450126    32A     -0.433640    33A     -0.430238

  @DF-RHF Final Energy:  -349.37983828337337

   => Energetics <=

    Nuclear Repulsion Energy =            385.1306110044174602
    One-Electron Energy =               -1237.1432619834708930
    Two-Electron Energy =                 502.6328126956801157
    DFT Exchange-Correlation Energy =       0.0000000000000000
    Empirical Dispersion Energy =           0.0000000000000000
    PCM Polarization Energy =               0.0000000000000000
    EFP Energy =                            0.0000000000000000
    Total Energy =                       -349.3798382833733172
    Molecular point group: c1
  Basis Set: CC-PVTZ
  Basis Set:

  -Total Gradient:
     Atom            X                  Y                   Z
    ------   -----------------  -----------------  -----------------
       1        0.000307819963     0.001490046772     0.000434053521
       2       -0.000032442710    -0.001895972281    -0.000616339452
       3       -0.001576095503     0.000575272688     0.000499540541
       4       -0.000018797829     0.000000784211     0.000028877651
       5        0.001306610313    -0.000171062169    -0.000311344489
       6        0.000016396973    -0.000007448375    -0.000001677963
       7       -0.000008326417    -0.000001299478    -0.000020961273
       8       -0.000003777595     0.000001281058    -0.000001082448
       9       -0.000008054647     0.000007873746    -0.000006859204
      10       -0.000002231468    -0.000002010283    -0.000000662608
      11        0.000005346149    -0.000000219149    -0.000002191254
      12        0.000001302217     0.000002889179    -0.000002492907
      13        0.000006803609     0.000008817868    -0.000004523594
      14       -0.000010969126    -0.000014673103    -0.000006586392
      15        0.000001465089     0.000006029983     0.000006737387
      16       -0.000005230386     0.000000589804     0.000016751856
      17       -0.000002421183     0.000007379704     0.000001289019
      18        0.000003646740    -0.000003488670    -0.000007567747
      19        0.000006532835    -0.000000856039    -0.000004423578
      20        0.000000469200    -0.000003881244     0.000003573663
      21       -0.000001009008     0.000003927747     0.000004817939
      22       -0.000002661352     0.000003903123    -0.000003327493
      23        0.000001827540    -0.000002515881    -0.000004462959
      24        0.000013796592    -0.000005369213    -0.000001138215

  **** Optimization is complete! (in 6 steps) ****
    Final optimized geometry and variables:
    Molecular point group: c1

    Geometry (in Angstrom), charge = 0, multiplicity = 1:

    H           -4.304596466798     0.573908049500    -0.999412807691
    O           -3.400755487033     0.350464932661    -0.884629123367
    C           -3.166610744338    -0.076932275546     0.434339393540
    C           -1.747026437034     0.273795355555     0.840248586555
    H           -3.308668550265    -1.153164552072     0.502993228539
    H           -3.866446353768     0.395138649724     1.117221630643
    C           -0.680728428625    -0.417573189002    -0.004958803308
    H           -1.625871742261     1.350969154553     0.776063455302
    H           -1.618334474794     0.001722686116     1.885142171969
    C            0.741178914990    -0.044602570737     0.406070090170
    H           -0.835620326860    -0.165799701873    -1.047907252916
    H           -0.807201930149    -1.495114299757     0.073891973687
    C            1.806923207115    -0.740240397206    -0.438556001177
    H            0.855984437011     1.032477192372     0.334590767342
    H            0.893494362018    -0.299397851016     1.453019971222
    C            3.249527525375    -0.461109208389    -0.013042118309
    H            1.680153266053    -0.455666458284    -1.480537190638
    H            1.637656902080    -1.812806652524    -0.396014870245
    C            3.703206442895     0.984177282145    -0.204266026580
    H            3.907213346411    -1.109531542896    -0.583986428299
    H            3.377036139312    -0.743593216805     1.028832750588
    H            3.579573315885     1.297419470331    -1.236069573203
    H            4.751219173004     1.095095534910     0.050228934523
    H            3.143191582005     1.671077005569     0.418647316475

  Mulliken Charges: (a.u.)
   Center  Symbol    Alpha    Beta     Spin     Total
       1     H     0.39385  0.39385  0.00000  0.21230
       2     O     4.20117  4.20117  0.00000 -0.40234
       3     C     2.97383  2.97383  0.00000  0.05234
       4     C     3.08629  3.08629  0.00000 -0.17258
       5     H     0.47301  0.47301  0.00000  0.05399
       6     H     0.46599  0.46599  0.00000  0.06801
       7     C     3.09115  3.09115  0.00000 -0.18230
       8     H     0.45515  0.45515  0.00000  0.08969
       9     H     0.45599  0.45599  0.00000  0.08801
      10     C     3.09158  3.09158  0.00000 -0.18316
      11     H     0.44349  0.44349  0.00000  0.11302
      12     H     0.45774  0.45774  0.00000  0.08453
      13     C     3.09416  3.09416  0.00000 -0.18832
      14     H     0.45239  0.45239  0.00000  0.09522
      15     H     0.45695  0.45695  0.00000  0.08610
      16     C     3.09021  3.09021  0.00000 -0.18042
      17     H     0.45350  0.45350  0.00000  0.09299
      18     H     0.45058  0.45058  0.00000  0.09885
      19     C     3.15231  3.15231  0.00000 -0.30462
      20     H     0.44913  0.44913  0.00000  0.10173
      21     H     0.45565  0.45565  0.00000  0.08870
      22     H     0.45477  0.45477  0.00000  0.09047
      23     H     0.44722  0.44722  0.00000  0.10557
      24     H     0.45390  0.45390  0.00000  0.09219

   Total alpha = 33.00000, Total beta = 33.00000, Total charge = -0.00000

*** Psi4 exiting successfully. Buy a developer a beer!
