                              Psi4 1.0.54 Driver

  ==> Input File <==

--------------------------------------------------------------------------
set {
	reference rhf
	basis cc-pvtz
}

set_num_threads( 4 )
memory 2 gb

molecule MOL {
0 1

O	 -0.988175	 -1.402891	 0.050086
C	 -0.675048	 -0.248293	 -0.009686
C	 -1.742492	 0.826599	 -0.011538
N	 0.622280	 0.144970	 -0.099307
H	 -1.692153	 1.431066	 -0.908439
H	 -2.698310	 0.331559	 0.031353
H	 -1.642148	 1.483784	 0.843455
C	 1.666216	 -0.833970	 0.119369
C	 1.051543	 1.522783	 -0.065847
H	 2.482226	 -0.651752	 -0.569215
H	 1.275327	 -1.821710	 -0.044204
H	 2.055609	 -0.776472	 1.132631
H	 1.938533	 1.633994	 -0.676188
H	 0.299695	 2.184107	 -0.461160
H	 1.298745	 1.846640	 0.942643

	symmetry c1
}
set optking {
	frozen_dihedral = ("
		8 4 2 3
	")
}

ee,wfn = optimize('scf', return_wfn=True)
oeprop( wfn, 'DIPOLE', 'QUADRUPOLE', 'MULLIKEN_CHARGES')
f=open( 'psi4out.xyz', 'w' )
f.write( "15  " )
f.write( str(ee) + "\n" )
f.write( MOL.save_string_xyz() )
f.close()
--------------------------------------------------------------------------

    Molecular point group: c1
  Charge       = 0
  Multiplicity = 1
  Basis Set: CC-PVTZ
  Basis Set:
  @DF-RHF Final Energy:  -286.13533201657725
    Total Energy =                       -286.1353320165774221
    Molecular point group: c1
  Basis Set: CC-PVTZ
  Basis Set:
  Basis Set: CC-PVTZ
  Basis Set:
  @DF-RHF Final Energy:  -286.13479619605346
    Total Energy =                       -286.1347961960534576
  Basis Set: CC-PVTZ
  Basis Set:
  Basis Set: CC-PVTZ
  Basis Set:
  @DF-RHF Final Energy:  -286.13544292353458
    Total Energy =                       -286.1354429235342991
  Basis Set: CC-PVTZ
  Basis Set:
  Basis Set: CC-PVTZ
  Basis Set:
  @DF-RHF Final Energy:  -286.13546619653948
    Total Energy =                       -286.1354661965393689
  Basis Set: CC-PVTZ
  Basis Set:
  Basis Set: CC-PVTZ
  Basis Set:
  @DF-RHF Final Energy:  -286.13547084392133
    Total Energy =                       -286.1354708439213823
  Basis Set: CC-PVTZ
  Basis Set:
  Basis Set: CC-PVTZ
  Basis Set:
  @DF-RHF Final Energy:  -286.13547329773007
    Total Energy =                       -286.1354732977300728
  Basis Set: CC-PVTZ
  Basis Set:
  Basis Set: CC-PVTZ
  Basis Set:
  @DF-RHF Final Energy:  -286.13547462180321
    Total Energy =                       -286.1354746218029277
  Basis Set: CC-PVTZ
  Basis Set:
  Charge       = 0
  Multiplicity = 1
  Basis Set: CC-PVTZ
  Basis Set:

    Orbital Energies (a.u.)
    -----------------------

    Doubly Occupied:

       1A    -20.504448     2A    -15.578254     3A    -11.335336
       4A    -11.263727     5A    -11.246524     6A    -11.226702
       7A     -1.387962     8A     -1.246285     9A     -1.015223
      10A     -0.972690    11A     -0.920561    12A     -0.738795
      13A     -0.683480    14A     -0.662059    15A     -0.653684
      16A     -0.589821    17A     -0.578110    18A     -0.567974
      19A     -0.562150    20A     -0.548335    21A     -0.530116
      22A     -0.507719    23A     -0.414249    24A     -0.371040

  @DF-RHF Final Energy:  -286.13547543780396

   => Energetics <=

    Nuclear Repulsion Energy =            252.9766065529338164
    One-Electron Energy =                -890.0136775217516742
    Two-Electron Energy =                 350.9015955310139816
    DFT Exchange-Correlation Energy =       0.0000000000000000
    Empirical Dispersion Energy =           0.0000000000000000
    PCM Polarization Energy =               0.0000000000000000
    EFP Energy =                            0.0000000000000000
    Total Energy =                       -286.1354754378038479
    Molecular point group: c1
  Basis Set: CC-PVTZ
  Basis Set:

  -Total Gradient:
     Atom            X                  Y                   Z
    ------   -----------------  -----------------  -----------------
       1        0.000032085818    -0.000001353373     0.000034778368
       2       -0.000230702629    -0.000008808103    -0.001380286462
       3        0.000096890472     0.000124822955     0.001265773202
       4        0.000052725208    -0.000451100547    -0.001363469691
       5       -0.000005370071    -0.000011362084     0.000025028031
       6       -0.000004079236    -0.000001805625     0.000010660565
       7        0.000007875991    -0.000008190776     0.000022581014
       8        0.000018497958     0.000358198227     0.001365760482
       9        0.000015185378     0.000004908250     0.000015182786
      10        0.000003969242    -0.000012410035    -0.000011017246
      11       -0.000006966863    -0.000006649778     0.000004519952
      12        0.000008760146     0.000016129496     0.000002747342
      13       -0.000001459705    -0.000000642672    -0.000002361443
      14        0.000011434377     0.000000537535     0.000010429587
      15        0.000001153914    -0.000002273472    -0.000000326486

  **** Optimization is complete! (in 8 steps) ****
    Final optimized geometry and variables:
    Molecular point group: c1

    Geometry (in Angstrom), charge = 0, multiplicity = 1:

    O           -0.987600482804    -1.402403949856     0.104176756134
    C           -0.674322699466    -0.252164388134    -0.007921639234
    C           -1.738367952758     0.825769549956    -0.015622609773
    N            0.623290291964     0.135341048165    -0.132259156200
    H           -1.725892157100     1.389091191368    -0.940203818128
    H           -2.693066185704     0.337987034783     0.089951870717
    H           -1.597597160025     1.520449463914     0.803214801185
    C            1.666175902539    -0.844343985156     0.091083794486
    C            1.054625758895     1.511992330948    -0.069377782665
    H            2.478327393488    -0.675689384912    -0.605363180273
    H            1.271000734551    -1.832826547983    -0.056499273626
    H            2.062050605747    -0.772277466292     1.101053432373
    H            1.956927367496     1.625548365750    -0.655821701142
    H            0.315781268760     2.179877089307    -0.478521191648
    H            1.277565841282     1.825139840665     0.948370959168

  Mulliken Charges: (a.u.)
   Center  Symbol    Alpha    Beta     Spin     Total
       1     O     4.21972  4.21972  0.00000 -0.43944
       2     C     2.84421  2.84421  0.00000  0.31158
       3     C     3.16087  3.16087  0.00000 -0.32174
       4     N     3.56362  3.56362  0.00000 -0.12725
       5     H     0.44829  0.44829  0.00000  0.10342
       6     H     0.42871  0.42871  0.00000  0.14258
       7     H     0.44934  0.44934  0.00000  0.10132
       8     C     3.09893  3.09893  0.00000 -0.19787
       9     C     3.09731  3.09731  0.00000 -0.19462
      10     H     0.45624  0.45624  0.00000  0.08752
      11     H     0.42617  0.42617  0.00000  0.14766
      12     H     0.45856  0.45856  0.00000  0.08289
      13     H     0.44803  0.44803  0.00000  0.10393
      14     H     0.44488  0.44488  0.00000  0.11023
      15     H     0.45511  0.45511  0.00000  0.08977

   Total alpha = 24.00000, Total beta = 24.00000, Total charge = -0.00000

*** Psi4 exiting successfully. Buy a developer a beer!
