                              Psi4 1.0.54 Driver

  ==> Input File <==

--------------------------------------------------------------------------
set {
	reference rhf
	basis cc-pvtz
}

set_num_threads( 4 )
memory 2 gb

molecule MOL {
0 1

O	 0.074770	 1.259872	 0.000487
C	 0.029490	 0.077183	 0.000078
C	 -1.232113	 -0.748027	 0.000015
O	 1.106773	 -0.690081	 -0.000204
C	 -2.501422	 0.088592	 -0.000052
H	 -1.188777	 -1.400384	 -0.865133
H	 -1.188857	 -1.400312	 0.865225
H	 -2.548170	 0.725504	 -0.873205
H	 -3.371613	 -0.556398	 -0.000040
H	 -2.548215	 0.725571	 0.873047
C	 2.103435	 -0.408898	 -0.962099
H	 1.706620	 -0.506001	 -1.961771
H	 2.885954	 -1.132315	 -0.800367
H	 2.487865	 0.591767	 -0.831226

	symmetry c1
}
set optking {
	frozen_dihedral = ("
		11 4 2 3
	")
}

ee,wfn = optimize('scf', return_wfn=True)
oeprop( wfn, 'DIPOLE', 'QUADRUPOLE', 'MULLIKEN_CHARGES')
f=open( 'psi4out.xyz', 'w' )
f.write( "14  " )
f.write( str(ee) + "\n" )
f.write( MOL.save_string_xyz() )
f.close()
--------------------------------------------------------------------------

    Molecular point group: c1
  Charge       = 0
  Multiplicity = 1
  Basis Set: CC-PVTZ
  Basis Set:
  @DF-RHF Final Energy:  -305.97625270560229
    Total Energy =                       -305.9762527056022918
    Molecular point group: c1
  Basis Set: CC-PVTZ
  Basis Set:
  Basis Set: CC-PVTZ
  Basis Set:
  @DF-RHF Final Energy:  -305.97444734267430
    Total Energy =                       -305.9744473426743525
  Basis Set: CC-PVTZ
  Basis Set:
  Basis Set: CC-PVTZ
  Basis Set:
  @DF-RHF Final Energy:  -305.97678138736967
    Total Energy =                       -305.9767813873694990
  Basis Set: CC-PVTZ
  Basis Set:
  Basis Set: CC-PVTZ
  Basis Set:
  @DF-RHF Final Energy:  -305.97703865647992
    Total Energy =                       -305.9770386564802038
  Basis Set: CC-PVTZ
  Basis Set:
  Basis Set: CC-PVTZ
  Basis Set:
  @DF-RHF Final Energy:  -305.97706821078395
    Total Energy =                       -305.9770682107840116
  Basis Set: CC-PVTZ
  Basis Set:
  Basis Set: CC-PVTZ
  Basis Set:
  @DF-RHF Final Energy:  -305.97707186560490
    Total Energy =                       -305.9770718656049553
  Basis Set: CC-PVTZ
  Basis Set:
  Charge       = 0
  Multiplicity = 1
  Basis Set: CC-PVTZ
  Basis Set:

    Orbital Energies (a.u.)
    -----------------------

    Doubly Occupied:

       1A    -20.586015     2A    -20.540825     3A    -11.367422
       4A    -11.283328     5A    -11.239497     6A    -11.216259
       7A     -1.466572     8A     -1.368122     9A     -1.064867
      10A     -0.978291    11A     -0.885238    12A     -0.768256
      13A     -0.702596    14A     -0.680146    15A     -0.675798
      16A     -0.621624    17A     -0.609767    18A     -0.555533
      19A     -0.541321    20A     -0.522687    21A     -0.511482
      22A     -0.498321    23A     -0.459266    24A     -0.440209

  @DF-RHF Final Energy:  -305.97707217445918

   => Energetics <=

    Nuclear Repulsion Energy =            247.1328359875273009
    One-Electron Energy =                -907.0529319982069865
    Two-Electron Energy =                 353.9430238362205046
    DFT Exchange-Correlation Energy =       0.0000000000000000
    Empirical Dispersion Energy =           0.0000000000000000
    PCM Polarization Energy =               0.0000000000000000
    EFP Energy =                            0.0000000000000000
    Total Energy =                       -305.9770721744591810
    Molecular point group: c1
  Basis Set: CC-PVTZ
  Basis Set:

  -Total Gradient:
     Atom            X                  Y                   Z
    ------   -----------------  -----------------  -----------------
       1        0.000149355389    -0.000001515595    -0.000007995513
       2       -0.002246879054    -0.001204480172     0.007703452023
       3        0.000254586719    -0.001049358907    -0.006927295289
       4        0.004940823400     0.007828532704     0.003478625973
       5        0.000013897486    -0.000030378368     0.000048964094
       6       -0.000008271234    -0.000000750558     0.000003193623
       7        0.000004716732     0.000004211047     0.000023769912
       8        0.000010213160     0.000007623754    -0.000023830566
       9        0.000000821346    -0.000004778456    -0.000001623981
      10       -0.000003052079     0.000006769023     0.000004844013
      11       -0.003104772805    -0.005559818838    -0.004275228364
      12       -0.000022283191    -0.000019413415    -0.000033510771
      13       -0.000005207263    -0.000002617530     0.000006708717
      14        0.000016051401     0.000025975311    -0.000000073869

  **** Optimization is complete! (in 7 steps) ****
    Final optimized geometry and variables:
    Molecular point group: c1

    Geometry (in Angstrom), charge = 0, multiplicity = 1:

    O            0.102014803810     1.317969553321    -0.119060387918
    C            0.062556044365     0.165744134831     0.132224200631
    C           -1.193326348222    -0.662292489629     0.200151708168
    O            1.161993870516    -0.577770798713     0.297191222126
    C           -2.472391962037     0.158464949337     0.219509692326
    H           -1.156421052269    -1.313208570203    -0.668797554356
    H           -1.122895263785    -1.317006230934     1.060883482171
    H           -2.541742850575     0.791073310523    -0.654663867678
    H           -3.335514725484    -0.495559734269     0.240489662387
    H           -2.510120974182     0.798124497111     1.091941838230
    C            2.194318132546    -0.419844922126    -0.654772392452
    H            1.835694650248    -0.686525119786    -1.641423036560
    H            2.982717962807    -1.094760300249    -0.363921045071
    H            2.562413060995     0.594893514288    -0.666519686217

  Mulliken Charges: (a.u.)
   Center  Symbol    Alpha    Beta     Spin     Total
       1     O     4.18331  4.18331  0.00000 -0.36662
       2     C     2.79828  2.79828  0.00000  0.40343
       3     C     3.09426  3.09426  0.00000 -0.18851
       4     O     4.16112  4.16112  0.00000 -0.32223
       5     C     3.14047  3.14047  0.00000 -0.28094
       6     H     0.44618  0.44618  0.00000  0.10764
       7     H     0.43856  0.43856  0.00000  0.12288
       8     H     0.44628  0.44628  0.00000  0.10743
       9     H     0.45035  0.45035  0.00000  0.09930
      10     H     0.44945  0.44945  0.00000  0.10110
      11     C     3.03532  3.03532  0.00000 -0.07064
      12     H     0.46476  0.46476  0.00000  0.07048
      13     H     0.44538  0.44538  0.00000  0.10925
      14     H     0.44628  0.44628  0.00000  0.10743

   Total alpha = 24.00000, Total beta = 24.00000, Total charge = -0.00000

*** Psi4 exiting successfully. Buy a developer a beer!
