                              Psi4 1.0.54 Driver

  ==> Input File <==

--------------------------------------------------------------------------
set {
	reference rhf
	basis cc-pvtz
}

set_num_threads( 4 )
memory 2 gb

molecule MOL {
0 1

H	 -3.034039	 -0.667848	 0.004703
O	 -2.240597	 -1.171748	 0.000934
C	 -1.159675	 -0.364500	 0.000370
C	 -0.917365	 0.547360	 -1.006710
C	 -0.279348	 -0.481713	 1.064954
H	 -1.597431	 0.638494	 -1.833912
C	 0.215833	 1.339379	 -0.937446
H	 -0.495650	 -1.201850	 1.830167
C	 0.848930	 0.310532	 1.133625
H	 0.409327	 2.047882	 -1.720616
C	 1.094136	 1.227843	 0.116570
C	 1.793925	 0.199767	 2.303394
H	 1.969703	 1.847904	 0.153571
H	 2.825119	 0.215642	 1.972926
H	 1.630149	 -0.714680	 2.857209
H	 1.656136	 1.031594	 2.985832

	symmetry c1
}
set optking {
	frozen_dihedral = ("
		5 3 2 1
	")
}

ee,wfn = optimize('scf', return_wfn=True)
oeprop( wfn, 'DIPOLE', 'QUADRUPOLE', 'MULLIKEN_CHARGES')
f=open( 'psi4out.xyz', 'w' )
f.write( "16  " )
f.write( str(ee) + "\n" )
f.write( MOL.save_string_xyz() )
f.close()
--------------------------------------------------------------------------

    Molecular point group: c1
  Charge       = 0
  Multiplicity = 1
  Basis Set: CC-PVTZ
  Basis Set:
  @DF-RHF Final Energy:  -344.71681600545355
    Total Energy =                       -344.7168160054532677
    Molecular point group: c1
  Basis Set: CC-PVTZ
  Basis Set:
  Basis Set: CC-PVTZ
  Basis Set:
  @DF-RHF Final Energy:  -344.71715510795826
    Total Energy =                       -344.7171551079584901
  Basis Set: CC-PVTZ
  Basis Set:
  Basis Set: CC-PVTZ
  Basis Set:
  @DF-RHF Final Energy:  -344.71719280134755
    Total Energy =                       -344.7171928013474940
  Basis Set: CC-PVTZ
  Basis Set:
  Basis Set: CC-PVTZ
  Basis Set:
  @DF-RHF Final Energy:  -344.71719665836065
    Total Energy =                       -344.7171966583607627
  Basis Set: CC-PVTZ
  Basis Set:
  Basis Set: CC-PVTZ
  Basis Set:
  @DF-RHF Final Energy:  -344.71719766783508
    Total Energy =                       -344.7171976678351939
  Basis Set: CC-PVTZ
  Basis Set:
  Charge       = 0
  Multiplicity = 1
  Basis Set: CC-PVTZ
  Basis Set:

    Orbital Energies (a.u.)
    -----------------------

    Doubly Occupied:

       1A    -20.571936     2A    -11.288423     3A    -11.240255
       4A    -11.231717     5A    -11.220093     6A    -11.219930
       7A    -11.217602     8A    -11.216990     9A     -1.399603
      10A     -1.154781    11A     -1.046603    12A     -1.007832
      13A     -0.938845    14A     -0.828669    15A     -0.816919
      16A     -0.718791    17A     -0.680840    18A     -0.659283
      19A     -0.622069    20A     -0.593491    21A     -0.577391
      22A     -0.570607    23A     -0.553382    24A     -0.518305
      25A     -0.506970    26A     -0.485310    27A     -0.468699
      28A     -0.333450    29A     -0.319938

  @DF-RHF Final Energy:  -344.71719799191129

   => Energetics <=

    Nuclear Repulsion Energy =            345.9457936780859768
    One-Electron Energy =               -1153.3085413308299394
    Two-Electron Energy =                 462.6455496608326143
    DFT Exchange-Correlation Energy =       0.0000000000000000
    Empirical Dispersion Energy =           0.0000000000000000
    PCM Polarization Energy =               0.0000000000000000
    EFP Energy =                            0.0000000000000000
    Total Energy =                       -344.7171979919114051
    Molecular point group: c1
  Basis Set: CC-PVTZ
  Basis Set:

  -Total Gradient:
     Atom            X                  Y                   Z
    ------   -----------------  -----------------  -----------------
       1       -0.000068891685    -0.000055921456     0.002260282542
       2       -0.000381326055     0.000566572297    -0.002403681438
       3        0.001347877322    -0.001580916967    -0.000705141981
       4       -0.000026740333    -0.000001999756    -0.000007133730
       5       -0.000900786475     0.001045691502     0.000854714473
       6       -0.000000994350    -0.000000181636     0.000002359706
       7        0.000004260276    -0.000029680435     0.000004410927
       8        0.000006685104     0.000016305695    -0.000019092615
       9       -0.000000462511     0.000021751224    -0.000006180917
      10        0.000004355376     0.000001782294     0.000002259189
      11        0.000007238795     0.000012841456     0.000009518281
      12        0.000000248015     0.000001958491     0.000000024017
      13       -0.000004835059     0.000002151395     0.000007202766
      14        0.000007692801    -0.000008599756    -0.000001380322
      15       -0.000002450633     0.000002398519     0.000008084138
      16        0.000008129410     0.000005847135    -0.000006245034

  **** Optimization is complete! (in 6 steps) ****
    Final optimized geometry and variables:
    Molecular point group: c1

    Geometry (in Angstrom), charge = 0, multiplicity = 1:

    H           -2.906583171618    -0.861778208074    -0.419490067587
    O           -2.109701087156    -1.361329504110    -0.408136467791
    C           -1.026820523901    -0.533382242128    -0.359453633442
    C           -0.779131337571     0.375072502622    -1.367871786820
    C           -0.164313450821    -0.639696764019     0.715888194116
    H           -1.446272726605     0.439571174092    -2.206125298992
    C            0.343769280301     1.177827458105    -1.286297194202
    H           -0.387220008860    -1.358028995337     1.481076602716
    C            0.965826589112     0.155015983586     0.795645442492
    H            0.545585352133     1.885649973416    -2.067875856559
    C            1.211195131813     1.070037272628    -0.219393755657
    C            1.899547871770     0.051021245620     1.975498239842
    H            2.083384310675     1.695044643662    -0.175547319295
    H            2.934107690159     0.072793433980     1.655974678865
    H            1.736278437504    -0.865214845804     2.526693805663
    H            1.750601192369     0.880786429128     2.658196259509

  Mulliken Charges: (a.u.)
   Center  Symbol    Alpha    Beta     Spin     Total
       1     H     0.38652  0.38652  0.00000  0.22697
       2     O     4.18936  4.18936  0.00000 -0.37871
       3     C     2.85505  2.85505  0.00000  0.28990
       4     C     3.13331  3.13331  0.00000 -0.26662
       5     C     3.13943  3.13943  0.00000 -0.27886
       6     H     0.42181  0.42181  0.00000  0.15637
       7     C     3.06016  3.06016  0.00000 -0.12032
       8     H     0.41936  0.41936  0.00000  0.16127
       9     C     2.94312  2.94312  0.00000  0.11376
      10     H     0.42256  0.42256  0.00000  0.15487
      11     C     3.11027  3.11027  0.00000 -0.22054
      12     C     3.14647  3.14647  0.00000 -0.29294
      13     H     0.42716  0.42716  0.00000  0.14568
      14     H     0.44794  0.44794  0.00000  0.10412
      15     H     0.45014  0.45014  0.00000  0.09971
      16     H     0.44733  0.44733  0.00000  0.10535

   Total alpha = 29.00000, Total beta = 29.00000, Total charge =  0.00000

*** Psi4 exiting successfully. Buy a developer a beer!
