                              Psi4 1.0.54 Driver

  ==> Input File <==

--------------------------------------------------------------------------
set {
	reference rhf
	basis cc-pvtz
}

set_num_threads( 4 )
memory 2 gb

molecule MOL {
0 1

O	 -1.278239	 1.034789	 -0.784693
C	 -1.204115	 0.062668	 -0.112312
C	 -2.386398	 -0.667698	 0.460323
O	 -0.068058	 -0.518372	 0.226882
H	 -2.382952	 -1.693172	 0.114333
H	 -3.296656	 -0.175702	 0.158400
H	 -2.312537	 -0.685191	 1.540100
C	 0.983276	 -0.622513	 -0.738858
C	 1.807499	 -1.830238	 -0.339895
C	 1.788916	 0.663910	 -0.764723
H	 0.530733	 -0.785299	 -1.705188
H	 1.196361	 -2.723617	 -0.328318
H	 2.615885	 -1.977391	 -1.045989
H	 2.234385	 -1.695009	 0.646724
H	 2.592952	 0.582265	 -1.486775
H	 1.166083	 1.501473	 -1.046178
H	 2.223053	 0.859900	 0.209134

	symmetry c1
}
set optking {
	frozen_dihedral = ("
		8 4 2 1
	")
}

ee,wfn = optimize('scf', return_wfn=True)
oeprop( wfn, 'DIPOLE', 'QUADRUPOLE', 'MULLIKEN_CHARGES')
f=open( 'psi4out.xyz', 'w' )
f.write( "17  " )
f.write( str(ee) + "\n" )
f.write( MOL.save_string_xyz() )
f.close()
--------------------------------------------------------------------------

    Molecular point group: c1
  Charge       = 0
  Multiplicity = 1
  Basis Set: CC-PVTZ
  Basis Set:
  @DF-RHF Final Energy:  -345.03484123829713
    Total Energy =                       -345.0348412382970764
    Molecular point group: c1
  Basis Set: CC-PVTZ
  Basis Set:
  Basis Set: CC-PVTZ
  Basis Set:
  @DF-RHF Final Energy:  -345.03215840212255
    Total Energy =                       -345.0321584021224908
  Basis Set: CC-PVTZ
  Basis Set:
  Basis Set: CC-PVTZ
  Basis Set:
  @DF-RHF Final Energy:  -345.03585762313890
    Total Energy =                       -345.0358576231387246
  Basis Set: CC-PVTZ
  Basis Set:
  Basis Set: CC-PVTZ
  Basis Set:
  @DF-RHF Final Energy:  -345.03612832925546
    Total Energy =                       -345.0361283292553480
  Basis Set: CC-PVTZ
  Basis Set:
  @DF-RHF Final Energy:  -345.03622518473861
    Total Energy =                       -345.0362251847386688
  Basis Set: CC-PVTZ
  Basis Set:
  @DF-RHF Final Energy:  -345.03626072762341
    Total Energy =                       -345.0362607276235849
  Basis Set: CC-PVTZ
  Basis Set:
  Basis Set: CC-PVTZ
  Basis Set:
  @DF-RHF Final Energy:  -345.03626944691683
    Total Energy =                       -345.0362694469166627
  Basis Set: CC-PVTZ
  Basis Set:
  Basis Set: CC-PVTZ
  Basis Set:
  @DF-RHF Final Energy:  -345.03627063814434
    Total Energy =                       -345.0362706381441740
  Basis Set: CC-PVTZ
  Basis Set:
  Charge       = 0
  Multiplicity = 1
  Basis Set: CC-PVTZ
  Basis Set:

    Orbital Energies (a.u.)
    -----------------------

    Doubly Occupied:

       1A    -20.584006     2A    -20.535327     3A    -11.367679
       4A    -11.292340     5A    -11.231508     6A    -11.219465
       7A    -11.211864     8A     -1.464451     9A     -1.364944
      10A     -1.078034    11A     -1.006903    12A     -0.948178
      13A     -0.847478    14A     -0.771560    15A     -0.694238
      16A     -0.673805    17A     -0.656124    18A     -0.611101
      19A     -0.589720    20A     -0.581179    21A     -0.565859
      22A     -0.550836    23A     -0.545031    24A     -0.516597
      25A     -0.500592    26A     -0.486404    27A     -0.446652
      28A     -0.440282

  @DF-RHF Final Energy:  -345.03627078613158

   => Energetics <=

    Nuclear Repulsion Energy =            322.5842866126349691
    One-Electron Energy =               -1109.6768030118594197
    Two-Electron Energy =                 442.0562456130929263
    DFT Exchange-Correlation Energy =       0.0000000000000000
    Empirical Dispersion Energy =           0.0000000000000000
    PCM Polarization Energy =               0.0000000000000000
    EFP Energy =                            0.0000000000000000
    Total Energy =                       -345.0362707861315243
    Molecular point group: c1
  Basis Set: CC-PVTZ
  Basis Set:

  -Total Gradient:
     Atom            X                  Y                   Z
    ------   -----------------  -----------------  -----------------
       1        0.000043869967     0.006595126940     0.007169651446
       2       -0.001180798423    -0.013714990099    -0.011302564672
       3       -0.000035116747     0.000027419096     0.000038887377
       4        0.003382343306     0.014253425205     0.005257708402
       5       -0.000000782738     0.000003956190    -0.000005409124
       6        0.000004809156    -0.000001192590     0.000000249437
       7       -0.000003953691     0.000015798423    -0.000013304041
       8       -0.002204410360    -0.007180500135    -0.001162829911
       9       -0.000004309742     0.000003360213     0.000013660688
      10        0.000006052068     0.000012254350     0.000006029487
      11       -0.000010371261    -0.000002382330    -0.000006677401
      12        0.000001896497    -0.000004105067    -0.000000688757
      13       -0.000008465490     0.000003588011     0.000000139651
      14        0.000002405318    -0.000002242875    -0.000001962603
      15       -0.000004387754    -0.000006453091     0.000001649920
      16        0.000011618168    -0.000004891413     0.000004698873
      17       -0.000000398276     0.000001829173     0.000000761223

  **** Optimization is complete! (in 9 steps) ****
    Final optimized geometry and variables:
    Molecular point group: c1

    Geometry (in Angstrom), charge = 0, multiplicity = 1:

    O           -1.343914609525     1.147255579414    -0.649443013000
    C           -1.181005681679     0.293946495410     0.152470602773
    C           -2.286520824437    -0.360441940165     0.931440297305
    O            0.016546335803    -0.132239913669     0.537132204412
    H           -2.333643087891    -1.411098751297     0.671213468664
    H           -3.226714647806     0.116927078812     0.707557386370
    H           -2.071876718526    -0.295976313591     1.989926733156
    C            1.050930572637    -0.281131043097    -0.443934382820
    C            1.756292116510    -1.588012059933    -0.140434080142
    C            1.977554633261     0.919906140113    -0.399317287066
    H            0.579392195312    -0.330356383206    -1.415810965654
    H            1.064521493768    -2.419584160161    -0.186458618563
    H            2.547015800476    -1.759816901546    -0.861077317312
    H            2.194272526545    -1.562675867557     0.850024975020
    H            2.768356840337     0.810432953847    -1.132709499515
    H            1.430131812664     1.826420411552    -0.614889211804
    H            2.430561733466     1.010844505695     0.581313392419

  Mulliken Charges: (a.u.)
   Center  Symbol    Alpha    Beta     Spin     Total
       1     O     4.19096  4.19096  0.00000 -0.38192
       2     C     2.80992  2.80992  0.00000  0.38016
       3     C     3.13556  3.13556  0.00000 -0.27111
       4     O     4.17086  4.17086  0.00000 -0.34172
       5     H     0.44951  0.44951  0.00000  0.10098
       6     H     0.43848  0.43848  0.00000  0.12305
       7     H     0.44365  0.44365  0.00000  0.11270
       8     C     2.92980  2.92980  0.00000  0.14039
       9     C     3.13545  3.13545  0.00000 -0.27091
      10     C     3.14664  3.14664  0.00000 -0.29329
      11     H     0.45096  0.45096  0.00000  0.09807
      12     H     0.44927  0.44927  0.00000  0.10146
      13     H     0.45342  0.45342  0.00000  0.09317
      14     H     0.45102  0.45102  0.00000  0.09796
      15     H     0.45261  0.45261  0.00000  0.09479
      16     H     0.43766  0.43766  0.00000  0.12468
      17     H     0.45423  0.45423  0.00000  0.09153

   Total alpha = 28.00000, Total beta = 28.00000, Total charge = -0.00000

*** Psi4 exiting successfully. Buy a developer a beer!
