                              Psi4 1.0.54 Driver

  ==> Input File <==

--------------------------------------------------------------------------
set {
	reference rhf
	basis cc-pvtz
}

set_num_threads( 4 )
memory 2 gb

molecule MOL {
0 1

H	 -2.644180	 -0.653737	 1.272255
C	 -2.092774	 -0.380414	 0.391915
O	 -0.808934	 -0.154049	 0.752536
F	 -2.163230	 -1.351640	 -0.507133
F	 -2.627232	 0.691260	 -0.169301
C	 0.085006	 0.250800	 -0.215074
C	 0.686500	 -1.007248	 -0.837004
Cl	 1.367791	 1.260115	 0.478671
H	 -0.383475	 0.820290	 -0.998561
F	 1.538145	 -0.690431	 -1.778997
F	 -0.274133	 -1.715326	 -1.382096
F	 1.294837	 -1.752669	 0.044203

	symmetry c1
}
set optking {
	frozen_dihedral = ("
		9 6 3 2
	")
}

ee,wfn = optimize('scf', return_wfn=True)
oeprop( wfn, 'DIPOLE', 'QUADRUPOLE', 'MULLIKEN_CHARGES')
f=open( 'psi4out.xyz', 'w' )
f.write( "12  " )
f.write( str(ee) + "\n" )
f.write( MOL.save_string_xyz() )
f.close()
--------------------------------------------------------------------------

    Molecular point group: c1
  Charge       = 0
  Multiplicity = 1
  Basis Set: CC-PVTZ
  Basis Set:
  @DF-RHF Final Energy: -1146.59974506685489
    Total Energy =                      -1146.5997450668555757
    Molecular point group: c1
  Basis Set: CC-PVTZ
  Basis Set:
  Basis Set: CC-PVTZ
  Basis Set:
  @DF-RHF Final Energy: -1146.60979117065472
    Total Energy =                      -1146.6097911706553987
  Basis Set: CC-PVTZ
  Basis Set:
  Basis Set: CC-PVTZ
  Basis Set:
  @DF-RHF Final Energy: -1146.61311515326452
    Total Energy =                      -1146.6131151532645163
  Basis Set: CC-PVTZ
  Basis Set:
  Basis Set: CC-PVTZ
  Basis Set:
  @DF-RHF Final Energy: -1146.61434151845538
    Total Energy =                      -1146.6143415184551486
  Basis Set: CC-PVTZ
  Basis Set:
  @DF-RHF Final Energy: -1146.61464482608653
    Total Energy =                      -1146.6146448260865327
  @DF-RHF Final Energy: -1146.61475327551216
    Total Energy =                      -1146.6147532755130669
  @DF-RHF Final Energy: -1146.61479415285976
    Total Energy =                      -1146.6147941528602132
  Basis Set: CC-PVTZ
  Basis Set:
  @DF-RHF Final Energy: -1146.61481892388019
    Total Energy =                      -1146.6148189238801933
  Basis Set: CC-PVTZ
  Basis Set:
  Basis Set: CC-PVTZ
  Basis Set:
  @DF-RHF Final Energy: -1146.61482952459096
    Total Energy =                      -1146.6148295245907320
  Basis Set: CC-PVTZ
  Basis Set:
  Basis Set: CC-PVTZ
  Basis Set:
  @DF-RHF Final Energy: -1146.61483102177363
    Total Energy =                      -1146.6148310217718063
  Basis Set: CC-PVTZ
  Basis Set:
  Charge       = 0
  Multiplicity = 1
  Basis Set: CC-PVTZ
  Basis Set:

    Orbital Energies (a.u.)
    -----------------------

    Doubly Occupied:

       1A   -104.857489     2A    -26.353636     3A    -26.353232
       4A    -26.352628     5A    -26.345017     6A    -26.339666
       7A    -20.639228     8A    -11.519672     9A    -11.483776
      10A    -11.402230    11A    -10.582979    12A     -8.049783
      13A     -8.047776    14A     -8.047702    15A     -1.767716
      16A     -1.723895    17A     -1.662092    18A     -1.660956
      19A     -1.644624    20A     -1.482943    21A     -1.179856
      22A     -1.045707    23A     -0.995157    24A     -0.923072
      25A     -0.859047    26A     -0.857382    27A     -0.849819
      28A     -0.839447    29A     -0.821806    30A     -0.794962
      31A     -0.732134    32A     -0.730815    33A     -0.714348
      34A     -0.702124    35A     -0.681288    36A     -0.680203
      37A     -0.665406    38A     -0.662986    39A     -0.649942
      40A     -0.644025    41A     -0.593166    42A     -0.569973
      43A     -0.528708    44A     -0.479755    45A     -0.469815

  @DF-RHF Final Energy: -1146.61483138590756

   => Energetics <=

    Nuclear Repulsion Energy =            741.9132803883097722
    One-Electron Energy =               -3067.0802517999882184
    Two-Electron Energy =                1178.5521400257707683
    DFT Exchange-Correlation Energy =       0.0000000000000000
    Empirical Dispersion Energy =           0.0000000000000000
    PCM Polarization Energy =               0.0000000000000000
    EFP Energy =                            0.0000000000000000
    Total Energy =                      -1146.6148313859075643
    Molecular point group: c1
  Basis Set: CC-PVTZ
  Basis Set:

  -Total Gradient:
     Atom            X                  Y                   Z
    ------   -----------------  -----------------  -----------------
       1       -0.000000149208    -0.000020122104    -0.000018133559
       2        0.000784355510    -0.004292016493    -0.001001205557
       3       -0.000791972329     0.007785768706     0.002332213144
       4       -0.000000101005     0.000020570489     0.000024509120
       5       -0.000022886438    -0.000011012069    -0.000005664577
       6       -0.001112904462    -0.007742677810    -0.004123256540
       7       -0.000004805378     0.000006904288    -0.000066809458
       8       -0.000016615531    -0.000003798010     0.000013573947
       9        0.001188737280     0.004259488424     0.002780079333
      10       -0.000012465462     0.000005278055     0.000025270613
      11       -0.000011296945    -0.000007130472     0.000018841147
      12        0.000000103998    -0.000001252930     0.000020582425

  **** Optimization is complete! (in 11 steps) ****
    Final optimized geometry and variables:
    Molecular point group: c1

    Geometry (in Angstrom), charge = 0, multiplicity = 1:

    H           -2.524590347254    -0.072638486199     1.661519020845
    C           -2.006991497403     0.009099969654     0.723469798896
    O           -0.689820595665     0.168481905828     0.998907274309
    F           -2.237423809487    -1.064754279804    -0.006137091873
    F           -2.473082961144     1.045126338864     0.038247113741
    C            0.212352970870     0.549775681162     0.022323618530
    C            0.915203134332    -0.647466425225    -0.624349061204
    CL           1.427689483238     1.569970847184     0.816124836503
    H           -0.239218037696     1.167123917949    -0.733563407251
    F            1.845023010977    -0.231496454892    -1.447440556920
    F            0.058989834505    -1.353633748121    -1.320554191951
    F            1.461518697357    -1.428912255174     0.266785910601

  Mulliken Charges: (a.u.)
   Center  Symbol    Alpha    Beta     Spin     Total
       1     H     0.45338  0.45338  0.00000  0.09323
       2     C     2.74120  2.74120  0.00000  0.51759
       3     O     4.15735  4.15735  0.00000 -0.31471
       4     F     4.61044  4.61044  0.00000 -0.22089
       5     F     4.61987  4.61987  0.00000 -0.23973
       6     C     2.93398  2.93398  0.00000  0.13205
       7     C     2.67805  2.67805  0.00000  0.64389
       8    CL     8.57343  8.57343  0.00000 -0.14687
       9     H     0.42715  0.42715  0.00000  0.14570
      10     F     4.60290  4.60290  0.00000 -0.20580
      11     F     4.60169  4.60169  0.00000 -0.20338
      12     F     4.60054  4.60054  0.00000 -0.20108

   Total alpha = 45.00000, Total beta = 45.00000, Total charge =  0.00000

*** Psi4 exiting successfully. Buy a developer a beer!
