  ==> Input File <==

--------------------------------------------------------------------------
set {
	reference rhf
	basis 6-31G*
}

set_num_threads( 4 )
memory 2 gb

molecule MOL {
0 1

O	 2.589190	 -0.057913	 0.777204
C	 1.705091	 0.115954	 0.001797
C	 0.381791	 -0.609817	 0.001258
O	 1.769761	 0.998274	 -0.987377
C	 -0.823008	 0.326187	 0.001381
H	 0.371250	 -1.265087	 -0.865474
H	 0.370908	 -1.265746	 0.867490
C	 -2.149452	 -0.435131	 -0.000098
H	 -0.770201	 0.977095	 -0.865636
H	 -0.771220	 0.975655	 0.869608
C	 -3.368779	 0.488503	 -0.000883
H	 -2.193746	 -1.087250	 -0.871175
H	 -2.195311	 -1.087803	 0.870418
C	 -4.693822	 -0.272754	 -0.001129
H	 -3.325798	 1.139422	 -0.871284
H	 -3.326423	 1.139959	 0.869145
H	 -4.781274	 -0.907928	 -0.878124
H	 -5.538651	 0.408946	 -0.001420
H	 -4.781694	 -0.907783	 0.875984
C	 2.963266	 1.751917	 -1.099293
H	 3.129913	 2.334825	 -0.204880
H	 2.823189	 2.402079	 -1.948731
H	 3.810120	 1.100789	 -1.261699

	symmetry c1
}
set optking {
	frozen_dihedral = ("
		1 2 3 6
	")
}

ee = optimize('scf')
oeprop('DIPOLE', 'QUADRUPOLE', 'MULLIKEN_CHARGES')
f=open( 'psi4out.xyz', 'w' )
f.write( "23  " )
f.write( str(ee) + "\n" )
f.write( MOL.save_string_xyz() )
f.close()
--------------------------------------------------------------------------

    Molecular point group: c1
  Charge       = 0
  Multiplicity = 1
  Basis Set: 6-31G*
  Basis Set:
  @DF-RHF Final Energy:  -422.97457452575196
    Total Energy =                       -422.9745745257521321
    Molecular point group: c1
  Basis Set: 6-31G*
  Basis Set:
  Basis Set: 6-31G*
  Basis Set:
  @DF-RHF Final Energy:  -422.97365875572581
    Total Energy =                       -422.9736587557256371
  Basis Set: 6-31G*
  Basis Set:
  Basis Set: 6-31G*
  Basis Set:
  @DF-RHF Final Energy:  -422.97478734210472
    Total Energy =                       -422.9747873421048325
  Basis Set: 6-31G*
  Basis Set:
  Basis Set: 6-31G*
  Basis Set:
  @DF-RHF Final Energy:  -422.97488593152940
    Total Energy =                       -422.9748859315288882
  Basis Set: 6-31G*
  Basis Set:
  Charge       = 0
  Multiplicity = 1
  Basis Set: 6-31G*
  Basis Set:

    Orbital Energies (a.u.)
    -----------------------

    Doubly Occupied:

       1A    -20.604338     2A    -20.543467     3A    -11.371134
       4A    -11.280956     5A    -11.234522     6A    -11.227073
       7A    -11.221311     8A    -11.219806     9A    -11.211975
      10A     -1.468973    11A     -1.361258    12A     -1.096820
      13A     -1.045456    14A     -0.983568    15A     -0.935154
      16A     -0.847889    17A     -0.798226    18A     -0.773611
      19A     -0.693209    20A     -0.680986    21A     -0.672396
      22A     -0.653491    23A     -0.608995    24A     -0.592786
      25A     -0.578360    26A     -0.569316    27A     -0.547602
      28A     -0.529264    29A     -0.523753    30A     -0.506688
      31A     -0.490025    32A     -0.477810    33A     -0.470232
      34A     -0.468681    35A     -0.454448    36A     -0.426552

  @DF-RHF Final Energy:  -422.97488556342159

   => Energetics <=

    Nuclear Repulsion Energy =            454.9594817254783266
    One-Electron Energy =               -1477.5284663566540075
    Two-Electron Energy =                 599.5940990677538593
    DFT Exchange-Correlation Energy =       0.0000000000000000
    Empirical Dispersion Energy =           0.0000000000000000
    PCM Polarization Energy =               0.0000000000000000
    EFP Energy =                            0.0000000000000000
    Total Energy =                       -422.9748855634218216
    Molecular point group: c1
  Basis Set: 6-31G*
  Basis Set:

  -Total Gradient:
     Atom            X                  Y                   Z
    ------   -----------------  -----------------  -----------------
       1        0.000260451370    -0.000313505303    -0.000461499642
       2       -0.000215234899     0.000445623511     0.000725827084
       3       -0.000369341573     0.000622497654    -0.000679708333
       4       -0.000064121688    -0.000020867551     0.000056988757
       5        0.000129979168    -0.000024170096     0.000125923769
       6        0.000247688989    -0.000487512455     0.000416664916
       7       -0.000031444735    -0.000146270637    -0.000007362257
       8        0.000033948955    -0.000032328616    -0.000059779572
       9        0.000063721355     0.000012602076    -0.000018051414
      10        0.000012629394     0.000007194302    -0.000142545497
      11        0.000004264906    -0.000010716063     0.000063791303
      12       -0.000045445962     0.000008981447    -0.000021388260
      13        0.000001106260    -0.000049400370    -0.000024596805
      14       -0.000019091101     0.000015140853     0.000015660746
      15        0.000001072915    -0.000025598026     0.000012717865
      16       -0.000001176618     0.000024844109    -0.000006039816
      17        0.000007245129     0.000000125074     0.000002753611
      18       -0.000016375490    -0.000004316195    -0.000001375742
      19       -0.000004913712    -0.000000235283     0.000002181707
      20       -0.000047075889    -0.000050074653    -0.000011861672
      21        0.000002821680     0.000005366717     0.000009213110
      22        0.000030717316     0.000015385474     0.000003935056
      23        0.000018574212     0.000007234027    -0.000001448914

  **** Optimization is complete! (in 5 steps) ****
    Final optimized geometry and variables:
    Molecular point group: c1

    Geometry (in Angstrom), charge = 0, multiplicity = 1:

    O            2.724251541871    -0.349146092980     0.928611703600
    C            1.849927984883    -0.143321144050     0.149532329080
    C            0.524140253983    -0.864403914048     0.131000376339
    O            1.949401950521     0.746446364676    -0.830112340602
    C           -0.692278923421     0.068023516099     0.117728938161
    H            0.512923438484    -1.499428019814    -0.751304420768
    H            0.507976154640    -1.511951686132     0.998375915296
    C           -2.011371926203    -0.705470356733     0.148913953570
    H           -0.654660677339     0.696428610381    -0.765306663573
    H           -0.643567449482     0.733412608588     0.976745830052
    C           -3.239602433518     0.206339592087     0.155114748288
    H           -2.060740079875    -1.368474518765    -0.713382468689
    H           -2.035477868235    -1.346356923366     1.028401968475
    C           -4.556551143984    -0.568316677846     0.186983079823
    H           -3.217571965924     0.845230345902    -0.724981937418
    H           -3.190433465413     0.870086739738     1.015541293309
    H           -4.651002567597    -1.217113750972    -0.679195390813
    H           -5.408225211826     0.104710081141     0.190171755627
    H           -4.623839513633    -1.191074755806     1.074508841748
    C            3.163181319845     1.470338082116    -0.919133870378
    H            3.335003405682     2.036161832542    -0.014903225653
    H            3.049418682394     2.135470866644    -1.760954714676
    H            3.994215258731     0.799170394531    -1.081429948494

  Mulliken Charges: (a.u.)
   Center  Symbol    Alpha    Beta     Spin     Total
       1     O     4.28642  4.28642  0.00000 -0.57283
       2     C     2.61200  2.61200  0.00000  0.77600
       3     C     3.20043  3.20043  0.00000 -0.40087
       4     O     4.30253  4.30253  0.00000 -0.60507
       5     C     3.16194  3.16194  0.00000 -0.32387
       6     H     0.40360  0.40360  0.00000  0.19280
       7     H     0.39834  0.39834  0.00000  0.20333
       8     C     3.15271  3.15271  0.00000 -0.30543
       9     H     0.40737  0.40737  0.00000  0.18526
      10     H     0.41643  0.41643  0.00000  0.16715
      11     C     3.15210  3.15210  0.00000 -0.30421
      12     H     0.42237  0.42237  0.00000  0.15527
      13     H     0.42136  0.42136  0.00000  0.15729
      14     C     3.23977  3.23977  0.00000 -0.47953
      15     H     0.42180  0.42180  0.00000  0.15640
      16     H     0.42165  0.42165  0.00000  0.15671
      17     H     0.42131  0.42131  0.00000  0.15737
      18     H     0.41826  0.41826  0.00000  0.16349
      19     H     0.42097  0.42097  0.00000  0.15806
      20     C     3.09224  3.09224  0.00000 -0.18448
      21     H     0.40874  0.40874  0.00000  0.18253
      22     H     0.40889  0.40889  0.00000  0.18222
      23     H     0.40879  0.40879  0.00000  0.18242

   Total alpha = 36.00000, Total beta = 36.00000, Total charge = -0.00000
