  ==> Input File <==

--------------------------------------------------------------------------
set {
	reference rhf
	basis cc-pvtz
}

set_num_threads( 4 )
memory 2 gb

molecule MOL {
0 1

H	 -2.171709	 0.882708	 0.500286
C	 -2.016894	 0.001719	 -0.114152
O	 -0.775228	 0.000056	 -0.739966
H	 -2.760846	 0.003757	 -0.898169
H	 -2.174774	 -0.879864	 0.498643
C	 0.405869	 -0.035842	 0.036566
C	 1.526229	 -0.026516	 -0.997644
C	 0.514725	 1.199520	 0.932484
C	 0.479067	 -1.315891	 0.871258
H	 1.463625	 0.865699	 -1.607674
H	 1.439793	 -0.886740	 -1.649295
H	 2.497559	 -0.051110	 -0.518185
H	 0.396595	 2.101836	 0.344656
H	 1.486546	 1.228977	 1.410588
H	 -0.232428	 1.201559	 1.716270
H	 0.335742	 -2.184907	 0.240417
H	 1.449400	 -1.396098	 1.346546
H	 -0.268267	 -1.334798	 1.654649

	symmetry c1
}
set optking {
	frozen_dihedral = ("
		6 3 2 5
	")
}

ee = optimize('scf')
oeprop('DIPOLE', 'QUADRUPOLE', 'MULLIKEN_CHARGES')
f=open( 'psi4out.xyz', 'w' )
f.write( "18  " )
f.write( str(ee) + "\n" )
f.write( MOL.save_string_xyz() )
f.close()
--------------------------------------------------------------------------

    Molecular point group: c1
  Charge       = 0
  Multiplicity = 1
  Basis Set: CC-PVTZ
  Basis Set:
  @DF-RHF Final Energy:  -271.27675214244084
    Total Energy =                       -271.2767521424408415
    Molecular point group: c1
  Basis Set: CC-PVTZ
  Basis Set:
  Basis Set: CC-PVTZ
  Basis Set:
  @DF-RHF Final Energy:  -271.27674327939212
    Total Energy =                       -271.2767432793920079
  Basis Set: CC-PVTZ
  Basis Set:
  Basis Set: CC-PVTZ
  Basis Set:
  @DF-RHF Final Energy:  -271.27675542220550
    Total Energy =                       -271.2767554222054400
  Basis Set: CC-PVTZ
  Basis Set:
  Charge       = 0
  Multiplicity = 1
  Basis Set: CC-PVTZ
  Basis Set:

    Orbital Energies (a.u.)
    -----------------------

    Doubly Occupied:

       1A    -20.540646     2A    -11.280120     3A    -11.258043
       4A    -11.207226     5A    -11.206921     6A    -11.201795
       7A     -1.373667     8A     -1.074665     9A     -0.946729
      10A     -0.940840    11A     -0.913178    12A     -0.753506
      13A     -0.656652    14A     -0.646649    15A     -0.639411
      16A     -0.593874    17A     -0.575976    18A     -0.553315
      19A     -0.534333    20A     -0.524855    21A     -0.515069
      22A     -0.488244    23A     -0.487990    24A     -0.440784
      25A     -0.407716

  @DF-RHF Final Energy:  -271.27675550270504

   => Energetics <=

    Nuclear Repulsion Energy =            272.6681805465361208
    One-Electron Energy =                -908.3654680965179296
    Two-Electron Energy =                 364.4205320472768221
    DFT Exchange-Correlation Energy =       0.0000000000000000
    Empirical Dispersion Energy =           0.0000000000000000
    PCM Polarization Energy =               0.0000000000000000
    EFP Energy =                            0.0000000000000000
    Total Energy =                       -271.2767555027050435
    Molecular point group: c1
  Basis Set: CC-PVTZ
  Basis Set:

  -Total Gradient:
     Atom            X                  Y                   Z
    ------   -----------------  -----------------  -----------------
       1        0.000004771504     0.000011435694     0.000014609379
       2       -0.000031542706    -0.000097765876    -0.000063763554
       3        0.000008486126     0.000037975962     0.000009916590
       4        0.000011032028     0.000003465297    -0.000000430444
       5        0.000015151728     0.000042198531     0.000044608010
       6       -0.000000788915    -0.000009191774    -0.000002358151
       7        0.000000262111    -0.000022340987    -0.000003185918
       8        0.000027861222     0.000017941583     0.000030115764
       9       -0.000032772494     0.000017658930    -0.000030139916
      10       -0.000006739205     0.000002968516     0.000021124607
      11        0.000006823051     0.000004955422    -0.000020390817
      12       -0.000000996776    -0.000021299030    -0.000000685604
      13        0.000008543723    -0.000004192549    -0.000007504468
      14       -0.000015077360     0.000009549150     0.000011487228
      15       -0.000018027883     0.000000327061     0.000000545735
      16       -0.000006569766    -0.000003651785     0.000008878002
      17        0.000013942168     0.000011366074    -0.000011531531
      18        0.000015641444    -0.000001400223    -0.000001294915

  **** Optimization is complete! (in 4 steps) ****
    Final optimized geometry and variables:
    Molecular point group: c1

    Geometry (in Angstrom), charge = 0, multiplicity = 1:

    H           -2.164822559923     0.933287951008     0.485075189367
    C           -2.016511555691     0.040333900434    -0.113576212482
    O           -0.775162557165     0.020311872569    -0.739777734347
    H           -2.760863250205     0.033235195593    -0.897145893261
    H           -2.179942742322    -0.828747256171     0.515327837545
    C            0.406072020133    -0.008253188950     0.036874746051
    C            1.526476149015     0.005911280830    -0.997242856936
    C            0.509099021588     1.227360120347     0.933067492048
    C            0.485063883589    -1.288199064453     0.871261760836
    H            1.463078336434     0.900225000375    -1.604097374558
    H            1.440878772048    -0.852067670080    -1.651950674782
    H            2.497803570427    -0.019589938833    -0.517835124732
    H            0.387722602156     2.129552227282     0.345651728533
    H            1.480425604455     1.260701942082     1.411823763939
    H           -0.238753499060     1.225792619675     1.716242686503
    H            0.345597902039    -2.157385834042     0.239879956342
    H            1.455745537862    -1.364250040866     1.346595532974
    H           -0.262067706458    -1.311083612753     1.654673630789

  Mulliken Charges: (a.u.)
   Center  Symbol    Alpha    Beta     Spin     Total
       1     H     0.46956  0.46956  0.00000  0.06087
       2     C     3.04425  3.04425  0.00000 -0.08851
       3     O     4.18982  4.18982  0.00000 -0.37964
       4     H     0.44024  0.44024  0.00000  0.11953
       5     H     0.47001  0.47001  0.00000  0.05997
       6     C     2.87280  2.87280  0.00000  0.25440
       7     C     3.14153  3.14153  0.00000 -0.28306
       8     C     3.16503  3.16503  0.00000 -0.33005
       9     C     3.16390  3.16390  0.00000 -0.32781
      10     H     0.44894  0.44894  0.00000  0.10213
      11     H     0.44869  0.44869  0.00000  0.10261
      12     H     0.45938  0.45938  0.00000  0.08123
      13     H     0.44505  0.44505  0.00000  0.10990
      14     H     0.44816  0.44816  0.00000  0.10368
      15     H     0.44941  0.44941  0.00000  0.10119
      16     H     0.44518  0.44518  0.00000  0.10964
      17     H     0.44861  0.44861  0.00000  0.10278
      18     H     0.44943  0.44943  0.00000  0.10114

   Total alpha = 25.00000, Total beta = 25.00000, Total charge =  0.00000
