                              Psi4 1.0.54 Driver

  ==> Input File <==

--------------------------------------------------------------------------
set {
	reference rhf
	basis cc-pvtz
}

set_num_threads( 4 )
memory 2 gb

molecule MOL {
0 1

O	 2.846832	 1.386657	 0.190893
C	 2.773632	 0.270367	 0.589201
C	 1.477482	 -0.514109	 0.568618
C	 3.981260	 -0.447567	 1.148152
C	 0.288398	 0.247429	 0.000314
H	 1.656111	 -1.426679	 0.004370
H	 1.275746	 -0.839837	 1.586562
C	 -0.993089	 -0.581367	 -0.000217
H	 0.520683	 0.567400	 -1.009030
H	 0.140089	 1.154854	 0.574525
C	 -2.258482	 0.271340	 0.000669
H	 -1.002280	 -1.233920	 -0.870484
H	 -1.002061	 -1.235367	 0.868958
C	 -3.544441	 -0.550271	 -0.000253
H	 -2.250545	 0.925250	 -0.867923
H	 -2.250598	 0.923423	 0.870642
C	 -4.804551	 0.308747	 0.000556
H	 -3.553737	 -1.201524	 -0.870151
H	 -3.553831	 -1.203282	 0.868313
H	 -4.842050	 0.949078	 -0.874436
H	 -5.698404	 -0.304480	 -0.000254
H	 -4.842277	 0.947103	 0.876982
H	 4.179062	 -1.347699	 0.576589
H	 4.842234	 0.201941	 1.112716
H	 3.794802	 -0.750989	 2.172462

	symmetry c1
}
set optking {
	frozen_dihedral = ("
		9 5 8 12
	")
}

ee,wfn = optimize('scf', return_wfn=True)
oeprop( wfn, 'DIPOLE', 'QUADRUPOLE', 'MULLIKEN_CHARGES')
f=open( 'psi4out.xyz', 'w' )
f.write( "25  " )
f.write( str(ee) + "\n" )
f.write( MOL.save_string_xyz() )
f.close()
--------------------------------------------------------------------------

    Molecular point group: c1
  Charge       = 0
  Multiplicity = 1
  Basis Set: CC-PVTZ
  Basis Set:
  @DF-RHF Final Energy:  -387.27268880124325
    Total Energy =                       -387.2726888012431345
    Molecular point group: c1
  Basis Set: CC-PVTZ
  Basis Set:
  Basis Set: CC-PVTZ
  Basis Set:
  @DF-RHF Final Energy:  -387.27287596228047
    Total Energy =                       -387.2728759622805228
  Basis Set: CC-PVTZ
  Basis Set:
  Basis Set: CC-PVTZ
  Basis Set:
  @DF-RHF Final Energy:  -387.27277872196413
    Total Energy =                       -387.2727787219640732
  Basis Set: CC-PVTZ
  Basis Set:
  Basis Set: CC-PVTZ
  Basis Set:
  @DF-RHF Final Energy:  -387.27295508416864
    Total Energy =                       -387.2729550841685295
  Basis Set: CC-PVTZ
  Basis Set:
  Basis Set: CC-PVTZ
  Basis Set:
  @DF-RHF Final Energy:  -387.27295794254422
    Total Energy =                       -387.2729579425441671
  Basis Set: CC-PVTZ
  Basis Set:
  Charge       = 0
  Multiplicity = 1
  Basis Set: CC-PVTZ
  Basis Set:

    Orbital Energies (a.u.)
    -----------------------

    Doubly Occupied:

       1A    -20.538826     2A    -11.320312     3A    -11.230055
       4A    -11.226498     5A    -11.215310     6A    -11.214707
       7A    -11.213489     8A    -11.211571     9A    -11.206526
      10A     -1.398811    11A     -1.094685    12A     -1.057516
      13A     -1.015270    14A     -0.970100    15A     -0.891132
      16A     -0.815048    17A     -0.791145    18A     -0.731166
      19A     -0.662864    20A     -0.653235    21A     -0.634671
      22A     -0.625753    23A     -0.597559    24A     -0.584087
      25A     -0.567695    26A     -0.561569    27A     -0.540885
      28A     -0.525983    29A     -0.514277    30A     -0.493425
      31A     -0.488392    32A     -0.474909    33A     -0.463505
      34A     -0.462699    35A     -0.451471    36A     -0.401070

  @DF-RHF Final Energy:  -387.27295842780131

   => Energetics <=

    Nuclear Repulsion Energy =            439.1751701300316881
    One-Electron Energy =               -1395.2038144047355672
    Two-Electron Energy =                 568.7556858469024519
    DFT Exchange-Correlation Energy =       0.0000000000000000
    Empirical Dispersion Energy =           0.0000000000000000
    PCM Polarization Energy =               0.0000000000000000
    EFP Energy =                            0.0000000000000000
    Total Energy =                       -387.2729584278014272
    Molecular point group: c1
  Basis Set: CC-PVTZ
  Basis Set:

  -Total Gradient:
     Atom            X                  Y                   Z
    ------   -----------------  -----------------  -----------------
       1        0.000004075032    -0.000017828815     0.000009047313
       2        0.000025827172     0.000006022480    -0.000004267687
       3        0.000008854647     0.000022270504    -0.000033931251
       4       -0.000004867987     0.000005199717     0.000013284196
       5       -0.003037528951     0.004633213836     0.000187868042
       6       -0.000000011789    -0.000013521401    -0.000001471665
       7       -0.000008516621     0.000004284616     0.000012730460
       8        0.002719496711    -0.004116546190     0.002439863996
       9        0.002122556361    -0.003229500894    -0.000511274298
      10        0.000007542919     0.000003477816    -0.000003196123
      11        0.000015276419    -0.000010902958    -0.000017862306
      12       -0.001823136091     0.002722833085    -0.002063701007
      13        0.000002019715    -0.000009279705     0.000000331024
      14       -0.000016914919     0.000001433598    -0.000018646870
      15       -0.000000910582     0.000007395856    -0.000012805092
      16        0.000013341600     0.000002944994     0.000007855059
      17        0.000003817236    -0.000008978394     0.000013576681
      18       -0.000002662209    -0.000008113480    -0.000012705629
      19       -0.000004711410    -0.000006872185     0.000007073493
      20        0.000003541418     0.000000962344    -0.000011068379
      21       -0.000014198761    -0.000005670333     0.000003774859
      22       -0.000001786451     0.000010838731     0.000010754080
      23       -0.000002545011     0.000010665074    -0.000000586669
      24       -0.000011076933    -0.000000889305    -0.000002658267
      25        0.000002518491    -0.000003438992    -0.000011983958

  **** Optimization is complete! (in 6 steps) ****
    Final optimized geometry and variables:
    Molecular point group: c1

    Geometry (in Angstrom), charge = 0, multiplicity = 1:

    O            2.890372460299     1.320920378001    -0.145863805484
    C            2.818879704908     0.214661080250     0.279894507274
    C            1.512623741725    -0.551530021364     0.330042499382
    C            4.038893706643    -0.507582635092     0.805568929708
    C            0.308336316375     0.216556101436    -0.201185993396
    H            1.653941460202    -1.476498997232    -0.225109113172
    H            1.351265449368    -0.856753129733     1.361308239693
    C           -0.970629023849    -0.624701699797    -0.188730786118
    H            0.532213945959     0.526234347273    -1.214723828912
    H            0.176388468480     1.118984282215     0.383176062615
    C           -2.239197773784     0.224933901778    -0.239784090697
    H           -0.972968147412    -1.283730966844    -1.052963587196
    H           -0.999901059050    -1.255594004382     0.695578212060
    C           -3.521365293860    -0.599877732837    -0.302656391869
    H           -2.193885946278     0.884082577682    -1.103633655435
    H           -2.271625021076     0.872301578469     0.633153455177
    C           -4.783502719573     0.255388346888    -0.340235116626
    H           -3.494285188381    -1.239554758503    -1.180704562089
    H           -3.562920998908    -1.264693984706     0.556188411141
    H           -4.788343862988     0.907392128869    -1.207385120919
    H           -5.674580812338    -0.360312653185    -0.384793624920
    H           -4.858224477496     0.881760309051     0.542496357424
    H            4.200414185446    -1.423478429444     0.247840540643
    H            4.906493218299     0.128253368568     0.719284939751
    H            3.891016195425    -0.784369999801     1.843604470298

  Mulliken Charges: (a.u.)
   Center  Symbol    Alpha    Beta     Spin     Total
       1     O     4.17063  4.17063  0.00000 -0.34127
       2     C     2.86268  2.86268  0.00000  0.27463
       3     C     3.11437  3.11437  0.00000 -0.22875
       4     C     3.15117  3.15117  0.00000 -0.30234
       5     C     3.08444  3.08444  0.00000 -0.16888
       6     H     0.44476  0.44476  0.00000  0.11047
       7     H     0.44570  0.44570  0.00000  0.10859
       8     C     3.09093  3.09093  0.00000 -0.18186
       9     H     0.44501  0.44501  0.00000  0.10997
      10     H     0.44616  0.44616  0.00000  0.10768
      11     C     3.08659  3.08659  0.00000 -0.17318
      12     H     0.45406  0.45406  0.00000  0.09187
      13     H     0.45637  0.45637  0.00000  0.08726
      14     C     3.08454  3.08454  0.00000 -0.16907
      15     H     0.45283  0.45283  0.00000  0.09435
      16     H     0.45473  0.45473  0.00000  0.09054
      17     C     3.15013  3.15013  0.00000 -0.30026
      18     H     0.45487  0.45487  0.00000  0.09025
      19     H     0.45536  0.45536  0.00000  0.08928
      20     H     0.45464  0.45464  0.00000  0.09072
      21     H     0.44871  0.44871  0.00000  0.10258
      22     H     0.45504  0.45504  0.00000  0.08992
      23     H     0.45046  0.45046  0.00000  0.09908
      24     H     0.43539  0.43539  0.00000  0.12922
      25     H     0.45041  0.45041  0.00000  0.09918

   Total alpha = 36.00000, Total beta = 36.00000, Total charge = -0.00000

*** Psi4 exiting successfully. Buy a developer a beer!
