                              Psi4 1.0.54 Driver

  ==> Input File <==

--------------------------------------------------------------------------
set {
	reference rhf
	basis cc-pvtz
}

set_num_threads( 4 )
memory 2 gb

molecule MOL {
0 1

H	 -0.898954	 -1.036931	 -0.813471
O	 -1.432053	 -0.565244	 -0.200812
C	 -0.727158	 0.534527	 0.310686
C	 0.680222	 0.664433	 -0.252229
H	 -1.306802	 1.408001	 0.044211
H	 -0.690821	 0.490158	 1.397609
C	 1.605391	 -0.489360	 0.123098
H	 0.615089	 0.745647	 -1.332226
H	 1.101414	 1.597893	 0.110950
H	 1.247627	 -1.432485	 -0.275204
H	 2.601435	 -0.332816	 -0.273062
H	 1.691776	 -0.589902	 1.200774

	symmetry c1
}
set optking {
	frozen_dihedral = ("
		1 2 3 4
	")
}

ee,wfn = optimize('scf', return_wfn=True)
oeprop( wfn, 'DIPOLE', 'QUADRUPOLE', 'MULLIKEN_CHARGES')
f=open( 'psi4out.xyz', 'w' )
f.write( "12  " )
f.write( str(ee) + "\n" )
f.write( MOL.save_string_xyz() )
f.close()
--------------------------------------------------------------------------

    Molecular point group: c1
  Charge       = 0
  Multiplicity = 1
  Basis Set: CC-PVTZ
  Basis Set:
  @DF-RHF Final Energy:  -193.18756679202292
    Total Energy =                       -193.1875667920229205
    Molecular point group: c1
  Basis Set: CC-PVTZ
  Basis Set:
  Basis Set: CC-PVTZ
  Basis Set:
  @DF-RHF Final Energy:  -193.18794676588169
    Total Energy =                       -193.1879467658816338
  Basis Set: CC-PVTZ
  Basis Set:
  Basis Set: CC-PVTZ
  Basis Set:
  @DF-RHF Final Energy:  -193.18809272816662
    Total Energy =                       -193.1880927281665095
  Basis Set: CC-PVTZ
  Basis Set:
  Basis Set: CC-PVTZ
  Basis Set:
  @DF-RHF Final Energy:  -193.18809997628395
    Total Energy =                       -193.1880999762840645
  Basis Set: CC-PVTZ
  Basis Set:
  Charge       = 0
  Multiplicity = 1
  Basis Set: CC-PVTZ
  Basis Set:

    Orbital Energies (a.u.)
    -----------------------

    Doubly Occupied:

       1A    -20.543248     2A    -11.265420     3A    -11.225376
       4A    -11.217989     5A     -1.361714     6A     -1.055761
       7A     -0.929350     8A     -0.820665     9A     -0.669897
      10A     -0.645242    11A     -0.633347    12A     -0.577427
      13A     -0.551139    14A     -0.512151    15A     -0.493604
      16A     -0.466273    17A     -0.434624

  @DF-RHF Final Energy:  -193.18810048303993

   => Energetics <=

    Nuclear Repulsion Energy =            133.2244284687037634
    One-Electron Energy =                -526.0186029100617588
    Two-Electron Energy =                 199.6060739583179497
    DFT Exchange-Correlation Energy =       0.0000000000000000
    Empirical Dispersion Energy =           0.0000000000000000
    PCM Polarization Energy =               0.0000000000000000
    EFP Energy =                            0.0000000000000000
    Total Energy =                       -193.1881004830400457
    Molecular point group: c1
  Basis Set: CC-PVTZ
  Basis Set:

  -Total Gradient:
     Atom            X                  Y                   Z
    ------   -----------------  -----------------  -----------------
       1        0.000121670215    -0.000286314022     0.000325528916
       2       -0.000258359777     0.000314013425    -0.000554369733
       3        0.000180825185    -0.000302038545     0.000419014510
       4       -0.000068621969     0.000225583106    -0.000194208406
       5        0.000013827628     0.000006617523     0.000009617542
       6       -0.000011272354     0.000036443007     0.000021341294
       7        0.000001356497    -0.000008786630     0.000019122019
       8        0.000002822517     0.000035752286    -0.000031837667
       9        0.000024060156    -0.000012601883    -0.000020039978
      10       -0.000011858047    -0.000003823927     0.000003863390
      11       -0.000002951257     0.000003408108    -0.000002065415
      12        0.000008501208    -0.000008252446     0.000004033527

  **** Optimization is complete! (in 5 steps) ****
    Final optimized geometry and variables:
    Molecular point group: c1

    Geometry (in Angstrom), charge = 0, multiplicity = 1:

    H           -0.909960732365    -1.039545413924    -0.840048292126
    O           -1.445069732524    -0.554737166175    -0.241203338131
    C           -0.734876527525     0.531973315867     0.297505565734
    C            0.692805509768     0.649911772787    -0.212364283320
    H           -1.277487953151     1.439808590651     0.057865345774
    H           -0.730652477035     0.431605218429     1.378671657056
    C            1.601014445954    -0.505321812464     0.202952093926
    H            0.674055001318     0.738524262550    -1.296076364425
    H            1.104499613445     1.581506634380     0.162384715513
    H            1.241989383914    -1.460603675804    -0.164170900150
    H            2.603437008941    -0.366184533142    -0.183768998767
    H            1.666353144246    -0.576752716370     1.282936373225

  Mulliken Charges: (a.u.)
   Center  Symbol    Alpha    Beta     Spin     Total
       1     H     0.39183  0.39183  0.00000  0.21633
       2     O     4.20839  4.20839  0.00000 -0.41678
       3     C     2.95105  2.95105  0.00000  0.09790
       4     C     3.10664  3.10664  0.00000 -0.21328
       5     H     0.46390  0.46390  0.00000  0.07221
       6     H     0.47385  0.47385  0.00000  0.05231
       7     C     3.14249  3.14249  0.00000 -0.28498
       8     H     0.45168  0.45168  0.00000  0.09664
       9     H     0.45115  0.45115  0.00000  0.09771
      10     H     0.45947  0.45947  0.00000  0.08106
      11     H     0.44736  0.44736  0.00000  0.10528
      12     H     0.45220  0.45220  0.00000  0.09559

   Total alpha = 17.00000, Total beta = 17.00000, Total charge = -0.00000

*** Psi4 exiting successfully. Buy a developer a beer!
