  ==> Input File <==

--------------------------------------------------------------------------
set {
	reference rhf
	basis 6-31G*
}

set_num_threads( 4 )
memory 2 gb

molecule MOL {
0 1

O	 -0.223632	 -2.225502	 -0.432607
C	 -1.291773	 -1.743482	 -0.229271
C	 -2.577030	 -2.530098	 -0.204367
O	 -1.481751	 -0.454642	 0.000584
H	 -2.498852	 -3.300422	 0.553492
H	 -3.430871	 -1.900615	 -0.001526
H	 -2.701788	 -3.023085	 -1.161069
C	 -0.334255	 0.388708	 0.000906
C	 0.891947	 -0.504646	 0.000751
H	 -0.365390	 1.025305	 -0.873475
H	 -0.365484	 1.024911	 0.875569
C	 2.191998	 0.301789	 0.000897
H	 0.855148	 -1.151283	 -0.871571
H	 0.855132	 -1.151660	 0.872805
C	 3.441114	 -0.581407	 0.000108
H	 2.215074	 0.954890	 -0.869742
H	 2.215465	 0.953923	 0.872248
C	 4.739576	 0.224112	 -0.001102
H	 3.419457	 -1.233487	 -0.870178
H	 3.420834	 -1.233096	 0.870717
H	 4.804918	 0.861552	 -0.878265
H	 5.606527	 -0.429058	 -0.001824
H	 4.806469	 0.861674	 0.875853

	symmetry c1
}
set optking {
	frozen_dihedral = ("
		2 4 8 10
	")
}

ee = optimize('scf')
oeprop('DIPOLE', 'QUADRUPOLE', 'MULLIKEN_CHARGES')
f=open( 'psi4out.xyz', 'w' )
f.write( "23  " )
f.write( str(ee) + "\n" )
f.write( MOL.save_string_xyz() )
f.close()
--------------------------------------------------------------------------

    Molecular point group: c1
  Charge       = 0
  Multiplicity = 1
  Basis Set: 6-31G*
  Basis Set:
  @DF-RHF Final Energy:  -422.89604534432465
    Total Energy =                       -422.8960453443246479
    Molecular point group: c1
  Basis Set: 6-31G*
  Basis Set:
  Basis Set: 6-31G*
  Basis Set:
  @DF-RHF Final Energy:  -422.93675103248444
    Total Energy =                       -422.9367510324841533
  Basis Set: 6-31G*
  Basis Set:
  Basis Set: 6-31G*
  Basis Set:
  @DF-RHF Final Energy:  -422.95635890185991
    Total Energy =                       -422.9563589018603125
  Basis Set: 6-31G*
  Basis Set:
  Basis Set: 6-31G*
  Basis Set:
  @DF-RHF Final Energy:  -422.96266506684481
    Total Energy =                       -422.9626650668449201
  Basis Set: 6-31G*
  Basis Set:
  @DF-RHF Final Energy:  -422.96367077562417
    Total Energy =                       -422.9636707756250189
  @DF-RHF Final Energy:  -422.96719266967568
    Total Energy =                       -422.9671926696755691
  @DF-RHF Final Energy:  -422.96758462258390
    Total Energy =                       -422.9675846225838995
  @DF-RHF Final Energy:  -422.96763009366322
    Total Energy =                       -422.9676300936632742
  @DF-RHF Final Energy:  -422.96765133348060
    Total Energy =                       -422.9676513334816264
  @DF-RHF Final Energy:  -422.96765658110638
    Total Energy =                       -422.9676565811067803
  @DF-RHF Final Energy:  -422.96765845513687
    Total Energy =                       -422.9676584551367569
  @DF-RHF Final Energy:  -422.96766034307456
    Total Energy =                       -422.9676603430744990
  @DF-RHF Final Energy:  -422.96766482134962
    Total Energy =                       -422.9676648213500130
  @DF-RHF Final Energy:  -422.94127979292108
    Total Energy =                       -422.9412797929210228
  @DF-RHF Final Energy:  -422.87844496829342
    Total Energy =                       -422.8784449682933655
  @DF-RHF Final Energy:  -422.85308676677687
    Total Energy =                       -422.8530867667776647
  @DF-RHF Final Energy:  -422.93598571105849
    Total Energy =                       -422.9359857110591747
  @DF-RHF Final Energy:  -422.92880654619898
    Total Energy =                       -422.9288065461985298
  @DF-RHF Final Energy:  -422.96120016714400
    Total Energy =                       -422.9612001671450798
  @DF-RHF Final Energy:  -422.96610331428468
    Total Energy =                       -422.9661033142849647
  @DF-RHF Final Energy:  -422.96764371700590
    Total Energy =                       -422.9676437170057852
  @DF-RHF Final Energy:  -422.96764494837555
    Total Energy =                       -422.9676449483756642
  @DF-RHF Final Energy:  -422.96764261768442
    Total Energy =                       -422.9676426176845325
  @DF-RHF Final Energy:  -422.96764516541140
    Total Energy =                       -422.9676451654117955
  @DF-RHF Final Energy:  -422.96764566175807
    Total Energy =                       -422.9676456617580698
  @DF-RHF Final Energy:  -422.96764537919199
    Total Energy =                       -422.9676453791922768
  @DF-RHF Final Energy:  -422.96764489406627
    Total Energy =                       -422.9676448940656428
  @DF-RHF Final Energy:  -422.96764482927068
    Total Energy =                       -422.9676448292705118
  @DF-RHF Final Energy:  -422.94617702748991
    Total Energy =                       -422.9461770274899663
  @DF-RHF Final Energy:  -422.91506629882423
    Total Energy =                       -422.9150662988236036
  @DF-RHF Final Energy:  -422.89910890555547
    Total Energy =                       -422.8991089055558632
  @DF-RHF Final Energy:  -422.92798245929748
    Total Energy =                       -422.9279824592972545
  @DF-RHF Final Energy:  -422.95651911062077
    Total Energy =                       -422.9565191106215707
  @DF-RHF Final Energy:  -422.96481778730282
    Total Energy =                       -422.9648177873024224
  @DF-RHF Final Energy:  -422.96658031676128
    Total Energy =                       -422.9665803167620197
  @DF-RHF Final Energy:  -422.96707226435950
    Total Energy =                       -422.9670722643597855
  Basis Set: 6-31G*
  Basis Set:
  @DF-RHF Final Energy:  -422.96724220603534
    Total Energy =                       -422.9672422060353938
  Basis Set: 6-31G*
  Basis Set:
  Basis Set: 6-31G*
  Basis Set:
  @DF-RHF Final Energy:  -422.96741996927483
    Total Energy =                       -422.9674199692749426
  Basis Set: 6-31G*
  Basis Set:
  Basis Set: 6-31G*
  Basis Set:
  @DF-RHF Final Energy:  -422.96752825313882
    Total Energy =                       -422.9675282531393350
  Basis Set: 6-31G*
  Basis Set:
  Charge       = 0
  Multiplicity = 1
  Basis Set: 6-31G*
  Basis Set:

    Orbital Energies (a.u.)
    -----------------------

    Doubly Occupied:

       1A    -20.599622     2A    -20.537214     3A    -11.375519
       4A    -11.288097     5A    -11.229649     6A    -11.221408
       7A    -11.218447     8A    -11.217798     9A    -11.210654
      10A     -1.460463    11A     -1.361109    12A     -1.091058
      13A     -1.039981    14A     -0.999994    15A     -0.933608
      16A     -0.858264    17A     -0.798406    18A     -0.748093
      19A     -0.690071    20A     -0.676765    21A     -0.669797
      22A     -0.643009    23A     -0.604842    24A     -0.589154
      25A     -0.580393    26A     -0.565300    27A     -0.556012
      28A     -0.532956    29A     -0.522421    30A     -0.514664
      31A     -0.495675    32A     -0.476058    33A     -0.468545
      34A     -0.454816    35A     -0.439460    36A     -0.425805

  @DF-RHF Final Energy:  -422.96760748250932

   => Energetics <=

    Nuclear Repulsion Energy =            457.1940819826050415
    One-Electron Energy =               -1482.1331305268217875
    Two-Electron Energy =                 601.9714410617068552
    DFT Exchange-Correlation Energy =       0.0000000000000000
    Empirical Dispersion Energy =           0.0000000000000000
    PCM Polarization Energy =               0.0000000000000000
    EFP Energy =                            0.0000000000000000
    Total Energy =                       -422.9676074825099477
    Molecular point group: c1
  Basis Set: 6-31G*
  Basis Set:

  -Total Gradient:
     Atom            X                  Y                   Z
    ------   -----------------  -----------------  -----------------
       1       -0.001088918323     0.001996391337     0.001375091680
       2        0.000939057451    -0.002879077031     0.001936376661
       3        0.000897059925     0.001533913272     0.001073597515
       4        0.000464507178     0.002745124947    -0.003390876956
       5       -0.000155993978    -0.000383206874    -0.000267542527
       6        0.000303190788    -0.000656428365    -0.000125466203
       7       -0.000831873550    -0.000537270482    -0.000725034394
       8        0.001868517638    -0.004998276367    -0.001335967155
       9       -0.000035767052     0.000094890449    -0.001823874903
      10       -0.000694207801     0.004060861792     0.002280168530
      11       -0.001908560329    -0.000419476838    -0.000202424014
      12        0.000679421905    -0.000832793028     0.000100921338
      13       -0.000257316271    -0.000253147250     0.000421886336
      14        0.000283804298    -0.000213504718     0.001222748112
      15       -0.001695828424     0.000347470115    -0.000473985140
      16       -0.000172771664     0.000683053111    -0.000495877981
      17       -0.000413355944     0.000575136387    -0.000098082329
      18        0.000461901439    -0.000406544596     0.000265146937
      19        0.000528871848    -0.000403890012    -0.000071932606
      20        0.000686925923    -0.000496453958     0.000081484902
      21       -0.000014708526    -0.000202977288    -0.000079283127
      22        0.000026883061     0.000445017841     0.000159095641
      23        0.000129160414     0.000201187563     0.000173829684

    Molecular point group: c1

    Geometry (in Angstrom), charge = 0, multiplicity = 1:

    O           -1.314557372527    -1.776736655228    -0.661604287950
    C           -2.137314634152    -1.045102001129    -0.217635336977
    C           -3.544779012142    -1.481169630655     0.103747000593
    O           -1.957538643236     0.233166777128     0.070534244199
    H           -3.528565982861    -2.028725180163     1.040272606706
    H           -4.214954297261    -0.640863007263     0.199700284272
    H           -3.893444764716    -2.157790404799    -0.666526731385
    C           -0.719374505792     0.949460854045     0.030766626167
    C            0.592108595342     0.174036167315     0.027229850523
    H           -0.782615649228     1.634530143926    -0.807422438455
    H           -0.773154897964     1.559492780311     0.922827666047
    C            1.768677028024     1.148459842456     0.137756650249
    H            0.682479705646    -0.429563068078    -0.862955290860
    H            0.610060167269    -0.510089157956     0.871724159262
    C            3.121904434567     0.438063410499     0.183322573387
    H            1.753958827650     1.841479998774    -0.703914297758
    H            1.653806645045     1.761978143421     1.030840080222
    C            4.297930780172     1.405661284593     0.321620879203
    H            3.251321832810    -0.159802517608    -0.716248459894
    H            3.137107586116    -0.264034505774     1.014622816476
    H            4.349941541521     2.082495159892    -0.526582146208
    H            5.242366224750     0.873981401898     0.376847737932
    H            4.207239204470     2.009652609508     1.220499315617

  Mulliken Charges: (a.u.)
   Center  Symbol    Alpha    Beta     Spin     Total
       1     O     4.28235  4.28235  0.00000 -0.56470
       2     C     2.61520  2.61520  0.00000  0.76959
       3     C     3.28613  3.28613  0.00000 -0.57227
       4     O     4.32307  4.32307  0.00000 -0.64613
       5     H     0.39946  0.39946  0.00000  0.20107
       6     H     0.40042  0.40042  0.00000  0.19915
       7     H     0.39850  0.39850  0.00000  0.20299
       8     C     2.98267  2.98267  0.00000  0.03465
       9     C     3.17369  3.17369  0.00000 -0.34739
      10     H     0.41486  0.41486  0.00000  0.17028
      11     H     0.41327  0.41327  0.00000  0.17346
      12     C     3.16161  3.16161  0.00000 -0.32321
      13     H     0.39485  0.39485  0.00000  0.21029
      14     H     0.41499  0.41499  0.00000  0.17002
      15     C     3.15076  3.15076  0.00000 -0.30153
      16     H     0.42240  0.42240  0.00000  0.15521
      17     H     0.42423  0.42423  0.00000  0.15154
      18     C     3.23986  3.23986  0.00000 -0.47973
      19     H     0.41918  0.41918  0.00000  0.16164
      20     H     0.42096  0.42096  0.00000  0.15807
      21     H     0.42153  0.42153  0.00000  0.15693
      22     H     0.41796  0.41796  0.00000  0.16409
      23     H     0.42202  0.42202  0.00000  0.15596

   Total alpha = 36.00000, Total beta = 36.00000, Total charge = -0.00000
