  ==> Input File <==

--------------------------------------------------------------------------
set {
	reference rhf
	basis 6-31G*
}

set_num_threads( 4 )
memory 2 gb

molecule MOL {
0 1

H	 -1.070890	 -1.366565	 0.180696
O	 -1.422729	 -0.573567	 -0.196946
C	 -0.731407	 0.539437	 0.309156
C	 0.680193	 0.672443	 -0.251532
H	 -1.319765	 1.404033	 0.030086
H	 -0.700012	 0.506517	 1.397677
C	 1.424147	 1.911212	 0.248156
H	 1.241193	 -0.220510	 0.008391
H	 0.614177	 0.702326	 -1.337022
H	 1.571931	 1.878234	 1.323455
H	 2.405774	 1.986535	 -0.207587
H	 0.880110	 2.821926	 0.009648

	symmetry c1
}
set optking {
	frozen_dihedral = ("
		8 4 3 2
	")
}

ee = optimize('scf')
oeprop('DIPOLE', 'QUADRUPOLE', 'MULLIKEN_CHARGES')
f=open( 'psi4out.xyz', 'w' )
f.write( "12  " )
f.write( str(ee) + "\n" )
f.write( MOL.save_string_xyz() )
f.close()
--------------------------------------------------------------------------

    Molecular point group: c1
  Charge       = 0
  Multiplicity = 1
  Basis Set: 6-31G*
  Basis Set:
  @DF-RHF Final Energy:  -193.11012678433525
    Total Energy =                       -193.1101267843353355
    Molecular point group: c1
  Basis Set: 6-31G*
  Basis Set:
  Basis Set: 6-31G*
  Basis Set:
  @DF-RHF Final Energy:  -193.11034037963927
    Total Energy =                       -193.1103403796393252
  Basis Set: 6-31G*
  Basis Set:
  Basis Set: 6-31G*
  Basis Set:
  @DF-RHF Final Energy:  -193.11037544469676
    Total Energy =                       -193.1103754446967571
  Basis Set: 6-31G*
  Basis Set:
  Basis Set: 6-31G*
  Basis Set:
  @DF-RHF Final Energy:  -193.11037690569341
    Total Energy =                       -193.1103769056933288
  Basis Set: 6-31G*
  Basis Set:
  Charge       = 0
  Multiplicity = 1
  Basis Set: 6-31G*
  Basis Set:

    Orbital Energies (a.u.)
    -----------------------

    Doubly Occupied:

       1A    -20.553041     2A    -11.267704     3A    -11.219752
       4A    -11.216811     5A     -1.360107     6A     -1.053812
       7A     -0.918553     8A     -0.819252     9A     -0.693824
      10A     -0.634919    11A     -0.597676    12A     -0.586789
      13A     -0.545633    14A     -0.501600    15A     -0.499058
      16A     -0.468962    17A     -0.429412

  @DF-RHF Final Energy:  -193.11037732892197

   => Energetics <=

    Nuclear Repulsion Energy =            130.9469169692003447
    One-Electron Energy =                -521.3807764239259086
    Two-Electron Energy =                 197.3234821258037073
    DFT Exchange-Correlation Energy =       0.0000000000000000
    Empirical Dispersion Energy =           0.0000000000000000
    PCM Polarization Energy =               0.0000000000000000
    EFP Energy =                            0.0000000000000000
    Total Energy =                       -193.1103773289218566
    Molecular point group: c1
  Basis Set: 6-31G*
  Basis Set:

  -Total Gradient:
     Atom            X                  Y                   Z
    ------   -----------------  -----------------  -----------------
       1        0.000004216777    -0.000024368537    -0.000002947184
       2        0.000043130237    -0.000022639817     0.000073549234
       3       -0.000036331086     0.000109779303    -0.000100860980
       4        0.000060065058     0.000023793635     0.000124971330
       5       -0.000000620241     0.000014279795    -0.000007117310
       6       -0.000002773776    -0.000039669250    -0.000001365768
       7       -0.000018463050    -0.000027508317    -0.000013354398
       8       -0.000019314706    -0.000031630873    -0.000048875471
       9       -0.000003870193     0.000008647310    -0.000022526565
      10        0.000012744799    -0.000016129855     0.000001968033
      11       -0.000027183859    -0.000010161015     0.000008001408
      12       -0.000011599959     0.000015607624    -0.000011442329

  **** Optimization is complete! (in 5 steps) ****
    Final optimized geometry and variables:
    Molecular point group: c1

    Geometry (in Angstrom), charge = 0, multiplicity = 1:

    H           -0.947675358415    -1.957253861664     0.070824997287
    O           -1.383391018004    -1.163663057946    -0.207266878329
    C           -0.682984979572    -0.051333576015     0.284156981451
    C            0.720822025693     0.062048390477    -0.297205352755
    H           -1.271462667304     0.814705702061     0.007711765012
    H           -0.637726951635    -0.076276088534     1.372405008322
    C            1.466173115938     1.298554883465     0.203375611179
    H            1.285965179277    -0.833145468318    -0.040838919225
    H            0.644103776613     0.080962111737    -1.380278404491
    H            1.573759028418     1.285337561034     1.284402483675
    H            2.460871234911     1.354697623421    -0.225673062116
    H            0.939593777815     2.209899605380    -0.065271938539

  Mulliken Charges: (a.u.)
   Center  Symbol    Alpha    Beta     Spin     Total
       1     H     0.28325  0.28325  0.00000  0.43349
       2     O     4.37006  4.37006  0.00000 -0.74011
       3     C     2.98870  2.98870  0.00000  0.02260
       4     C     3.16650  3.16650  0.00000 -0.33300
       5     H     0.41671  0.41671  0.00000  0.16657
       6     H     0.43209  0.43209  0.00000  0.13583
       7     C     3.24732  3.24732  0.00000 -0.49463
       8     H     0.42777  0.42777  0.00000  0.14446
       9     H     0.41293  0.41293  0.00000  0.17413
      10     H     0.42060  0.42060  0.00000  0.15880
      11     H     0.41531  0.41531  0.00000  0.16939
      12     H     0.41876  0.41876  0.00000  0.16247

   Total alpha = 17.00000, Total beta = 17.00000, Total charge =  0.00000
