                              Psi4 1.0.54 Driver

  ==> Input File <==

--------------------------------------------------------------------------
set {
	reference rhf
	basis cc-pvtz
}

set_num_threads( 4 )
memory 2 gb

molecule MOL {
0 1

O	 -2.440701	 -0.934798	 -0.415053
C	 -1.922978	 0.063265	 -0.045005
C	 -2.632749	 1.372204	 0.158357
O	 -0.637375	 0.157174	 0.243149
H	 -2.187724	 2.129143	 -0.474664
H	 -3.677681	 1.257276	 -0.079438
H	 -2.516788	 1.693160	 1.185542
C	 0.162530	 -1.009518	 0.097799
C	 1.587210	 -0.664190	 0.477086
H	 0.096803	 -1.356267	 -0.924704
H	 -0.233803	 -1.785900	 0.736810
C	 2.256770	 0.342732	 -0.454344
H	 2.154716	 -1.590834	 0.479041
H	 1.598751	 -0.289614	 1.496104
C	 1.302064	 1.435769	 -0.922772
H	 3.100821	 0.796050	 0.058665
H	 2.662173	 -0.177443	 -1.314524
H	 1.803385	 2.138154	 -1.578300
H	 0.901715	 1.994881	 -0.083422
H	 0.463864	 1.015300	 -1.468338

	symmetry c1
}
set optking {
	frozen_dihedral = ("
		16 12 9 8
	")
}

ee,wfn = optimize('scf', return_wfn=True)
oeprop( wfn, 'DIPOLE', 'QUADRUPOLE', 'MULLIKEN_CHARGES')
f=open( 'psi4out.xyz', 'w' )
f.write( "20  " )
f.write( str(ee) + "\n" )
f.write( MOL.save_string_xyz() )
f.close()
--------------------------------------------------------------------------

    Molecular point group: c1
  Charge       = 0
  Multiplicity = 1
  Basis Set: CC-PVTZ
  Basis Set:
  @DF-RHF Final Energy:  -384.07358026388812
    Total Energy =                       -384.0735802638877203
    Molecular point group: c1
  Basis Set: CC-PVTZ
  Basis Set:
  Basis Set: CC-PVTZ
  Basis Set:
  @DF-RHF Final Energy:  -384.05476382677944
    Total Energy =                       -384.0547638267790944
  Basis Set: CC-PVTZ
  Basis Set:
  Basis Set: CC-PVTZ
  Basis Set:
  @DF-RHF Final Energy:  -384.07986941621556
    Total Energy =                       -384.0798694162158426
  Basis Set: CC-PVTZ
  Basis Set:
  Basis Set: CC-PVTZ
  Basis Set:
  @DF-RHF Final Energy:  -384.08084965235992
    Total Energy =                       -384.0808496523601434
  Basis Set: CC-PVTZ
  Basis Set:
  @DF-RHF Final Energy:  -384.07916731219001
    Total Energy =                       -384.0791673121900658
  @DF-RHF Final Energy:  -384.08145915711674
    Total Energy =                       -384.0814591571162282
  Basis Set: CC-PVTZ
  Basis Set:
  @DF-RHF Final Energy:  -384.08160544621359
    Total Energy =                       -384.0816054462137572
  Basis Set: CC-PVTZ
  Basis Set:
  Basis Set: CC-PVTZ
  Basis Set:
  @DF-RHF Final Energy:  -384.08163250217467
    Total Energy =                       -384.0816325021745570
  Basis Set: CC-PVTZ
  Basis Set:
  Basis Set: CC-PVTZ
  Basis Set:
  @DF-RHF Final Energy:  -384.08164020324170
    Total Energy =                       -384.0816402032415908
  Basis Set: CC-PVTZ
  Basis Set:
  Charge       = 0
  Multiplicity = 1
  Basis Set: CC-PVTZ
  Basis Set:

    Orbital Energies (a.u.)
    -----------------------

    Doubly Occupied:

       1A    -20.594048     2A    -20.532758     3A    -11.366668
       4A    -11.280481     5A    -11.231650     6A    -11.224261
       7A    -11.221072     8A    -11.208202     9A     -1.471240
      10A     -1.365329    11A     -1.084218    12A     -1.027428
      13A     -0.980026    14A     -0.892684    15A     -0.797956
      16A     -0.779954    17A     -0.692728    18A     -0.690660
      19A     -0.668137    20A     -0.625309    21A     -0.610799
      22A     -0.585137    23A     -0.572493    24A     -0.555670
      25A     -0.550325    26A     -0.529855    27A     -0.516227
      28A     -0.481703    29A     -0.477155    30A     -0.467712
      31A     -0.448649    32A     -0.441262

  @DF-RHF Final Energy:  -384.08164167039087

   => Energetics <=

    Nuclear Repulsion Energy =            395.1872319433771850
    One-Electron Energy =               -1306.5941549886592838
    Two-Electron Energy =                 527.3252813748912331
    DFT Exchange-Correlation Energy =       0.0000000000000000
    Empirical Dispersion Energy =           0.0000000000000000
    PCM Polarization Energy =               0.0000000000000000
    EFP Energy =                            0.0000000000000000
    Total Energy =                       -384.0816416703909226
    Molecular point group: c1
  Basis Set: CC-PVTZ
  Basis Set:

  -Total Gradient:
     Atom            X                  Y                   Z
    ------   -----------------  -----------------  -----------------
       1        0.000028472468     0.000037322835     0.000038531491
       2        0.000026624624    -0.000059197060    -0.000055255936
       3       -0.000031073716     0.000016787882     0.000002723365
       4       -0.000008270729     0.000002409176    -0.000011572964
       5        0.000002417060    -0.000004223804     0.000007523530
       6       -0.000001167777     0.000003548613     0.000002735420
       7        0.000004149704     0.000005655040     0.000006359190
       8       -0.001275606443     0.002139008846     0.002860326570
       9        0.001215161789    -0.002522706919    -0.003586022845
      10       -0.000004900166     0.000013007954     0.000005580100
      11       -0.000011248422    -0.000009506765    -0.000002842294
      12        0.003034860792    -0.002655928806    -0.001842319990
      13       -0.000021314140    -0.000004118558     0.000006992691
      14       -0.000005116171     0.000001355475    -0.000003034916
      15        0.000012085490     0.000004658411    -0.000016102246
      16       -0.002981814944     0.003040641087     0.002579715382
      17       -0.000010546742     0.000007858114    -0.000005763624
      18       -0.000010534495     0.000004542081     0.000013682660
      19        0.000017608062    -0.000015503909    -0.000017039986
      20        0.000020213761    -0.000005609691     0.000015784405

  **** Optimization is complete! (in 10 steps) ****
    Final optimized geometry and variables:
    Molecular point group: c1

    Geometry (in Angstrom), charge = 0, multiplicity = 1:

    O           -2.138647902279    -0.994984930096    -0.566135247142
    C           -1.673395695742    -0.217215021871     0.195273020171
    C           -2.466451161130     0.776436676091     0.996267464852
    O           -0.379646824329    -0.119699984744     0.442645868627
    H           -2.148305213436     1.780259555933     0.745413375929
    H           -3.516224764726     0.656553022147     0.783495730060
    H           -2.279301829232     0.626284976315     2.051609977664
    C            0.493658286441    -1.008140100650    -0.241888393989
    C            1.921587071127    -0.731725666229     0.193757176940
    H            0.359459792596    -0.887297813173    -1.308437666671
    H            0.213246934564    -2.021469837781     0.008171802284
    C            2.621261488422     0.490150540865    -0.423789330404
    H            2.509022385469    -1.615301046765    -0.031845154238
    H            1.914013402357    -0.639629652247     1.275005940017
    C            1.769563100644     1.748372198650    -0.592491563408
    H            3.450741247510     0.753718799952     0.223946940908
    H            3.039108244582     0.217372110710    -1.387445880646
    H            2.378157432712     2.552871253828    -0.989520921374
    H            1.356109008580     2.076790586539     0.353066137136
    H            0.944876589435     1.594726971845    -1.277290001980

  Mulliken Charges: (a.u.)
   Center  Symbol    Alpha    Beta     Spin     Total
       1     O     4.19716  4.19716  0.00000 -0.39432
       2     C     2.80802  2.80802  0.00000  0.38396
       3     C     3.13872  3.13872  0.00000 -0.27744
       4     O     4.15256  4.15256  0.00000 -0.30512
       5     H     0.44586  0.44586  0.00000  0.10829
       6     H     0.43737  0.43737  0.00000  0.12527
       7     H     0.44561  0.44561  0.00000  0.10877
       8     C     3.00486  3.00486  0.00000 -0.00972
       9     C     3.09162  3.09162  0.00000 -0.18325
      10     H     0.44629  0.44629  0.00000  0.10741
      11     H     0.43994  0.43994  0.00000  0.12012
      12     C     3.09141  3.09141  0.00000 -0.18282
      13     H     0.44568  0.44568  0.00000  0.10865
      14     H     0.45157  0.45157  0.00000  0.09687
      15     C     3.14920  3.14920  0.00000 -0.29841
      16     H     0.45013  0.45013  0.00000  0.09973
      17     H     0.45118  0.45118  0.00000  0.09765
      18     H     0.44644  0.44644  0.00000  0.10713
      19     H     0.45047  0.45047  0.00000  0.09906
      20     H     0.45591  0.45591  0.00000  0.08817

   Total alpha = 32.00000, Total beta = 32.00000, Total charge = -0.00000

*** Psi4 exiting successfully. Buy a developer a beer!
