                              Psi4 1.0.54 Driver

  ==> Input File <==

--------------------------------------------------------------------------
set {
	reference rhf
	basis cc-pvtz
}

set_num_threads( 4 )
memory 2 gb

molecule MOL {
0 1

H	 -2.644180	 -0.653737	 1.272255
C	 -2.092774	 -0.380414	 0.391915
O	 -0.808934	 -0.154049	 0.752536
F	 -2.163230	 -1.351640	 -0.507133
F	 -2.627232	 0.691260	 -0.169301
C	 0.085006	 0.250800	 -0.215074
C	 1.370439	 -0.548013	 -0.012993
Cl	 0.421658	 1.987697	 -0.091007
H	 -0.272219	 0.063284	 -1.212508
F	 2.385892	 0.072466	 -0.557864
F	 1.245810	 -1.713749	 -0.601927
F	 1.632685	 -0.752818	 1.248567

	symmetry c1
}
set optking {
	frozen_dihedral = ("
		10 7 6 9
	")
}

ee,wfn = optimize('scf', return_wfn=True)
oeprop( wfn, 'DIPOLE', 'QUADRUPOLE', 'MULLIKEN_CHARGES')
f=open( 'psi4out.xyz', 'w' )
f.write( "12  " )
f.write( str(ee) + "\n" )
f.write( MOL.save_string_xyz() )
f.close()
--------------------------------------------------------------------------

    Molecular point group: c1
  Charge       = 0
  Multiplicity = 1
  Basis Set: CC-PVTZ
  Basis Set:
  @DF-RHF Final Energy: -1146.61695362732053
    Total Energy =                      -1146.6169536273209815
    Molecular point group: c1
  Basis Set: CC-PVTZ
  Basis Set:
  Basis Set: CC-PVTZ
  Basis Set:
  @DF-RHF Final Energy: -1146.61732901602613
    Total Energy =                      -1146.6173290160256784
  Basis Set: CC-PVTZ
  Basis Set:
  Basis Set: CC-PVTZ
  Basis Set:
  @DF-RHF Final Energy: -1146.61775088436525
    Total Energy =                      -1146.6177508843647956
  Basis Set: CC-PVTZ
  Basis Set:
  Basis Set: CC-PVTZ
  Basis Set:
  @DF-RHF Final Energy: -1146.61776801796191
    Total Energy =                      -1146.6177680179616800
  Basis Set: CC-PVTZ
  Basis Set:
  Basis Set: CC-PVTZ
  Basis Set:
  @DF-RHF Final Energy: -1146.61777186895893
    Total Energy =                      -1146.6177718689591529
  Basis Set: CC-PVTZ
  Basis Set:
  Basis Set: CC-PVTZ
  Basis Set:
  @DF-RHF Final Energy: -1146.61777299422397
    Total Energy =                      -1146.6177729942239694
  Basis Set: CC-PVTZ
  Basis Set:
  Charge       = 0
  Multiplicity = 1
  Basis Set: CC-PVTZ
  Basis Set:

    Orbital Energies (a.u.)
    -----------------------

    Doubly Occupied:

       1A   -104.857548     2A    -26.356000     3A    -26.354439
       4A    -26.350622     5A    -26.342757     6A    -26.342493
       7A    -20.639592     8A    -11.520743     9A    -11.482956
      10A    -11.401026    11A    -10.583103    12A     -8.049910
      13A     -8.047902    14A     -8.047838    15A     -1.768016
      16A     -1.724102    17A     -1.663589    18A     -1.660116
      19A     -1.644181    20A     -1.485383    21A     -1.178296
      22A     -1.053231    23A     -0.989759    24A     -0.923940
      25A     -0.863659    26A     -0.857313    27A     -0.853425
      28A     -0.828996    29A     -0.817294    30A     -0.794404
      31A     -0.733263    32A     -0.730447    33A     -0.711741
      34A     -0.708235    35A     -0.685871    36A     -0.679925
      37A     -0.664997    38A     -0.663705    39A     -0.649534
      40A     -0.637593    41A     -0.598264    42A     -0.581041
      43A     -0.526101    44A     -0.478171    45A     -0.470599

  @DF-RHF Final Energy: -1146.61777203817883

   => Energetics <=

    Nuclear Repulsion Energy =            737.9401176746339388
    One-Electron Energy =               -3059.1115319098862528
    Two-Electron Energy =                1174.5536421970728043
    DFT Exchange-Correlation Energy =       0.0000000000000000
    Empirical Dispersion Energy =           0.0000000000000000
    PCM Polarization Energy =               0.0000000000000000
    EFP Energy =                            0.0000000000000000
    Total Energy =                      -1146.6177720381792824
    Molecular point group: c1
  Basis Set: CC-PVTZ
  Basis Set:

  -Total Gradient:
     Atom            X                  Y                   Z
    ------   -----------------  -----------------  -----------------
       1       -0.000065850372     0.000063029536     0.000016341192
       2       -0.000073300693    -0.000124292657    -0.000002834870
       3       -0.000025143479    -0.000054690205    -0.000160089827
       4        0.000042341685     0.000140090622     0.000029654038
       5       -0.000020920164    -0.000155481785     0.000052976489
       6        0.004920283322     0.006988670535    -0.001456671499
       7       -0.002102884464    -0.004727311005    -0.005596398802
       8        0.000022932476    -0.000067160690    -0.000046821101
       9       -0.003564366176    -0.004989826316     0.002482322225
      10        0.001058740253     0.002732066117     0.004421060319
      11       -0.000060878446     0.000232555333    -0.000036648890
      12       -0.000130953921    -0.000037649378     0.000297110723

  **** Optimization is complete! (in 7 steps) ****
    Final optimized geometry and variables:
    Molecular point group: c1

    Geometry (in Angstrom), charge = 0, multiplicity = 1:

    H           -2.614474932857    -0.711866090718     1.280989770537
    C           -2.076621888819    -0.413485613187     0.400228673171
    O           -0.792224163851    -0.178624769219     0.750164937751
    F           -2.145489589244    -1.367941058560    -0.517758800275
    F           -2.633718860839     0.660924319094    -0.133334976682
    C            0.087776359413     0.263026434763    -0.221660752777
    C            1.384291797306    -0.534259941079    -0.030064072019
    CL           0.368328577311     2.002193151377    -0.082444523653
    H           -0.298216064157     0.042338492650    -1.201438481576
    F            2.401007064624     0.041880198316    -0.614229159114
    F            1.226978595211    -1.728722849349    -0.548761925330
    F            1.676617354557    -0.673025369490     1.236243999762

  Mulliken Charges: (a.u.)
   Center  Symbol    Alpha    Beta     Spin     Total
       1     H     0.45200  0.45200  0.00000  0.09600
       2     C     2.74027  2.74027  0.00000  0.51947
       3     O     4.15529  4.15529  0.00000 -0.31057
       4     F     4.61861  4.61861  0.00000 -0.23723
       5     F     4.61522  4.61522  0.00000 -0.23044
       6     C     2.94385  2.94385  0.00000  0.11231
       7     C     2.66938  2.66938  0.00000  0.66124
       8    CL     8.56998  8.56998  0.00000 -0.13995
       9     H     0.43097  0.43097  0.00000  0.13806
      10     F     4.59909  4.59909  0.00000 -0.19818
      11     F     4.60475  4.60475  0.00000 -0.20949
      12     F     4.60060  4.60060  0.00000 -0.20120

   Total alpha = 45.00000, Total beta = 45.00000, Total charge = -0.00000

*** Psi4 exiting successfully. Buy a developer a beer!
