                              Psi4 1.0.54 Driver

  ==> Input File <==

--------------------------------------------------------------------------
set {
	reference rhf
	basis cc-pvtz
}

set_num_threads( 4 )
memory 2 gb

molecule MOL {
0 1

H	 -0.080779	 -0.551192	 0.817326
N	 -0.625934	 -0.663929	 -0.000707
C	 -1.978635	 -0.158664	 0.001017
C	 -0.060074	 -1.282429	 -1.060821
H	 -2.519057	 -0.493535	 -0.876362
H	 -1.938890	 0.917202	 -0.004137
H	 -2.514266	 -0.485137	 0.884506
C	 1.369490	 -1.726539	 -0.841884
O	 -0.630556	 -1.464225	 -2.095508
H	 1.425498	 -2.428224	 -0.017810
H	 1.730531	 -2.198787	 -1.740605
H	 1.998079	 -0.876606	 -0.602910

	symmetry c1
}
set optking {
	frozen_dihedral = ("
		4 2 3 5
	")
}

ee,wfn = optimize('scf', return_wfn=True)
oeprop( wfn, 'DIPOLE', 'QUADRUPOLE', 'MULLIKEN_CHARGES')
f=open( 'psi4out.xyz', 'w' )
f.write( "12  " )
f.write( str(ee) + "\n" )
f.write( MOL.save_string_xyz() )
f.close()
--------------------------------------------------------------------------

    Molecular point group: c1
  Charge       = 0
  Multiplicity = 1
  Basis Set: CC-PVTZ
  Basis Set:
  @DF-RHF Final Energy:  -247.10036601925361
    Total Energy =                       -247.1003660192536699
    Molecular point group: c1
  Basis Set: CC-PVTZ
  Basis Set:
  Basis Set: CC-PVTZ
  Basis Set:
  @DF-RHF Final Energy:  -247.10088298790086
    Total Energy =                       -247.1008829879006612
  Basis Set: CC-PVTZ
  Basis Set:
  Basis Set: CC-PVTZ
  Basis Set:
  @DF-RHF Final Energy:  -247.10088652155181
    Total Energy =                       -247.1008865215519563
  Basis Set: CC-PVTZ
  Basis Set:
  Basis Set: CC-PVTZ
  Basis Set:
  @DF-RHF Final Energy:  -247.10100141152699
    Total Energy =                       -247.1010014115271360
  Basis Set: CC-PVTZ
  Basis Set:
  Basis Set: CC-PVTZ
  Basis Set:
  @DF-RHF Final Energy:  -247.10100506431294
    Total Energy =                       -247.1010050643128579
  Basis Set: CC-PVTZ
  Basis Set:
  Basis Set: CC-PVTZ
  Basis Set:
  @DF-RHF Final Energy:  -247.10100700178987
    Total Energy =                       -247.1010070017899807
  Basis Set: CC-PVTZ
  Basis Set:
  Basis Set: CC-PVTZ
  Basis Set:
  @DF-RHF Final Energy:  -247.10100824911910
    Total Energy =                       -247.1010082491191042
  Basis Set: CC-PVTZ
  Basis Set:
  Charge       = 0
  Multiplicity = 1
  Basis Set: CC-PVTZ
  Basis Set:

    Orbital Energies (a.u.)
    -----------------------

    Doubly Occupied:

       1A    -20.506707     2A    -15.574875     3A    -11.336842
       4A    -11.252468     5A    -11.228074     6A     -1.388527
       7A     -1.231017     8A     -1.016695     9A     -0.932863
      10A     -0.788219    11A     -0.690961    12A     -0.651693
      13A     -0.635385    14A     -0.586781    15A     -0.582980
      16A     -0.555640    17A     -0.544995    18A     -0.511222
      19A     -0.417315    20A     -0.389376

  @DF-RHF Final Energy:  -247.10100836161072

   => Energetics <=

    Nuclear Repulsion Energy =            181.6467774152426102
    One-Electron Energy =                -695.8503002710876899
    Two-Electron Energy =                 267.1025144942342422
    DFT Exchange-Correlation Energy =       0.0000000000000000
    Empirical Dispersion Energy =           0.0000000000000000
    PCM Polarization Energy =               0.0000000000000000
    EFP Energy =                            0.0000000000000000
    Total Energy =                       -247.1010083616108659
    Molecular point group: c1
  Basis Set: CC-PVTZ
  Basis Set:

  -Total Gradient:
     Atom            X                  Y                   Z
    ------   -----------------  -----------------  -----------------
       1        0.000000731106     0.000009650644    -0.000002047863
       2        0.000065811866     0.000165128202    -0.000052471112
       3       -0.000066098547    -0.000162558178     0.000088086411
       4       -0.000047188275    -0.000103475790     0.000020584949
       5        0.000039690567     0.000097328650    -0.000054270952
       6       -0.000001479740    -0.000001017280     0.000001204108
       7        0.000001239659    -0.000002362731    -0.000001920782
       8        0.000007408504     0.000029030876    -0.000011280585
       9        0.000007375250    -0.000012450606     0.000005675758
      10       -0.000012543743    -0.000009118161    -0.000003935119
      11        0.000001047855    -0.000001083761    -0.000001093405
      12        0.000004005498    -0.000009071866     0.000011468591

  **** Optimization is complete! (in 8 steps) ****
    Final optimized geometry and variables:
    Molecular point group: c1

    Geometry (in Angstrom), charge = 0, multiplicity = 1:

    H            0.326530596612     0.522580694526     1.601662781158
    N           -0.230888626501     0.382614874964     0.796110721467
    C           -1.578412324212     0.901419179092     0.795105128439
    C            0.333520404794    -0.229337942232    -0.268794901431
    H           -2.074295980475     0.560563140637    -0.097865999951
    H           -1.586177879144     1.985488812358     0.804181036284
    H           -2.123482361268     0.543075382407     1.659517389267
    C            1.764444398150    -0.672810006439    -0.056050680880
    O           -0.243288719898    -0.414530206828    -1.299201475406
    H            1.826687245936    -1.365557695659     0.775045432597
    H            2.118497094948    -1.154246853858    -0.952762904762
    H            2.395234911578     0.179483963012     0.168751418316

  Mulliken Charges: (a.u.)
   Center  Symbol    Alpha    Beta     Spin     Total
       1     H     0.41042  0.41042  0.00000  0.17916
       2     N     3.62171  3.62171  0.00000 -0.24342
       3     C     3.08553  3.08553  0.00000 -0.17106
       4     C     2.83663  2.83663  0.00000  0.32674
       5     H     0.43150  0.43150  0.00000  0.13700
       6     H     0.45629  0.45629  0.00000  0.08743
       7     H     0.45521  0.45521  0.00000  0.08958
       8     C     3.15357  3.15357  0.00000 -0.30714
       9     O     4.21551  4.21551  0.00000 -0.43102
      10     H     0.44981  0.44981  0.00000  0.10038
      11     H     0.43354  0.43354  0.00000  0.13293
      12     H     0.45029  0.45029  0.00000  0.09941

   Total alpha = 20.00000, Total beta = 20.00000, Total charge = -0.00000

*** Psi4 exiting successfully. Buy a developer a beer!
