  ==> Input File <==

--------------------------------------------------------------------------
set {
	reference rhf
	basis cc-pvtz
}

set_num_threads( 4 )
memory 2 gb

molecule MOL {
0 1

H	 2.279731	 -0.078242	 -0.946328
O	 1.675515	 -0.612943	 -0.465627
C	 1.135873	 0.113391	 0.608264
C	 0.027642	 1.012027	 0.090274
H	 1.902972	 0.727968	 1.072615
H	 0.756163	 -0.561896	 1.370018
C	 -1.138737	 0.285728	 -0.581921
H	 0.464661	 1.708096	 -0.618252
H	 -0.340737	 1.603071	 0.925246
C	 -1.933983	 -0.631436	 0.343653
H	 -0.763151	 -0.285569	 -1.422081
H	 -1.808359	 1.035291	 -0.992333
H	 -2.789188	 -1.049673	 -0.174718
H	 -1.335629	 -1.461368	 0.700418
H	 -2.305435	 -0.092167	 1.209725

	symmetry c1
}
set optking {
	frozen_dihedral = ("
		1 2 3 4
	")
}

ee = optimize('scf')
oeprop('DIPOLE', 'QUADRUPOLE', 'MULLIKEN_CHARGES')
f=open( 'psi4out.xyz', 'w' )
f.write( "15  " )
f.write( str(ee) + "\n" )
f.write( MOL.save_string_xyz() )
f.close()
--------------------------------------------------------------------------

    Molecular point group: c1
  Charge       = 0
  Multiplicity = 1
  Basis Set: CC-PVTZ
  Basis Set:
  @DF-RHF Final Energy:  -232.23553725788835
    Total Energy =                       -232.2355372578884385
    Molecular point group: c1
  Basis Set: CC-PVTZ
  Basis Set:
  Basis Set: CC-PVTZ
  Basis Set:
  @DF-RHF Final Energy:  -232.23681715854494
    Total Energy =                       -232.2368171585449090
  Basis Set: CC-PVTZ
  Basis Set:
  Basis Set: CC-PVTZ
  Basis Set:
  @DF-RHF Final Energy:  -232.23705347651327
    Total Energy =                       -232.2370534765134380
  Basis Set: CC-PVTZ
  Basis Set:
  Basis Set: CC-PVTZ
  Basis Set:
  @DF-RHF Final Energy:  -232.23705055435576
    Total Energy =                       -232.2370505543556760
  Basis Set: CC-PVTZ
  Basis Set:
  Basis Set: CC-PVTZ
  Basis Set:
  @DF-RHF Final Energy:  -232.23705645515042
    Total Energy =                       -232.2370564551503662
  Basis Set: CC-PVTZ
  Basis Set:
  Charge       = 0
  Multiplicity = 1
  Basis Set: CC-PVTZ
  Basis Set:

    Orbital Energies (a.u.)
    -----------------------

    Doubly Occupied:

       1A    -20.546599     2A    -11.265465     3A    -11.213765
       4A    -11.210196     5A    -11.203856     6A     -1.364168
       7A     -1.066709     8A     -0.971363     9A     -0.874900
      10A     -0.786416    11A     -0.688754    12A     -0.641165
      13A     -0.627866    14A     -0.580004    15A     -0.563919
      16A     -0.537491    17A     -0.506240    18A     -0.487612
      19A     -0.470277    20A     -0.454662    21A     -0.429019

  @DF-RHF Final Energy:  -232.23705660689370

   => Energetics <=

    Nuclear Repulsion Energy =            191.5240837461631713
    One-Electron Energy =                -694.5413895360013612
    Two-Electron Energy =                 270.7802491829446581
    DFT Exchange-Correlation Energy =       0.0000000000000000
    Empirical Dispersion Energy =           0.0000000000000000
    PCM Polarization Energy =               0.0000000000000000
    EFP Energy =                            0.0000000000000000
    Total Energy =                       -232.2370566068935318
    Molecular point group: c1
  Basis Set: CC-PVTZ
  Basis Set:

  -Total Gradient:
     Atom            X                  Y                   Z
    ------   -----------------  -----------------  -----------------
       1        0.000897090735    -0.000335944150     0.000757213720
       2       -0.001314870009     0.000156304788    -0.000899888104
       3        0.000933255924     0.000729407172    -0.000025288001
       4       -0.000494040840    -0.000568384957     0.000153328529
       5       -0.000011754271     0.000011638800     0.000006251280
       6       -0.000010275155     0.000005103261     0.000001525048
       7       -0.000001354944     0.000005302098     0.000000648654
       8        0.000002729518    -0.000008113257     0.000004003076
       9       -0.000006549321     0.000007335496    -0.000000468676
      10        0.000001148672    -0.000000649944     0.000000254016
      11        0.000002302330     0.000002549889     0.000000380287
      12        0.000001302592    -0.000001186037     0.000001581047
      13       -0.000000477588    -0.000002594644     0.000000305682
      14        0.000001299167    -0.000001260590     0.000002664091
      15        0.000000193188     0.000000492075    -0.000002510651

  **** Optimization is complete! (in 6 steps) ****
    Final optimized geometry and variables:
    Molecular point group: c1

    Geometry (in Angstrom), charge = 0, multiplicity = 1:

    H            2.314203796825    -0.144776319621    -0.928082340358
    O            1.707496457418    -0.661269310628    -0.430607812544
    C            1.138890622895     0.114925061332     0.592626378601
    C            0.010717279444     1.011406826804     0.100903472976
    H            1.899002614317     0.720417476397     1.078540880556
    H            0.773777957383    -0.584483640226     1.332179446662
    C           -1.150675782437     0.279478213124    -0.573165917430
    H            0.424164256223     1.734290307153    -0.598731621460
    H           -0.358479682735     1.584165383292     0.948935369293
    C           -1.940006274875    -0.642241773742     0.352983087060
    H           -0.770475116134    -0.292065086021    -1.411657305518
    H           -1.825355397059     1.023034918866    -0.986118542012
    H           -2.788722247186    -1.070907610573    -0.167335470546
    H           -1.334874111324    -1.464241262759     0.715660871668
    H           -2.320412523583    -0.102287599570     1.214605291739

  Mulliken Charges: (a.u.)
   Center  Symbol    Alpha    Beta     Spin     Total
       1     H     0.39429  0.39429  0.00000  0.21143
       2     O     4.20456  4.20456  0.00000 -0.40911
       3     C     2.98285  2.98285  0.00000  0.03430
       4     C     3.09962  3.09962  0.00000 -0.19923
       5     H     0.45855  0.45855  0.00000  0.08290
       6     H     0.45697  0.45697  0.00000  0.08606
       7     C     3.08261  3.08261  0.00000 -0.16522
       8     H     0.45456  0.45456  0.00000  0.09089
       9     H     0.45546  0.45546  0.00000  0.08908
      10     C     3.15478  3.15478  0.00000 -0.30956
      11     H     0.45011  0.45011  0.00000  0.09977
      12     H     0.45068  0.45068  0.00000  0.09865
      13     H     0.44684  0.44684  0.00000  0.10632
      14     H     0.45126  0.45126  0.00000  0.09748
      15     H     0.45688  0.45688  0.00000  0.08624

   Total alpha = 21.00000, Total beta = 21.00000, Total charge =  0.00000
