                              Psi4 1.0.54 Driver

  ==> Input File <==

--------------------------------------------------------------------------
set {
	reference rhf
	basis cc-pvtz
}

set_num_threads( 4 )
memory 2 gb

molecule MOL {
0 1

H	 1.605571	 -0.342236	 -2.574609
C	 0.876774	 -0.533475	 -1.797716
C	 1.322304	 0.099773	 -0.484271
H	 -0.073621	 -0.129441	 -2.127679
H	 0.769288	 -1.607908	 -1.700860
C	 0.308557	 -0.162619	 0.622645
H	 1.439391	 1.169362	 -0.606757
H	 2.282174	 -0.301634	 -0.183503
N	 -1.069352	 -0.004081	 0.085342
H	 0.371632	 -1.172932	 0.991288
H	 0.400391	 0.548875	 1.426218
O	 -1.584901	 -0.965470	 -0.377818
O	 -1.548033	 1.079343	 0.130056

	symmetry c1
}
set optking {
	frozen_dihedral = ("
		7 3 6 9
	")
}

ee,wfn = optimize('scf', return_wfn=True)
oeprop( wfn, 'DIPOLE', 'QUADRUPOLE', 'MULLIKEN_CHARGES')
f=open( 'psi4out.xyz', 'w' )
f.write( "13  " )
f.write( str(ee) + "\n" )
f.write( MOL.save_string_xyz() )
f.close()
--------------------------------------------------------------------------

    Molecular point group: c1
  Charge       = 0
  Multiplicity = 1
  Basis Set: CC-PVTZ
  Basis Set:
  @DF-RHF Final Energy:  -321.85584616183814
    Total Energy =                       -321.8558461618379738
    Molecular point group: c1
  Basis Set: CC-PVTZ
  Basis Set:
  Basis Set: CC-PVTZ
  Basis Set:
  @DF-RHF Final Energy:  -321.85579763638020
    Total Energy =                       -321.8557976363802027
  Basis Set: CC-PVTZ
  Basis Set:
  Basis Set: CC-PVTZ
  Basis Set:
  @DF-RHF Final Energy:  -321.85686827507783
    Total Energy =                       -321.8568682750778862
  Basis Set: CC-PVTZ
  Basis Set:
  Basis Set: CC-PVTZ
  Basis Set:
  @DF-RHF Final Energy:  -321.85913757414414
    Total Energy =                       -321.8591375741440856
  Basis Set: CC-PVTZ
  Basis Set:
  @DF-RHF Final Energy:  -321.85947516024180
    Total Energy =                       -321.8594751602414590
  @DF-RHF Final Energy:  -321.85957186534608
    Total Energy =                       -321.8595718653460835
  @DF-RHF Final Energy:  -321.85970302968485
    Total Energy =                       -321.8597030296849084
  Basis Set: CC-PVTZ
  Basis Set:
  @DF-RHF Final Energy:  -321.85979270901259
    Total Energy =                       -321.8597927090127087
  Basis Set: CC-PVTZ
  Basis Set:
  Basis Set: CC-PVTZ
  Basis Set:
  @DF-RHF Final Energy:  -321.85984309781315
    Total Energy =                       -321.8598430978133820
  Basis Set: CC-PVTZ
  Basis Set:
  Basis Set: CC-PVTZ
  Basis Set:
  @DF-RHF Final Energy:  -321.85984452751080
    Total Energy =                       -321.8598445275104609
  Basis Set: CC-PVTZ
  Basis Set:
  Charge       = 0
  Multiplicity = 1
  Basis Set: CC-PVTZ
  Basis Set:

    Orbital Energies (a.u.)
    -----------------------

    Doubly Occupied:

       1A    -20.593203     2A    -20.588673     3A    -15.836730
       4A    -11.297533     5A    -11.253397     6A    -11.228861
       7A     -1.636411     8A     -1.420626     9A     -1.131991
      10A     -1.021415    11A     -0.896358    12A     -0.822794
      13A     -0.757717    14A     -0.740809    15A     -0.729329
      16A     -0.659134    17A     -0.613155    18A     -0.592274
      19A     -0.535543    20A     -0.519583    21A     -0.510720
      22A     -0.485567    23A     -0.475097    24A     -0.454366

  @DF-RHF Final Energy:  -321.85984497619251

   => Energetics <=

    Nuclear Repulsion Energy =            254.3890719121569077
    One-Electron Energy =                -942.8952632299857441
    Two-Electron Energy =                 366.6463463416365585
    DFT Exchange-Correlation Energy =       0.0000000000000000
    Empirical Dispersion Energy =           0.0000000000000000
    PCM Polarization Energy =               0.0000000000000000
    EFP Energy =                            0.0000000000000000
    Total Energy =                       -321.8598449761922211
    Molecular point group: c1
  Basis Set: CC-PVTZ
  Basis Set:

  -Total Gradient:
     Atom            X                  Y                   Z
    ------   -----------------  -----------------  -----------------
       1        0.000011399422     0.000003447213    -0.000014333445
       2        0.000000007730    -0.000020950845     0.000006443929
       3       -0.004109715978    -0.000939632188    -0.003947061757
       4       -0.000003961808     0.000006910353    -0.000010391872
       5       -0.000002822243    -0.000006908725    -0.000004434274
       6        0.000879463224     0.004208700625     0.001904904383
       7        0.003308869612    -0.000125294952     0.002936815356
       8       -0.000000529056     0.000003068535    -0.000003601738
       9       -0.000094108709    -0.003187511124    -0.000861614177
      10       -0.000005025103     0.000003907060    -0.000005885520
      11       -0.000000445043    -0.000000715137     0.000012677884
      12        0.000019640379     0.000014342323     0.000000551930
      13       -0.000002772429     0.000040636861    -0.000014070700

  **** Optimization is complete! (in 11 steps) ****
    Final optimized geometry and variables:
    Molecular point group: c1

    Geometry (in Angstrom), charge = 0, multiplicity = 1:

    H            2.094860741054    -0.271709063807    -2.269175547569
    C            1.296346306823    -0.459511489133    -1.562985158587
    C            1.624509062080     0.190946966545    -0.224239754199
    H            0.382494907554    -0.062733624469    -1.986465374775
    H            1.182603788609    -1.532657443194    -1.462836106994
    C            0.624663448716    -0.096538014351     0.893569369056
    H            1.753861416775     1.260264340851    -0.324684569926
    H            2.575613750187    -0.187498937165     0.136400391739
    N           -0.777475775935     0.077131410398     0.422033548092
    H            0.684350416283    -1.115570205552     1.235011512914
    H            0.745612993428     0.587133002924     1.718439443464
    O           -1.455686785071    -0.889945396236     0.341928727856
    O           -1.117148460901     1.179679750486     0.145133548012

  Mulliken Charges: (a.u.)
   Center  Symbol    Alpha    Beta     Spin     Total
       1     H     0.44540  0.44540  0.00000  0.10919
       2     C     3.14778  3.14778  0.00000 -0.29555
       3     C     3.09583  3.09583  0.00000 -0.19166
       4     H     0.44340  0.44340  0.00000  0.11320
       5     H     0.44885  0.44885  0.00000  0.10229
       6     C     3.04707  3.04707  0.00000 -0.09415
       7     H     0.44015  0.44015  0.00000  0.11971
       8     H     0.44670  0.44670  0.00000  0.10661
       9     N     3.28075  3.28075  0.00000  0.43849
      10     H     0.43191  0.43191  0.00000  0.13617
      11     H     0.42857  0.42857  0.00000  0.14285
      12     O     4.16929  4.16929  0.00000 -0.33859
      13     O     4.17428  4.17428  0.00000 -0.34856

   Total alpha = 24.00000, Total beta = 24.00000, Total charge =  0.00000

*** Psi4 exiting successfully. Buy a developer a beer!
