  ==> Input File <==

--------------------------------------------------------------------------
set {
	reference rhf
	basis 6-31G*
}

set_num_threads( 4 )
memory 2 gb

molecule MOL {
0 1

O	 -0.879349	 -1.332730	 -1.941718
C	 -1.639335	 -1.270270	 -1.028956
C	 -2.886227	 -2.109120	 -0.915553
O	 -1.481751	 -0.454642	 0.000584
H	 -2.605160	 -3.155205	 -0.939403
H	 -3.433875	 -1.896526	 -0.009283
H	 -3.513383	 -1.918560	 -1.778247
C	 -0.334255	 0.388708	 0.000906
C	 0.891947	 -0.504646	 0.000751
H	 -0.365390	 1.025305	 -0.873475
H	 -0.365484	 1.024911	 0.875569
C	 2.191998	 0.301789	 0.000897
H	 0.855148	 -1.151283	 -0.871571
H	 0.855132	 -1.151660	 0.872805
C	 3.441114	 -0.581407	 0.000108
H	 2.215074	 0.954890	 -0.869742
H	 2.215465	 0.953923	 0.872248
C	 4.739576	 0.224112	 -0.001102
H	 3.419457	 -1.233487	 -0.870178
H	 3.420834	 -1.233096	 0.870717
H	 4.804918	 0.861552	 -0.878265
H	 5.606527	 -0.429058	 -0.001824
H	 4.806469	 0.861674	 0.875853

	symmetry c1
}
set optking {
	frozen_dihedral = ("
		2 4 8 10
	")
}

ee = optimize('scf')
oeprop('DIPOLE', 'QUADRUPOLE', 'MULLIKEN_CHARGES')
f=open( 'psi4out.xyz', 'w' )
f.write( "23  " )
f.write( str(ee) + "\n" )
f.write( MOL.save_string_xyz() )
f.close()
--------------------------------------------------------------------------

    Molecular point group: c1
  Charge       = 0
  Multiplicity = 1
  Basis Set: 6-31G*
  Basis Set:
  @DF-RHF Final Energy:  -422.96972534612354
    Total Energy =                       -422.9697253461231412
    Molecular point group: c1
  Basis Set: 6-31G*
  Basis Set:
  Basis Set: 6-31G*
  Basis Set:
  @DF-RHF Final Energy:  -422.97635917260072
    Total Energy =                       -422.9763591726011782
  Basis Set: 6-31G*
  Basis Set:
  Basis Set: 6-31G*
  Basis Set:
  @DF-RHF Final Energy:  -422.97715886782464
    Total Energy =                       -422.9771588678245280
  Basis Set: 6-31G*
  Basis Set:
  Basis Set: 6-31G*
  Basis Set:
  @DF-RHF Final Energy:  -422.97577706694904
    Total Energy =                       -422.9757770669491492
  Basis Set: 6-31G*
  Basis Set:
  Basis Set: 6-31G*
  Basis Set:
  @DF-RHF Final Energy:  -422.97725311360529
    Total Energy =                       -422.9772531136051157
  Basis Set: 6-31G*
  Basis Set:
  Basis Set: 6-31G*
  Basis Set:
  @DF-RHF Final Energy:  -422.97726047142527
    Total Energy =                       -422.9772604714253248
  Basis Set: 6-31G*
  Basis Set:
  Charge       = 0
  Multiplicity = 1
  Basis Set: 6-31G*
  Basis Set:

    Orbital Energies (a.u.)
    -----------------------

    Doubly Occupied:

       1A    -20.602773     2A    -20.540580     3A    -11.375110
       4A    -11.283358     5A    -11.232060     6A    -11.221596
       7A    -11.218919     8A    -11.218482     9A    -11.210929
      10A     -1.466514    11A     -1.361106    12A     -1.090821
      13A     -1.040207    14A     -1.001869    15A     -0.931503
      16A     -0.853741    17A     -0.798696    18A     -0.759080
      19A     -0.698508    20A     -0.677528    21A     -0.658443
      22A     -0.648069    23A     -0.604417    24A     -0.589993
      25A     -0.582504    26A     -0.571493    27A     -0.550700
      28A     -0.539087    29A     -0.520088    30A     -0.515182
      31A     -0.485786    32A     -0.475160    33A     -0.471656
      34A     -0.468544    35A     -0.439221    36A     -0.433155

  @DF-RHF Final Energy:  -422.97726139419490

   => Energetics <=

    Nuclear Repulsion Energy =            457.9944005060360723
    One-Electron Energy =               -1483.6695717528778005
    Two-Electron Energy =                 602.6979098526473990
    DFT Exchange-Correlation Energy =       0.0000000000000000
    Empirical Dispersion Energy =           0.0000000000000000
    PCM Polarization Energy =               0.0000000000000000
    EFP Energy =                            0.0000000000000000
    Total Energy =                       -422.9772613941943291
    Molecular point group: c1
  Basis Set: 6-31G*
  Basis Set:

  -Total Gradient:
     Atom            X                  Y                   Z
    ------   -----------------  -----------------  -----------------
       1       -0.000018006722    -0.000042609678     0.000057671740
       2        0.001975410960    -0.002941279286     0.001694879047
       3        0.000064319566    -0.000039634853     0.000028752488
       4       -0.003366431536     0.005063545345    -0.001869913820
       5       -0.000008899632     0.000007703237    -0.000037109133
       6        0.000006419361     0.000012164953    -0.000005792517
       7       -0.000015760024     0.000036293179     0.000006326775
       8        0.003187438037    -0.005306772435    -0.002397498948
       9        0.000046991691     0.000023478870    -0.000059753354
      10       -0.001814032399     0.003203342393     0.002509552166
      11        0.000005679265    -0.000025679857    -0.000008540664
      12        0.000021530106    -0.000009797106     0.000031532066
      13       -0.000024998155     0.000006684665     0.000031323607
      14       -0.000004404497     0.000022965683     0.000009511475
      15       -0.000013283169    -0.000007842474    -0.000010146572
      16       -0.000011032378    -0.000001629363     0.000015391527
      17       -0.000001602436    -0.000004305947     0.000025761335
      18       -0.000020804815     0.000011309415    -0.000019309256
      19       -0.000004865942    -0.000013927988     0.000000284929
      20        0.000004956657     0.000009855553     0.000005854066
      21        0.000005595146     0.000005657499    -0.000002441564
      22       -0.000009227849    -0.000006630872    -0.000003748353
      23       -0.000004991233    -0.000002890929    -0.000002587033

  **** Optimization is complete! (in 7 steps) ****
    Final optimized geometry and variables:
    Molecular point group: c1

    Geometry (in Angstrom), charge = 0, multiplicity = 1:

    O           -1.598691962964    -0.735066810466    -1.633366174943
    C           -2.210308195039    -0.668335536233    -0.615116902980
    C           -3.462153682968    -1.461932038102    -0.340805191461
    O           -1.885064073056     0.121117190250     0.395233462387
    H           -3.227158468234    -2.517242865769    -0.413405144607
    H           -3.872884726226    -1.243653880952     0.633802363104
    H           -4.192311885447    -1.235547841725    -1.108491630428
    C           -0.674961200323     0.873824310267     0.329687084414
    C            0.583717869273     0.020509447118     0.362176725982
    H           -0.714454716609     1.530234381983    -0.529735504855
    H           -0.720151081618     1.495572189000     1.213619889249
    C            1.841383516565     0.887175537619     0.463791025495
    H            0.632463818001    -0.596882668041    -0.524777446847
    H            0.524579093174    -0.644314311758     1.220886759047
    C            3.129212033595     0.062319681295     0.499912192302
    H            1.879370199698     1.570246739433    -0.382953682876
    H            1.789038926568     1.508039478982     1.356898754190
    C            4.386544649172     0.925756385540     0.592120622262
    H            3.181614514731    -0.559202554945    -0.390797517343
    H            3.095735232358    -0.619128582606     1.347119735354
    H            4.466269173970     1.594572776763    -0.260141809180
    H            5.282260191331     0.313057109241     0.616181302570
    H            4.378951304221     1.535828665229     1.491027396697

  Mulliken Charges: (a.u.)
   Center  Symbol    Alpha    Beta     Spin     Total
       1     O     4.28491  4.28491  0.00000 -0.56983
       2     C     2.61443  2.61443  0.00000  0.77114
       3     C     3.28787  3.28787  0.00000 -0.57573
       4     O     4.31483  4.31483  0.00000 -0.62967
       5     H     0.39810  0.39810  0.00000  0.20380
       6     H     0.39956  0.39956  0.00000  0.20088
       7     H     0.39737  0.39737  0.00000  0.20526
       8     C     2.99456  2.99456  0.00000  0.01087
       9     C     3.17734  3.17734  0.00000 -0.35468
      10     H     0.40892  0.40892  0.00000  0.18216
      11     H     0.41078  0.41078  0.00000  0.17844
      12     C     3.16050  3.16050  0.00000 -0.32101
      13     H     0.39595  0.39595  0.00000  0.20809
      14     H     0.41804  0.41804  0.00000  0.16392
      15     C     3.15133  3.15133  0.00000 -0.30265
      16     H     0.41983  0.41983  0.00000  0.16035
      17     H     0.42361  0.42361  0.00000  0.15279
      18     C     3.23986  3.23986  0.00000 -0.47972
      19     H     0.41934  0.41934  0.00000  0.16132
      20     H     0.42212  0.42212  0.00000  0.15576
      21     H     0.42076  0.42076  0.00000  0.15848
      22     H     0.41815  0.41815  0.00000  0.16370
      23     H     0.42183  0.42183  0.00000  0.15633

   Total alpha = 36.00000, Total beta = 36.00000, Total charge =  0.00000
