  ==> Input File <==

--------------------------------------------------------------------------
set {
	reference rhf
	basis 6-31G*
}

set_num_threads( 1 )
memory 2 gb

molecule MOL {
0 1

O	 1.361707	 2.141489	 -0.024529
C	 0.272263	 2.612548	 -0.090364
C	 -1.021903	 1.836017	 -0.090804
O	 0.049305	 3.918340	 -0.169948
C	 -0.823008	 0.326187	 0.001381
H	 -1.622374	 2.205291	 0.736110
H	 -1.563114	 2.107514	 -0.993079
C	 -2.149452	 -0.435131	 -0.000098
H	 -0.264985	 0.093422	 0.902835
H	 -0.206662	 -0.004675	 -0.828653
C	 -3.368779	 0.488503	 -0.000883
H	 -2.193746	 -1.087250	 -0.871175
H	 -2.195311	 -1.087803	 0.870418
C	 -4.693822	 -0.272754	 -0.001129
H	 -3.325798	 1.139422	 -0.871284
H	 -3.326423	 1.139959	 0.869145
H	 -4.781274	 -0.907928	 -0.878124
H	 -5.538651	 0.408946	 -0.001420
H	 -4.781694	 -0.907783	 0.875984
C	 1.184348	 4.764855	 -0.176710
H	 1.755229	 4.642322	 0.732470
H	 0.801585	 5.771172	 -0.245220
H	 1.816593	 4.546098	 -1.025190

	symmetry c1
}
set optking {
	frozen_dihedral = ("
		15 11 8 12,
		1 2 3 6,
		9 5 3 6,
		1 2 4 20
	")
}

ee = energy('scf')
oeprop('DIPOLE', 'QUADRUPOLE', 'MULLIKEN_CHARGES')
f=open( 'psi4out.xyz', 'w' )
f.write( "23  " )
f.write( str(ee) + "\n" )
f.write( MOL.save_string_xyz() )
f.close()
--------------------------------------------------------------------------

    Molecular point group: c1

    Geometry (in Angstrom), charge = 0, multiplicity = 1:

       Center              X                  Y                   Z               Mass
    ------------   -----------------  -----------------  -----------------  -----------------
           O          2.362947812994     0.396906012981     0.038090823863    15.994914619560
           C          1.273503812994     0.867965012981    -0.027744176137    12.000000000000
           C         -0.020662187006     0.091434012981    -0.028184176137    12.000000000000
           O          1.050545812994     2.173757012981    -0.107328176137    15.994914619560
           C          0.178232812994    -1.418395987019     0.064000823863    12.000000000000
           H         -0.621133187006     0.460708012981     0.798729823863     1.007825032070
           H         -0.561873187006     0.362931012981    -0.930459176137     1.007825032070
           C         -1.148211187006    -2.179713987019     0.062521823863    12.000000000000
           H          0.736255812994    -1.651160987019     0.965454823863     1.007825032070
           H          0.794578812994    -1.749257987019    -0.766033176137     1.007825032070
           C         -2.367538187006    -1.256079987019     0.061736823863    12.000000000000
           H         -1.192505187006    -2.831832987019    -0.808555176137     1.007825032070
           H         -1.194070187006    -2.832385987019     0.933037823863     1.007825032070
           C         -3.692581187006    -2.017336987019     0.061490823863    12.000000000000
           H         -2.324557187006    -0.605160987019    -0.808664176137     1.007825032070
           H         -2.325182187006    -0.604623987019     0.931764823863     1.007825032070
           H         -3.780033187006    -2.652510987019    -0.815504176137     1.007825032070
           H         -4.537410187006    -1.335636987019     0.061199823863     1.007825032070
           H         -3.780453187006    -2.652365987019     0.938603823863     1.007825032070
           C          2.185588812994     3.020272012981    -0.114090176137    12.000000000000
           H          2.756469812994     2.897739012981     0.795089823863     1.007825032070
           H          1.802825812994     4.026589012981    -0.182600176137     1.007825032070
           H          2.817833812994     2.801515012981    -0.962570176137     1.007825032070

  Charge       = 0
  Multiplicity = 1
  Basis Set: 6-31G*
  Basis Set:

    Orbital Energies (a.u.)
    -----------------------

    Doubly Occupied:

       1A    -20.602740     2A    -20.543933     3A    -11.370446
       4A    -11.280290     5A    -11.233278     6A    -11.218746
       7A    -11.217671     8A    -11.216316     9A    -11.210587
      10A     -1.468233    11A     -1.361536    12A     -1.099055
      13A     -1.037871    14A     -0.986608    15A     -0.932699
      16A     -0.856599    17A     -0.793866    18A     -0.755868
      19A     -0.698767    20A     -0.684134    21A     -0.669667
      22A     -0.654514    23A     -0.604002    24A     -0.602504
      25A     -0.579710    26A     -0.561850    27A     -0.551484
      28A     -0.525552    29A     -0.522364    30A     -0.511218
      31A     -0.500677    32A     -0.468928    33A     -0.456313
      34A     -0.454852    35A     -0.446624    36A     -0.435847

  @DF-RHF Final Energy:  -422.96091740703861

   => Energetics <=

    Nuclear Repulsion Energy =            462.9961553711139572
    One-Electron Energy =               -1493.6834829277420340
    Two-Electron Energy =                 607.7264101495877640
    DFT Exchange-Correlation Energy =       0.0000000000000000
    Empirical Dispersion Energy =           0.0000000000000000
    PCM Polarization Energy =               0.0000000000000000
    EFP Energy =                            0.0000000000000000
    Total Energy =                       -422.9609174070403697

  Mulliken Charges: (a.u.)
   Center  Symbol    Alpha    Beta     Spin     Total
       1     O     4.28622  4.28622  0.00000 -0.57245
       2     C     2.60164  2.60164  0.00000  0.79673
       3     C     3.21853  3.21853  0.00000 -0.43706
       4     O     4.30728  4.30728  0.00000 -0.61456
       5     C     3.15481  3.15481  0.00000 -0.30963
       6     H     0.39861  0.39861  0.00000  0.20278
       7     H     0.39910  0.39910  0.00000  0.20180
       8     C     3.15617  3.15617  0.00000 -0.31234
       9     H     0.40922  0.40922  0.00000  0.18156
      10     H     0.40901  0.40901  0.00000  0.18199
      11     C     3.16019  3.16019  0.00000 -0.32038
      12     H     0.41919  0.41919  0.00000  0.16162
      13     H     0.41870  0.41870  0.00000  0.16261
      14     C     3.23600  3.23600  0.00000 -0.47200
      15     H     0.42188  0.42188  0.00000  0.15624
      16     H     0.42213  0.42213  0.00000  0.15574
      17     H     0.42141  0.42141  0.00000  0.15718
      18     H     0.41929  0.41929  0.00000  0.16142
      19     H     0.42138  0.42138  0.00000  0.15724
      20     C     3.09226  3.09226  0.00000 -0.18452
      21     H     0.40918  0.40918  0.00000  0.18164
      22     H     0.40859  0.40859  0.00000  0.18282
      23     H     0.40922  0.40922  0.00000  0.18157

   Total alpha = 36.00000, Total beta = 36.00000, Total charge = -0.00000
