  ==> Input File <==

--------------------------------------------------------------------------
set {
	reference rhf
	basis 6-31G*
}

set_num_threads( 4 )
memory 2 gb

molecule MOL {
0 1

H	 -2.646374	 -0.642757	 1.268656
C	 -2.083525	 -0.384536	 0.393091
O	 -0.807605	 -0.127164	 0.768327
F	 -2.118945	 -1.383102	 -0.486752
F	 -2.621877	 0.670592	 -0.209486
C	 -0.491403	 -0.254093	 2.108697
C	 0.304264	 0.985318	 2.497202
Cl	 0.458508	 -1.720975	 2.397039
H	 -1.366371	 -0.303838	 2.732981
F	 0.631239	 0.940806	 3.771269
F	 -0.448312	 2.050239	 2.304820
F	 1.397006	 1.115043	 1.785121

	symmetry c1
}
set optking {
	frozen_dihedral = ("
		6 3 2 4
	")
}

ee = optimize('scf')
oeprop('DIPOLE', 'QUADRUPOLE', 'MULLIKEN_CHARGES')
f=open( 'psi4out.xyz', 'w' )
f.write( "12  " )
f.write( str(ee) + "\n" )
f.write( MOL.save_string_xyz() )
f.close()
--------------------------------------------------------------------------

    Molecular point group: c1
  Charge       = 0
  Multiplicity = 1
  Basis Set: 6-31G*
  Basis Set:
  @DF-RHF Final Energy: -1146.30539380861728
    Total Energy =                      -1146.3053938086161452
    Molecular point group: c1
  Basis Set: 6-31G*
  Basis Set:
  Basis Set: 6-31G*
  Basis Set:
  @DF-RHF Final Energy: -1146.30684852529293
    Total Energy =                      -1146.3068485252929349
  Basis Set: 6-31G*
  Basis Set:
  Basis Set: 6-31G*
  Basis Set:
  @DF-RHF Final Energy: -1146.30759629794125
    Total Energy =                      -1146.3075962979421547
  Basis Set: 6-31G*
  Basis Set:
  Basis Set: 6-31G*
  Basis Set:
  @DF-RHF Final Energy: -1146.30806019897545
    Total Energy =                      -1146.3080601989763636
  Basis Set: 6-31G*
  Basis Set:
  @DF-RHF Final Energy: -1146.30837610211506
    Total Energy =                      -1146.3083761021150622
  @DF-RHF Final Energy: -1146.30844705440313
    Total Energy =                      -1146.3084470544038140
  Basis Set: 6-31G*
  Basis Set:
  @DF-RHF Final Energy: -1146.30845592489322
    Total Energy =                      -1146.3084559248936785
  Basis Set: 6-31G*
  Basis Set:
  Basis Set: 6-31G*
  Basis Set:
  @DF-RHF Final Energy: -1146.30846488538464
    Total Energy =                      -1146.3084648853846375
  Basis Set: 6-31G*
  Basis Set:
  Basis Set: 6-31G*
  Basis Set:
  @DF-RHF Final Energy: -1146.30846646318832
    Total Energy =                      -1146.3084664631880969
  Basis Set: 6-31G*
  Basis Set:
  Charge       = 0
  Multiplicity = 1
  Basis Set: 6-31G*
  Basis Set:

    Orbital Energies (a.u.)
    -----------------------

    Doubly Occupied:

       1A   -104.852174     2A    -26.365030     3A    -26.363016
       4A    -26.362022     5A    -26.340699     6A    -26.339398
       7A    -20.650659     8A    -11.534041     9A    -11.490223
      10A    -11.411283    11A    -10.586991    12A     -8.056292
      13A     -8.052843    14A     -8.052704    15A     -1.766228
      16A     -1.713327    17A     -1.662563    18A     -1.661044
      19A     -1.634708    20A     -1.490563    21A     -1.183060
      22A     -1.060077    23A     -0.983360    24A     -0.931422
      25A     -0.862366    26A     -0.858491    27A     -0.849993
      28A     -0.817270    29A     -0.809432    30A     -0.794575
      31A     -0.732474    32A     -0.728370    33A     -0.699137
      34A     -0.690093    35A     -0.683085    36A     -0.677265
      37A     -0.662733    38A     -0.662258    39A     -0.652498
      40A     -0.644695    41A     -0.606168    42A     -0.564388
      43A     -0.524509    44A     -0.486049    45A     -0.478250

  @DF-RHF Final Energy: -1146.30846651715956

   => Energetics <=

    Nuclear Repulsion Energy =            725.6783070216686156
    One-Electron Energy =               -3033.9178958699430950
    Two-Electron Energy =                1161.9311223311142385
    DFT Exchange-Correlation Energy =       0.0000000000000000
    Empirical Dispersion Energy =           0.0000000000000000
    PCM Polarization Energy =               0.0000000000000000
    EFP Energy =                            0.0000000000000000
    Total Energy =                      -1146.3084665171600136
    Molecular point group: c1
  Basis Set: 6-31G*
  Basis Set:

  -Total Gradient:
     Atom            X                  Y                   Z
    ------   -----------------  -----------------  -----------------
       1        0.000001267641     0.000002177917     0.000005118878
       2       -0.000000653348     0.000086120571    -0.000159080238
       3       -0.000096889137     0.000138112154     0.000079885063
       4        0.000010396542    -0.000106145354     0.000083499641
       5        0.000008238908    -0.000006812087    -0.000000331816
       6        0.000054737055    -0.000091626526    -0.000038258762
       7        0.000033743232    -0.000024160209     0.000044212477
       8        0.000013206482     0.000013285780     0.000013879755
       9        0.000009421947    -0.000000533917     0.000012779475
      10       -0.000009936656    -0.000023511323     0.000016701953
      11       -0.000002325320    -0.000006531072    -0.000027308380
      12       -0.000021207346     0.000019623982    -0.000031098079

  **** Optimization is complete! (in 10 steps) ****
    Final optimized geometry and variables:
    Molecular point group: c1

    Geometry (in Angstrom), charge = 0, multiplicity = 1:

    H           -2.105486499829    -1.089189334320    -0.484593749089
    C           -1.592787807116    -0.516605079749    -1.239791322825
    O           -0.457401239449     0.074924387027    -0.772224712127
    F           -1.280236621066    -1.305344236194    -2.251899780008
    F           -2.398484424811     0.428416310470    -1.696634616172
    C           -0.090885786238    -0.141373377028     0.529965282844
    C            0.898495850938     0.959779447407     0.894191076709
    CL           0.642143008199    -1.747035438983     0.761495355224
    H           -0.926935949486    -0.077708632584     1.209598227655
    F            1.278536180983     0.828899915212     2.147506385974
    F            0.301884405446     2.126619946020     0.768376659479
    F            1.958255725686     0.945232337440     0.126258931487

  Mulliken Charges: (a.u.)
   Center  Symbol    Alpha    Beta     Spin     Total
       1     H     0.42170  0.42170  0.00000  0.15661
       2     C     2.56545  2.56545  0.00000  0.86909
       3     O     4.29710  4.29710  0.00000 -0.59421
       4     F     4.67245  4.67245  0.00000 -0.34491
       5     F     4.67476  4.67476  0.00000 -0.34953
       6     C     3.04032  3.04032  0.00000 -0.08065
       7     C     2.43013  2.43013  0.00000  1.13974
       8    CL     8.50613  8.50613  0.00000 -0.01227
       9     H     0.37711  0.37711  0.00000  0.24578
      10     F     4.67463  4.67463  0.00000 -0.34926
      11     F     4.67434  4.67434  0.00000 -0.34869
      12     F     4.66586  4.66586  0.00000 -0.33171

   Total alpha = 45.00000, Total beta = 45.00000, Total charge =  0.00000
