                              Psi4 1.0.54 Driver

  ==> Input File <==

--------------------------------------------------------------------------
set {
	reference rhf
	basis cc-pvtz
}

set_num_threads( 4 )
memory 2 gb

molecule MOL {
0 1

H	 -2.281709	 -0.136073	 0.666962
C	 -1.928933	 -0.600403	 -0.248238
O	 -0.775228	 0.000056	 -0.739966
H	 -2.691409	 -0.475601	 -1.004020
H	 -1.800950	 -1.663208	 -0.070197
C	 0.406133	 -0.000384	 0.036994
C	 1.526415	 -0.003194	 -0.997339
C	 0.498772	 1.259027	 0.900673
C	 0.495883	 -1.257378	 0.904465
H	 1.452279	 0.872071	 -1.630204
H	 1.451276	 -0.881020	 -1.626529
H	 2.497919	 -0.002741	 -0.517601
H	 0.368981	 2.144239	 0.289753
H	 1.470064	 1.313479	 1.377660
H	 -0.248448	 1.271586	 1.684297
H	 0.363971	 -2.144195	 0.296316
H	 1.467114	 -1.312636	 1.381470
H	 -0.251246	 -1.265768	 1.688235

	symmetry c1
}
set optking {
	frozen_dihedral = ("
		2 3 6 7
	")
}

ee,wfn = optimize('scf', return_wfn=True)
oeprop( wfn, 'DIPOLE', 'QUADRUPOLE', 'MULLIKEN_CHARGES')
f=open( 'psi4out.xyz', 'w' )
f.write( "18  " )
f.write( str(ee) + "\n" )
f.write( MOL.save_string_xyz() )
f.close()
--------------------------------------------------------------------------

    Molecular point group: c1
  Charge       = 0
  Multiplicity = 1
  Basis Set: CC-PVTZ
  Basis Set:
  @DF-RHF Final Energy:  -271.27389714821544
    Total Energy =                       -271.2738971482153261
    Molecular point group: c1
  Basis Set: CC-PVTZ
  Basis Set:
  Basis Set: CC-PVTZ
  Basis Set:
  @DF-RHF Final Energy:  -271.25984443630108
    Total Energy =                       -271.2598444363007388
  Basis Set: CC-PVTZ
  Basis Set:
  Basis Set: CC-PVTZ
  Basis Set:
  @DF-RHF Final Energy:  -271.27470455665321
    Total Energy =                       -271.2747045566533188
  Basis Set: CC-PVTZ
  Basis Set:
  Basis Set: CC-PVTZ
  Basis Set:
  @DF-RHF Final Energy:  -271.27494168610713
    Total Energy =                       -271.2749416861070131
  Basis Set: CC-PVTZ
  Basis Set:
  Basis Set: CC-PVTZ
  Basis Set:
  @DF-RHF Final Energy:  -271.27499813422719
    Total Energy =                       -271.2749981342270758
  Basis Set: CC-PVTZ
  Basis Set:
  Basis Set: CC-PVTZ
  Basis Set:
  @DF-RHF Final Energy:  -271.27499908497066
    Total Energy =                       -271.2749990849709434
  Basis Set: CC-PVTZ
  Basis Set:
  Basis Set: CC-PVTZ
  Basis Set:
  @DF-RHF Final Energy:  -271.27500304277532
    Total Energy =                       -271.2750030427756087
  Basis Set: CC-PVTZ
  Basis Set:
  Charge       = 0
  Multiplicity = 1
  Basis Set: CC-PVTZ
  Basis Set:

    Orbital Energies (a.u.)
    -----------------------

    Doubly Occupied:

       1A    -20.539078     2A    -11.280349     3A    -11.259051
       4A    -11.210242     5A    -11.204226     6A    -11.201909
       7A     -1.371879     8A     -1.075032     9A     -0.949725
      10A     -0.938307    11A     -0.912401    12A     -0.752888
      13A     -0.657466    14A     -0.647949    15A     -0.639214
      16A     -0.588339    17A     -0.575424    18A     -0.552063
      19A     -0.537711    20A     -0.526075    21A     -0.515412
      22A     -0.492227    23A     -0.485528    24A     -0.441957
      25A     -0.403276

  @DF-RHF Final Energy:  -271.27500330665629

   => Energetics <=

    Nuclear Repulsion Energy =            272.5061761614037437
    One-Electron Energy =                -908.0469072721841712
    Two-Electron Energy =                 364.2657278041240829
    DFT Exchange-Correlation Energy =       0.0000000000000000
    Empirical Dispersion Energy =           0.0000000000000000
    PCM Polarization Energy =               0.0000000000000000
    EFP Energy =                            0.0000000000000000
    Total Energy =                       -271.2750033066562878
    Molecular point group: c1
  Basis Set: CC-PVTZ
  Basis Set:

  -Total Gradient:
     Atom            X                  Y                   Z
    ------   -----------------  -----------------  -----------------
       1       -0.000002297647     0.000003850708    -0.000022417950
       2        0.000704189469    -0.002425253598    -0.002163849455
       3       -0.001074110223     0.002921557393     0.003002569844
       4        0.000013764184    -0.000010959776     0.000010517057
       5       -0.000015188042     0.000012661768     0.000005055824
       6        0.000392333570     0.002093630067    -0.000133635223
       7       -0.000117468408    -0.002588996170    -0.000680319220
       8        0.000050223679     0.000031180042     0.000047144242
       9        0.000046377150    -0.000025040217     0.000003224047
      10       -0.000001937556     0.000003282356    -0.000010045041
      11       -0.000003263774    -0.000008399917     0.000012208534
      12       -0.000015900408     0.000003013094     0.000005267595
      13        0.000013664713    -0.000039368319     0.000024200351
      14       -0.000067151586     0.000011100005    -0.000023851652
      15        0.000075942986     0.000012672618    -0.000061860028
      16        0.000028455857     0.000018451320     0.000006605065
      17       -0.000027959192    -0.000012261032     0.000006836397
      18        0.000000325228    -0.000001120341    -0.000027650385

  **** Optimization is complete! (in 8 steps) ****
    Final optimized geometry and variables:
    Molecular point group: c1

    Geometry (in Angstrom), charge = 0, multiplicity = 1:

    H           -2.188176300827    -0.280792112214     0.875993119363
    C           -1.975884683073    -0.410849653499    -0.182102308093
    O           -0.846627501678     0.288764719259    -0.590727928816
    H           -2.809191624374    -0.010476135196    -0.742065208722
    H           -1.904173492996    -1.472490111647    -0.391386642095
    C            0.401618492068     0.080568931465     0.047835591941
    C            1.441556114204     0.345960322758    -1.035546308770
    C            0.535412398210     1.084446709863     1.191729108241
    C            0.575581319883    -1.348066148608     0.568065676622
    H            1.296833383145     1.332345865404    -1.458006973296
    H            1.344062378558    -0.379392040820    -1.833371340331
    H            2.446593424686     0.287462128790    -0.633810528769
    H            0.431222385896     2.093783214367     0.814347667058
    H            1.499806718831     0.995880246541     1.678748043867
    H           -0.232062553525     0.923500660329     1.940022763301
    H            0.443566533039    -2.071772218759    -0.227038469958
    H            1.577565401240    -1.465440931137     0.961547246584
    H           -0.117709140538    -1.583337036522     1.365489491875

  Mulliken Charges: (a.u.)
   Center  Symbol    Alpha    Beta     Spin     Total
       1     H     0.47037  0.47037  0.00000  0.05926
       2     C     3.04297  3.04297  0.00000 -0.08595
       3     O     4.19518  4.19518  0.00000 -0.39037
       4     H     0.44227  0.44227  0.00000  0.11546
       5     H     0.46701  0.46701  0.00000  0.06598
       6     C     2.87394  2.87394  0.00000  0.25212
       7     C     3.14070  3.14070  0.00000 -0.28139
       8     C     3.14852  3.14852  0.00000 -0.29704
       9     C     3.17449  3.17449  0.00000 -0.34899
      10     H     0.44753  0.44753  0.00000  0.10494
      11     H     0.45142  0.45142  0.00000  0.09716
      12     H     0.45930  0.45930  0.00000  0.08140
      13     H     0.44796  0.44796  0.00000  0.10408
      14     H     0.45380  0.45380  0.00000  0.09239
      15     H     0.45040  0.45040  0.00000  0.09920
      16     H     0.44521  0.44521  0.00000  0.10958
      17     H     0.44397  0.44397  0.00000  0.11207
      18     H     0.44495  0.44495  0.00000  0.11010

   Total alpha = 25.00000, Total beta = 25.00000, Total charge =  0.00000

*** Psi4 exiting successfully. Buy a developer a beer!
