  ==> Input File <==

--------------------------------------------------------------------------
set {
	reference rhf
	basis 6-31G*
}

set_num_threads( 4 )
memory 2 gb

molecule MOL {
0 1

H	 -3.161837	 0.500524	 -0.000234
C	 -2.367097	 -0.232926	 -0.000000
O	 -1.158440	 0.455814	 -0.000122
H	 -2.468853	 -0.861886	 -0.882833
H	 -2.468942	 -0.861421	 0.883154
C	 -0.029776	 -0.365156	 0.000148
C	 -0.373208	 -1.670422	 0.696565
H	 0.795525	 0.131458	 0.512156
H	 0.295631	 -0.556284	 -1.023321
C	 0.809928	 -2.636230	 0.744344
H	 -0.713746	 -1.444679	 1.702416
H	 -1.210098	 -2.127684	 0.177696
H	 1.650986	 -2.206562	 1.281401
H	 0.536813	 -3.558594	 1.245840
H	 1.151641	 -2.893928	 -0.254269

	symmetry c1
}
set optking {
	frozen_dihedral = ("
		8 6 3 2
	")
}

ee = optimize('scf')
oeprop('DIPOLE', 'QUADRUPOLE', 'MULLIKEN_CHARGES')
f=open( 'psi4out.xyz', 'w' )
f.write( "15  " )
f.write( str(ee) + "\n" )
f.write( MOL.save_string_xyz() )
f.close()
--------------------------------------------------------------------------

    Molecular point group: c1
  Charge       = 0
  Multiplicity = 1
  Basis Set: 6-31G*
  Basis Set:
  @DF-RHF Final Energy:  -232.11887258991609
    Total Energy =                       -232.1188725899160090
    Molecular point group: c1
  Basis Set: 6-31G*
  Basis Set:
  Basis Set: 6-31G*
  Basis Set:
  @DF-RHF Final Energy:  -232.11870740240892
    Total Energy =                       -232.1187074024089725
  Basis Set: 6-31G*
  Basis Set:
  Basis Set: 6-31G*
  Basis Set:
  @DF-RHF Final Energy:  -232.12813388107421
    Total Energy =                       -232.1281338810743478
  Basis Set: 6-31G*
  Basis Set:
  Basis Set: 6-31G*
  Basis Set:
  @DF-RHF Final Energy:  -232.13055817483726
    Total Energy =                       -232.1305581748372902
  Basis Set: 6-31G*
  Basis Set:
  @DF-RHF Final Energy:  -232.13096370019082
    Total Energy =                       -232.1309637001908754
  Basis Set: 6-31G*
  Basis Set:
  @DF-RHF Final Energy:  -232.13130783341887
    Total Energy =                       -232.1313078334187594
  Basis Set: 6-31G*
  Basis Set:
  Basis Set: 6-31G*
  Basis Set:
  @DF-RHF Final Energy:  -232.13135163784568
    Total Energy =                       -232.1313516378459099
  Basis Set: 6-31G*
  Basis Set:
  Basis Set: 6-31G*
  Basis Set:
  @DF-RHF Final Energy:  -232.13135521097178
    Total Energy =                       -232.1313552109717762
  Basis Set: 6-31G*
  Basis Set:
  Charge       = 0
  Multiplicity = 1
  Basis Set: 6-31G*
  Basis Set:

    Orbital Energies (a.u.)
    -----------------------

    Doubly Occupied:

       1A    -20.548252     2A    -11.266332     3A    -11.262435
       4A    -11.221803     5A    -11.217748     6A     -1.369068
       7A     -1.059305     8A     -0.961774     9A     -0.886566
      10A     -0.798173    11A     -0.672406    12A     -0.659377
      13A     -0.626723    14A     -0.606183    15A     -0.560925
      16A     -0.539984    17A     -0.523814    18A     -0.499795
      19A     -0.491442    20A     -0.443451    21A     -0.404685

  @DF-RHF Final Energy:  -232.13135567331554

   => Energetics <=

    Nuclear Repulsion Energy =            192.1364028906806141
    One-Electron Energy =                -695.2950384638148762
    Two-Electron Energy =                 271.0272798998189501
    DFT Exchange-Correlation Energy =       0.0000000000000000
    Empirical Dispersion Energy =           0.0000000000000000
    PCM Polarization Energy =               0.0000000000000000
    EFP Energy =                            0.0000000000000000
    Total Energy =                       -232.1313556733152836
    Molecular point group: c1
  Basis Set: 6-31G*
  Basis Set:

  -Total Gradient:
     Atom            X                  Y                   Z
    ------   -----------------  -----------------  -----------------
       1       -0.000014705851    -0.000005748744     0.000001161365
       2       -0.000089447331     0.000005287765     0.004492655516
       3       -0.000256493504    -0.000408661752    -0.005744233064
       4       -0.000006168843    -0.000007190343     0.000004433301
       5        0.000015298511     0.000000785139     0.000005852383
       6        0.002104166604     0.002445902693    -0.003246818719
       7       -0.000009278049    -0.000013539360    -0.000035127707
       8       -0.001735939111    -0.002042332528     0.004516754610
       9        0.000003777667    -0.000012989754    -0.000005087118
      10        0.000000507158     0.000026949090     0.000020016510
      11       -0.000007722316    -0.000008423350     0.000000035355
      12       -0.000002755291     0.000014748703    -0.000008215540
      13        0.000010518400     0.000001583566    -0.000005925275
      14       -0.000002745303     0.000008386955     0.000005706872
      15       -0.000009012739    -0.000004758084    -0.000001208488

  **** Optimization is complete! (in 9 steps) ****
    Final optimized geometry and variables:
    Molecular point group: c1

    Geometry (in Angstrom), charge = 0, multiplicity = 1:

    H           -2.487724156267     1.682586456544    -0.398224121479
    C           -1.829456297332     0.828365807744    -0.314431392390
    O           -0.530134127505     1.329278059344    -0.290752000079
    H           -2.004342763703     0.176130898680    -1.168341342570
    H           -2.081872748524     0.287502531399     0.591911614558
    C            0.548820831741     0.430936038917    -0.274639259759
    C            0.312018196218    -0.904539637131     0.430238481974
    H            1.339826054312     0.940801987999     0.262830899012
    H            0.883384735607     0.249297395735    -1.294615773837
    C            1.597321623241    -1.732105765657     0.476879963867
    H           -0.039473743801    -0.720063808670     1.441623243676
    H           -0.460347170603    -1.475923314436    -0.075187245636
    H            2.383465450636    -1.211343984349     1.015648249538
    H            1.429107357761    -2.681170783895     0.974521351844
    H            1.965715262752    -1.944631052728    -0.522662233048

  Mulliken Charges: (a.u.)
   Center  Symbol    Alpha    Beta     Spin     Total
       1     H     0.41213  0.41213  0.00000  0.17574
       2     C     3.07944  3.07944  0.00000 -0.15888
       3     O     4.31438  4.31438  0.00000 -0.62875
       4     H     0.43188  0.43188  0.00000  0.13623
       5     H     0.42808  0.42808  0.00000  0.14384
       6     C     2.97067  2.97067  0.00000  0.05867
       7     C     3.18104  3.18104  0.00000 -0.36209
       8     H     0.41985  0.41985  0.00000  0.16030
       9     H     0.43019  0.43019  0.00000  0.13961
      10     C     3.24513  3.24513  0.00000 -0.49026
      11     H     0.41564  0.41564  0.00000  0.16872
      12     H     0.41848  0.41848  0.00000  0.16304
      13     H     0.41870  0.41870  0.00000  0.16260
      14     H     0.41515  0.41515  0.00000  0.16969
      15     H     0.41923  0.41923  0.00000  0.16154

   Total alpha = 21.00000, Total beta = 21.00000, Total charge =  0.00000
