  ==> Input File <==

--------------------------------------------------------------------------
set {
	reference rhf
	basis cc-pvtz
}

set_num_threads( 4 )
memory 2 gb

molecule MOL {
0 1

H	 2.867672	 -0.456275	 0.875795
C	 2.403497	 -0.020426	 0.000000
N	 0.989899	 -0.304564	 0.000000
H	 2.867672	 -0.456275	 -0.875795
H	 2.620366	 1.051270	 0.000000
C	 0.579246	 -1.069697	 1.159096
C	 0.555847	 -0.953286	 -1.219970
H	 1.083287	 -2.040418	 1.196334
H	 0.846872	 -0.526515	 2.058017
C	 -0.921123	 -1.289756	 1.132445
H	 0.806304	 -0.324689	 -2.066649
H	 1.058129	 -1.915251	 -1.361674
C	 -0.943920	 -1.176336	 -1.185494
H	 -1.224032	 -1.936996	 1.943588
H	 -1.430716	 -0.334821	 1.244306
O	 -1.319662	 -1.906738	 -0.055681
H	 -1.263308	 -1.741592	 -2.049845
H	 -1.454694	 -0.215532	 -1.193579

	symmetry c1
}
set optking {
	frozen_dihedral = ("
		6 3 2 5
	")
}

ee = optimize('scf')
oeprop('DIPOLE', 'QUADRUPOLE', 'MULLIKEN_CHARGES')
f=open( 'psi4out.xyz', 'w' )
f.write( "18  " )
f.write( str(ee) + "\n" )
f.write( MOL.save_string_xyz() )
f.close()
--------------------------------------------------------------------------

    Molecular point group: c1
  Charge       = 0
  Multiplicity = 1
  Basis Set: CC-PVTZ
  Basis Set:
  @DF-RHF Final Energy:  -325.13906533909483
    Total Energy =                       -325.1390653390943726
    Molecular point group: c1
  Basis Set: CC-PVTZ
  Basis Set:
  Basis Set: CC-PVTZ
  Basis Set:
  @DF-RHF Final Energy:  -325.13971920433630
    Total Energy =                       -325.1397192043361315
  Basis Set: CC-PVTZ
  Basis Set:
  Basis Set: CC-PVTZ
  Basis Set:
  @DF-RHF Final Energy:  -325.13985070896263
    Total Energy =                       -325.1398507089626264
  Basis Set: CC-PVTZ
  Basis Set:
  Basis Set: CC-PVTZ
  Basis Set:
  @DF-RHF Final Energy:  -325.13985728229227
    Total Energy =                       -325.1398572822927235
  Basis Set: CC-PVTZ
  Basis Set:
  Charge       = 0
  Multiplicity = 1
  Basis Set: CC-PVTZ
  Basis Set:

    Orbital Energies (a.u.)
    -----------------------

    Doubly Occupied:

       1A    -20.546928     2A    -15.540569     3A    -11.263476
       4A    -11.263450     5A    -11.242411     6A    -11.242355
       7A    -11.238876     8A     -1.385792     9A     -1.228925
      10A     -1.038756    11A     -0.980943    12A     -0.883554
      13A     -0.870429    14A     -0.773470    15A     -0.684312
      16A     -0.645593    17A     -0.644270    18A     -0.631763
      19A     -0.627839    20A     -0.572267    21A     -0.558044
      22A     -0.548013    23A     -0.527007    24A     -0.499832
      25A     -0.484932    26A     -0.453346    27A     -0.409852
      28A     -0.348071

  @DF-RHF Final Energy:  -325.13985801493283

   => Energetics <=

    Nuclear Repulsion Energy =            341.3455079072156764
    One-Electron Energy =               -1118.7005801290629279
    Two-Electron Energy =                 452.2152142069145384
    DFT Exchange-Correlation Energy =       0.0000000000000000
    Empirical Dispersion Energy =           0.0000000000000000
    PCM Polarization Energy =               0.0000000000000000
    EFP Energy =                            0.0000000000000000
    Total Energy =                       -325.1398580149326563
    Molecular point group: c1
  Basis Set: CC-PVTZ
  Basis Set:

  -Total Gradient:
     Atom            X                  Y                   Z
    ------   -----------------  -----------------  -----------------
       1       -0.000002227164    -0.000015830528    -0.000004548526
       2        0.000014210462     0.000354535551    -0.001456801929
       3        0.000231329102    -0.001172085035    -0.000321313886
       4       -0.000016463921    -0.000021779212     0.000008574848
       5       -0.000034822708     0.000011472242     0.001297018756
       6       -0.000197041957     0.000843449306     0.000490858628
       7        0.000016779639    -0.000009086321    -0.000024125263
       8        0.000001936092     0.000010938096    -0.000010580546
       9       -0.000007644549    -0.000004741326    -0.000001354442
      10       -0.000017248335     0.000001039046     0.000001727929
      11       -0.000005676072    -0.000003468056    -0.000000297975
      12        0.000005740378     0.000008246314     0.000010424534
      13       -0.000017665272     0.000011802444     0.000013390921
      14       -0.000010061216    -0.000007001249    -0.000004235773
      15        0.000011964608     0.000003708856     0.000007356728
      16        0.000023178471    -0.000013022370    -0.000002025342
      17       -0.000003084302    -0.000005677885     0.000005805335
      18        0.000006796743     0.000007500127    -0.000009873996

  **** Optimization is complete! (in 5 steps) ****
    Final optimized geometry and variables:
    Molecular point group: c1

    Geometry (in Angstrom), charge = 0, multiplicity = 1:

    H            2.714263208914     0.599682993809     0.916595851803
    C            2.222910695317     0.967357329193     0.022718853325
    N            0.811524641421     0.624487956467     0.024819066258
    H            2.741356044054     0.531965112275    -0.825917491058
    H            2.366152928579     2.042014435002    -0.007813210740
    C            0.384832216104    -0.123181269740     1.187858107596
    C            0.358681643201     0.002696995731    -1.200231174216
    H            0.868175966290    -1.103919801931     1.239612573453
    H            0.654621409915     0.423327359756     2.083820195677
    C           -1.119727572623    -0.313736961438     1.157620057721
    H            0.611456540202     0.639581865585    -2.040108407077
    H            0.841460289492    -0.966052690127    -1.362970077837
    C           -1.144871480894    -0.192748687682    -1.159497807524
    H           -1.437016556065    -0.955155160940     1.968095363652
    H           -1.609738078327     0.651575441770     1.269181214569
    O           -1.529025613873    -0.921381640273    -0.031532876770
    H           -1.478755266716    -0.747532668274    -2.025342222996
    H           -1.637354034419     0.777719438775    -1.160376416864

  Mulliken Charges: (a.u.)
   Center  Symbol    Alpha    Beta     Spin     Total
       1     H     0.45941  0.45941  0.00000  0.08119
       2     C     3.08971  3.08971  0.00000 -0.17942
       3     N     3.61945  3.61945  0.00000 -0.23891
       4     H     0.46106  0.46106  0.00000  0.07788
       5     H     0.44945  0.44945  0.00000  0.10111
       6     C     3.04140  3.04140  0.00000 -0.08280
       7     C     3.04180  3.04180  0.00000 -0.08359
       8     H     0.46894  0.46894  0.00000  0.06213
       9     H     0.45367  0.45367  0.00000  0.09266
      10     C     2.98447  2.98447  0.00000  0.03106
      11     H     0.45355  0.45355  0.00000  0.09290
      12     H     0.46893  0.46893  0.00000  0.06215
      13     C     2.98445  2.98445  0.00000  0.03110
      14     H     0.45013  0.45013  0.00000  0.09973
      15     H     0.46854  0.46854  0.00000  0.06292
      16     O     4.18638  4.18638  0.00000 -0.37277
      17     H     0.45017  0.45017  0.00000  0.09966
      18     H     0.46850  0.46850  0.00000  0.06300

   Total alpha = 28.00000, Total beta = 28.00000, Total charge =  0.00000
