  ==> Input File <==

--------------------------------------------------------------------------
set {
	reference rhf
	basis cc-pvtz
}

set_num_threads( 4 )
memory 2 gb

molecule MOL {
0 1

H	 -3.144994	 -1.202467	 -0.018751
O	 -2.321472	 -0.864941	 -0.318626
C	 -2.021813	 0.336996	 0.342658
C	 -0.669613	 0.837286	 -0.127252
H	 -2.780861	 1.084746	 0.127159
H	 -2.006390	 0.184138	 1.420053
C	 0.490865	 -0.082543	 0.241244
H	 -0.708709	 0.967192	 -1.204587
H	 -0.507562	 1.822272	 0.303070
C	 1.839800	 0.429565	 -0.255472
H	 0.305636	 -1.070211	 -0.165276
H	 0.527397	 -0.195943	 1.322876
C	 2.775864	 -0.688442	 -0.702271
H	 1.679423	 1.115773	 -1.082575
H	 2.319415	 1.007542	 0.530406
H	 2.338809	 -1.263050	 -1.512039
H	 3.723187	 -0.292955	 -1.050801
H	 2.983726	 -1.374099	 0.112661

	symmetry c1
}
set optking {
	frozen_dihedral = ("
		14 10 7 11
	")
}

ee = optimize('scf')
oeprop('DIPOLE', 'QUADRUPOLE', 'MULLIKEN_CHARGES')
f=open( 'psi4out.xyz', 'w' )
f.write( "18  " )
f.write( str(ee) + "\n" )
f.write( MOL.save_string_xyz() )
f.close()
--------------------------------------------------------------------------

    Molecular point group: c1
  Charge       = 0
  Multiplicity = 1
  Basis Set: CC-PVTZ
  Basis Set:
  @DF-RHF Final Energy:  -271.28305992667708
    Total Energy =                       -271.2830599266771969
    Molecular point group: c1
  Basis Set: CC-PVTZ
  Basis Set:
  Basis Set: CC-PVTZ
  Basis Set:
  @DF-RHF Final Energy:  -271.28338359323971
    Total Energy =                       -271.2833835932397051
  Basis Set: CC-PVTZ
  Basis Set:
  Basis Set: CC-PVTZ
  Basis Set:
  @DF-RHF Final Energy:  -271.28343567622346
    Total Energy =                       -271.2834356762231209
  Basis Set: CC-PVTZ
  Basis Set:
  Basis Set: CC-PVTZ
  Basis Set:
  @DF-RHF Final Energy:  -271.28343675374549
    Total Energy =                       -271.2834367537452636
  Basis Set: CC-PVTZ
  Basis Set:
  Charge       = 0
  Multiplicity = 1
  Basis Set: CC-PVTZ
  Basis Set:

    Orbital Energies (a.u.)
    -----------------------

    Doubly Occupied:

       1A    -20.546240     2A    -11.265932     3A    -11.211086
       4A    -11.208936     5A    -11.204780     6A    -11.202803
       7A     -1.364144     8A     -1.075055     9A     -1.010072
      10A     -0.914279    11A     -0.819841    12A     -0.785143
      13A     -0.707649    14A     -0.643251    15A     -0.622754
      16A     -0.581055    17A     -0.573257    18A     -0.564289
      19A     -0.518822    20A     -0.502971    21A     -0.494746
      22A     -0.467978    23A     -0.452572    24A     -0.449005
      25A     -0.431951

  @DF-RHF Final Energy:  -271.28343681507073

   => Energetics <=

    Nuclear Repulsion Energy =            249.3850371601907341
    One-Electron Energy =                -862.0997291005821808
    Two-Electron Energy =                 341.4312551253208881
    DFT Exchange-Correlation Energy =       0.0000000000000000
    Empirical Dispersion Energy =           0.0000000000000000
    PCM Polarization Energy =               0.0000000000000000
    EFP Energy =                            0.0000000000000000
    Total Energy =                       -271.2834368150706155
    Molecular point group: c1
  Basis Set: CC-PVTZ
  Basis Set:

  -Total Gradient:
     Atom            X                  Y                   Z
    ------   -----------------  -----------------  -----------------
       1        0.000002438801    -0.000000135464     0.000002599647
       2        0.000009614796    -0.000014769363    -0.000004780657
       3       -0.000019199412     0.000017209069    -0.000016542513
       4        0.000005486859    -0.000007456879     0.000026315675
       5       -0.000005978999     0.000007539197     0.000005557008
       6        0.000010258343     0.000002786294    -0.000008613811
       7       -0.002412231658     0.003070393873    -0.003632012530
       8       -0.000000614147    -0.000007300226     0.000010439188
       9        0.000001641370    -0.000001591891     0.000001835766
      10        0.000814826417    -0.004503129500    -0.002675098938
      11        0.001881854008    -0.001841825621     0.003453432451
      12       -0.000004855155     0.000003406004     0.000005951111
      13        0.000009454234     0.000007826863    -0.000002528331
      14       -0.000294680755     0.003256932108     0.002822136447
      15        0.000007239338     0.000001722322     0.000005693837
      16       -0.000002556438     0.000008172596     0.000007586065
      17        0.000001571307    -0.000004151613    -0.000002676190
      18       -0.000004268919     0.000004372231     0.000000705775

  **** Optimization is complete! (in 5 steps) ****
    Final optimized geometry and variables:
    Molecular point group: c1

    Geometry (in Angstrom), charge = 0, multiplicity = 1:

    H           -3.135310214723    -1.142876093118     0.183353854159
    O           -2.315696527411    -0.817774619173    -0.139818761042
    C           -1.983382919516     0.383535482525     0.506622458880
    C           -0.639392051932     0.865012435776    -0.003737175395
    H           -2.739122748940     1.139601206474     0.309038083393
    H           -1.938900666265     0.235598616709     1.583822164707
    C            0.518287701111    -0.071886789833     0.323246913573
    H           -0.708300265476     1.000864202861    -1.078709563906
    H           -0.448097134202     1.845427577832     0.425743045599
    C            1.884076639816     0.455385416004    -0.141068522836
    H            0.335307950018    -1.053328561227    -0.097487926315
    H            0.549833043043    -0.229263039931     1.399235034304
    C            2.860460063746    -0.643981820586    -0.540446792935
    H            1.749168678902     1.155515494195    -0.960574984972
    H            2.324263934527     1.046922060579     0.657261524957
    H            2.482716085260    -1.213060128156    -1.382994430083
    H            3.824313352483    -0.233781033696    -0.820114314565
    H            3.021296017051    -1.337661047554     0.278524284174

  Mulliken Charges: (a.u.)
   Center  Symbol    Alpha    Beta     Spin     Total
       1     H     0.39580  0.39580  0.00000  0.20841
       2     O     4.19832  4.19832  0.00000 -0.39664
       3     C     2.97402  2.97402  0.00000  0.05195
       4     C     3.09156  3.09156  0.00000 -0.18312
       5     H     0.46561  0.46561  0.00000  0.06878
       6     H     0.47381  0.47381  0.00000  0.05238
       7     C     3.08896  3.08896  0.00000 -0.17793
       8     H     0.45185  0.45185  0.00000  0.09630
       9     H     0.45334  0.45334  0.00000  0.09331
      10     C     3.08510  3.08510  0.00000 -0.17020
      11     H     0.44494  0.44494  0.00000  0.11011
      12     H     0.45832  0.45832  0.00000  0.08337
      13     C     3.14773  3.14773  0.00000 -0.29545
      14     H     0.45604  0.45604  0.00000  0.08793
      15     H     0.45494  0.45494  0.00000  0.09011
      16     H     0.45414  0.45414  0.00000  0.09172
      17     H     0.45056  0.45056  0.00000  0.09888
      18     H     0.45496  0.45496  0.00000  0.09007

   Total alpha = 25.00000, Total beta = 25.00000, Total charge = -0.00000
