  ==> Input File <==

--------------------------------------------------------------------------
set {
	reference rhf
	basis 6-31G*
}

set_num_threads( 1 )
memory 2 gb

molecule MOL {
0 1

H	 3.276176	 0.174363	 -0.109463
N	 2.434251	 -0.367735	 -0.081097
C	 1.267428	 0.496480	 0.024474
H	 2.501951	 -0.965776	 0.720575
C	 -0.016086	 -0.325158	 -0.029487
H	 1.288818	 1.183521	 -0.816092
H	 1.267576	 1.109062	 0.929528
C	 -1.282277	 0.529072	 0.046735
H	 -0.012495	 -0.908639	 -0.945788
H	 -0.015903	 -1.041248	 0.791956
C	 -2.415451	 -0.008494	 -0.826558
H	 -1.048334	 1.547880	 -0.255405
H	 -1.620687	 0.587293	 1.079229
H	 -2.120314	 -0.045937	 -1.871169
H	 -3.299234	 0.617784	 -0.754276
H	 -2.697200	 -1.014179	 -0.527498

	symmetry c1
}
set optking {
	frozen_dihedral = ("
		6 3 5 9,
		1 2 3 6
	")
}

ee = energy('scf')
oeprop('DIPOLE', 'QUADRUPOLE', 'MULLIKEN_CHARGES')
f=open( 'psi4out.xyz', 'w' )
f.write( "16  " )
f.write( str(ee) + "\n" )
f.write( MOL.save_string_xyz() )
f.close()
--------------------------------------------------------------------------

    Molecular point group: c1

    Geometry (in Angstrom), charge = 0, multiplicity = 1:

       Center              X                  Y                   Z               Mass
    ------------   -----------------  -----------------  -----------------  -----------------
           H          3.245647315382     0.114063503703     0.059177652693     1.007825032070
           N          2.403722315382    -0.428034496297     0.087543652693    14.003074004780
           C          1.236899315382     0.436180503703     0.193114652693    12.000000000000
           H          2.471422315382    -1.026075496297     0.889215652693     1.007825032070
           C         -0.046614684618    -0.385457496297     0.139153652693    12.000000000000
           H          1.258289315382     1.123221503703    -0.647451347307     1.007825032070
           H          1.237047315382     1.048762503703     1.098168652693     1.007825032070
           C         -1.312805684618     0.468772503703     0.215375652693    12.000000000000
           H         -0.043023684618    -0.968938496297    -0.777147347307     1.007825032070
           H         -0.046431684618    -1.101547496297     0.960596652693     1.007825032070
           C         -2.445979684618    -0.068793496297    -0.657917347307    12.000000000000
           H         -1.078862684618     1.487580503703    -0.086764347307     1.007825032070
           H         -1.651215684618     0.526993503703     1.247869652693     1.007825032070
           H         -2.150842684618    -0.106236496297    -1.702528347307     1.007825032070
           H         -3.329762684618     0.557484503703    -0.585635347307     1.007825032070
           H         -2.727728684618    -1.074478496297    -0.358857347307     1.007825032070

  Charge       = 0
  Multiplicity = 1
  Basis Set: 6-31G*
  Basis Set:

    Orbital Energies (a.u.)
    -----------------------

    Doubly Occupied:

       1A    -15.532501     2A    -11.240281     3A    -11.214104
       4A    -11.208560     5A    -11.207568     6A     -1.176723
       7A     -1.059362     8A     -0.957950     9A     -0.844899
      10A     -0.791245    11A     -0.663126    12A     -0.631068
      13A     -0.614595    14A     -0.576304    15A     -0.559501
      16A     -0.528366    17A     -0.498821    18A     -0.471365
      19A     -0.462673    20A     -0.458712    21A     -0.381096

  @DF-RHF Final Energy:  -212.31339723913749

   => Energetics <=

    Nuclear Repulsion Energy =            186.5950706044317258
    One-Electron Energy =                -655.6593750743933242
    Two-Electron Energy =                 256.7509072308239411
    DFT Exchange-Correlation Energy =       0.0000000000000000
    Empirical Dispersion Energy =           0.0000000000000000
    PCM Polarization Energy =               0.0000000000000000
    EFP Energy =                            0.0000000000000000
    Total Energy =                       -212.3133972391376574

  Mulliken Charges: (a.u.)
   Center  Symbol    Alpha    Beta     Spin     Total
       1     H     0.33255  0.33255  0.00000  0.33490
       2     N     3.92181  3.92181  0.00000 -0.84362
       3     C     3.06281  3.06281  0.00000 -0.12561
       4     H     0.33533  0.33533  0.00000  0.32933
       5     C     3.15229  3.15229  0.00000 -0.30459
       6     H     0.42061  0.42061  0.00000  0.15878
       7     H     0.43442  0.43442  0.00000  0.13116
       8     C     3.15699  3.15699  0.00000 -0.31398
       9     H     0.41173  0.41173  0.00000  0.17653
      10     H     0.42590  0.42590  0.00000  0.14819
      11     C     3.23941  3.23941  0.00000 -0.47882
      12     H     0.42239  0.42239  0.00000  0.15522
      13     H     0.42142  0.42142  0.00000  0.15715
      14     H     0.42039  0.42039  0.00000  0.15923
      15     H     0.42072  0.42072  0.00000  0.15856
      16     H     0.42123  0.42123  0.00000  0.15755

   Total alpha = 21.00000, Total beta = 21.00000, Total charge =  0.00000
