  ==> Input File <==

--------------------------------------------------------------------------
set {
	reference rhf
	basis 6-31G*
}

set_num_threads( 1 )
memory 2 gb

molecule MOL {
0 1

H	 0.589552	 4.727506	 0.664260
N	 -0.213769	 4.136864	 0.567500
C	 0.185586	 2.760543	 0.311017
H	 -0.746716	 4.496862	 -0.201395
C	 -1.035139	 1.847800	 0.261178
H	 0.833658	 2.448415	 1.124306
H	 0.762028	 2.645544	 -0.610334
C	 -0.679275	 0.379305	 0.025956
H	 -1.583125	 1.956802	 1.192663
H	 -1.701922	 2.188278	 -0.530536
C	 -1.903357	 -0.536963	 -0.023547
H	 -0.010518	 0.039260	 0.815249
H	 -0.123611	 0.283629	 -0.905672
C	 -3.225172	 0.228290	 0.028445
H	 -1.867824	 -1.134999	 -0.931459
H	 -1.860449	 -1.239604	 0.805977
H	 -3.313397	 0.915643	 -0.808262
H	 -4.073500	 -0.448134	 -0.008893
H	 -3.306061	 0.809945	 0.942516

	symmetry c1
}
set optking {
	frozen_dihedral = ("
		6 3 5 9,
		12 8 5 9,
		1 2 3 6
	")
}

ee = energy('scf')
oeprop('DIPOLE', 'QUADRUPOLE', 'MULLIKEN_CHARGES')
f=open( 'psi4out.xyz', 'w' )
f.write( "19  " )
f.write( str(ee) + "\n" )
f.write( MOL.save_string_xyz() )
f.close()
--------------------------------------------------------------------------

    Molecular point group: c1

    Geometry (in Angstrom), charge = 0, multiplicity = 1:

       Center              X                  Y                   Z               Mass
    ------------   -----------------  -----------------  -----------------  -----------------
           H          1.730843158043     3.213191303703     0.472033290966     1.007825032070
           N          0.927522158043     2.622549303703     0.375273290966    14.003074004780
           C          1.326877158043     1.246228303703     0.118790290966    12.000000000000
           H          0.394575158043     2.982547303703    -0.393621709034     1.007825032070
           C          0.106152158043     0.333485303703     0.068951290966    12.000000000000
           H          1.974949158043     0.934100303703     0.932079290966     1.007825032070
           H          1.903319158043     1.131229303703    -0.802560709034     1.007825032070
           C          0.462016158043    -1.135009696297    -0.166270709034    12.000000000000
           H         -0.441833841957     0.442487303703     1.000436290966     1.007825032070
           H         -0.560630841957     0.673963303703    -0.722762709034     1.007825032070
           C         -0.762065841957    -2.051277696297    -0.215773709034    12.000000000000
           H          1.130773158043    -1.475054696297     0.623022290966     1.007825032070
           H          1.017680158043    -1.230685696297    -1.097898709034     1.007825032070
           C         -2.083880841957    -1.286024696297    -0.163781709034    12.000000000000
           H         -0.726532841957    -2.649313696297    -1.123685709034     1.007825032070
           H         -0.719157841957    -2.753918696297     0.613750290966     1.007825032070
           H         -2.172105841957    -0.598671696297    -1.000488709034     1.007825032070
           H         -2.932208841957    -1.962448696297    -0.201119709034     1.007825032070
           H         -2.164769841957    -0.704369696297     0.750289290966     1.007825032070

  Charge       = 0
  Multiplicity = 1
  Basis Set: 6-31G*
  Basis Set:

    Orbital Energies (a.u.)
    -----------------------

    Doubly Occupied:

       1A    -15.531837     2A    -11.238366     3A    -11.212207
       4A    -11.211038     5A    -11.207667     6A    -11.204485
       7A     -1.175869     8A     -1.076317     9A     -0.989353
      10A     -0.905538    11A     -0.829662    12A     -0.765517
      13A     -0.665557    14A     -0.641334    15A     -0.612296
      16A     -0.602315    17A     -0.569670    18A     -0.537917
      19A     -0.528264    20A     -0.505720    21A     -0.487273
      22A     -0.458209    23A     -0.452894    24A     -0.440718
      25A     -0.380378

  @DF-RHF Final Energy:  -251.33765426124566

   => Energetics <=

    Nuclear Repulsion Energy =            252.2984787444994765
    One-Electron Energy =                -838.8114368524677502
    Two-Electron Energy =                 335.1753038467235228
    DFT Exchange-Correlation Energy =       0.0000000000000000
    Empirical Dispersion Energy =           0.0000000000000000
    PCM Polarization Energy =               0.0000000000000000
    EFP Energy =                            0.0000000000000000
    Total Energy =                       -251.3376542612447793

  Mulliken Charges: (a.u.)
   Center  Symbol    Alpha    Beta     Spin     Total
       1     H     0.33253  0.33253  0.00000  0.33494
       2     N     3.92207  3.92207  0.00000 -0.84415
       3     C     3.05826  3.05826  0.00000 -0.11653
       4     H     0.33558  0.33558  0.00000  0.32885
       5     C     3.15776  3.15776  0.00000 -0.31553
       6     H     0.42148  0.42148  0.00000  0.15703
       7     H     0.43535  0.43535  0.00000  0.12930
       8     C     3.15906  3.15906  0.00000 -0.31812
       9     H     0.41116  0.41116  0.00000  0.17768
      10     H     0.42549  0.42549  0.00000  0.14902
      11     C     3.15394  3.15394  0.00000 -0.30788
      12     H     0.42067  0.42067  0.00000  0.15865
      13     H     0.42229  0.42229  0.00000  0.15542
      14     C     3.24565  3.24565  0.00000 -0.49129
      15     H     0.42072  0.42072  0.00000  0.15856
      16     H     0.42028  0.42028  0.00000  0.15943
      17     H     0.42121  0.42121  0.00000  0.15757
      18     H     0.41859  0.41859  0.00000  0.16282
      19     H     0.41788  0.41788  0.00000  0.16423

   Total alpha = 25.00000, Total beta = 25.00000, Total charge = -0.00000
