  ==> Input File <==

--------------------------------------------------------------------------
set {
	reference rhf
	basis 6-31G*
}

set_num_threads( 1 )
memory 2 gb

molecule MOL {
0 1

H	 -2.646374	 -0.642757	 1.268656
C	 -2.083525	 -0.384536	 0.393091
O	 -0.807605	 -0.127164	 0.768327
F	 -2.118945	 -1.383102	 -0.486752
F	 -2.621877	 0.670592	 -0.209486
C	 -0.025451	 0.631654	 -0.083212
C	 1.315096	 -0.080603	 -0.208836
Cl	 0.195601	 2.269424	 0.554018
H	 -0.455538	 0.718935	 -1.065648
F	 2.112835	 0.581129	 -1.019924
F	 1.112909	 -1.278285	 -0.720810
F	 1.911909	 -0.219725	 0.949798

	symmetry c1
}
set optking {
	frozen_dihedral = ("
		10 7 6 9,
		9 6 3 2
	")
}

ee = energy('scf')
oeprop('DIPOLE', 'QUADRUPOLE', 'MULLIKEN_CHARGES')
f=open( 'psi4out.xyz', 'w' )
f.write( "12  " )
f.write( str(ee) + "\n" )
f.write( MOL.save_string_xyz() )
f.close()
--------------------------------------------------------------------------

    Molecular point group: c1

    Geometry (in Angstrom), charge = 0, multiplicity = 1:

       Center              X                  Y                   Z               Mass
    ------------   -----------------  -----------------  -----------------  -----------------
           H         -2.585542709691    -0.906082137801     1.242424319752     1.007825032070
           C         -2.022693709691    -0.647861137801     0.366859319752    12.000000000000
           O         -0.746773709691    -0.390489137801     0.742095319752    15.994914619560
           F         -2.058113709691    -1.646427137801    -0.512983680248    18.998403224000
           F         -2.561045709691     0.407266862199    -0.235717680248    18.998403224000
           C          0.035380290309     0.368328862199    -0.109443680248    12.000000000000
           C          1.375927290309    -0.343928137801    -0.235067680248    12.000000000000
          CL          0.256432290309     2.006098862199     0.527786319752    34.968852682000
           H         -0.394706709691     0.455609862199    -1.091879680248     1.007825032070
           F          2.173666290309     0.317803862199    -1.046155680248    18.998403224000
           F          1.173740290309    -1.541610137801    -0.747041680248    18.998403224000
           F          1.972740290309    -0.483050137801     0.923566319752    18.998403224000

  Charge       = 0
  Multiplicity = 1
  Basis Set: 6-31G*
  Basis Set:

    Orbital Energies (a.u.)
    -----------------------

    Doubly Occupied:

       1A   -104.844684     2A    -26.359520     3A    -26.357702
       4A    -26.357024     5A    -26.351938     6A    -26.341826
       7A    -20.649472     8A    -11.526809     9A    -11.489795
      10A    -11.400856    11A    -10.579403    12A     -8.048760
      13A     -8.045234    14A     -8.045129    15A     -1.760386
      16A     -1.718773    17A     -1.657058    18A     -1.655350
      19A     -1.638765    20A     -1.486226    21A     -1.180311
      22A     -1.052172    23A     -0.986345    24A     -0.919228
      25A     -0.859210    26A     -0.851398    27A     -0.844277
      28A     -0.827261    29A     -0.811740    30A     -0.790376
      31A     -0.726727    32A     -0.725431    33A     -0.704901
      34A     -0.700101    35A     -0.678166    36A     -0.674323
      37A     -0.658563    38A     -0.657095    39A     -0.648534
      40A     -0.632796    41A     -0.597236    42A     -0.582232
      43A     -0.521537    44A     -0.478251    45A     -0.469766

  @DF-RHF Final Energy: -1146.31297281550223

   => Energetics <=

    Nuclear Repulsion Energy =            738.0573228952353020
    One-Electron Energy =               -3058.9551031346923082
    Two-Electron Energy =                1174.5848074239531798
    DFT Exchange-Correlation Energy =       0.0000000000000000
    Empirical Dispersion Energy =           0.0000000000000000
    PCM Polarization Energy =               0.0000000000000000
    EFP Energy =                            0.0000000000000000
    Total Energy =                      -1146.3129728155038265

  Mulliken Charges: (a.u.)
   Center  Symbol    Alpha    Beta     Spin     Total
       1     H     0.40285  0.40285  0.00000  0.19429
       2     C     2.56528  2.56528  0.00000  0.86943
       3     O     4.29923  4.29923  0.00000 -0.59847
       4     F     4.68404  4.68404  0.00000 -0.36807
       5     F     4.68457  4.68457  0.00000 -0.36913
       6     C     3.04667  3.04667  0.00000 -0.09334
       7     C     2.43260  2.43260  0.00000  1.13480
       8    CL     8.50034  8.50034  0.00000 -0.00068
       9     H     0.36615  0.36615  0.00000  0.26769
      10     F     4.67411  4.67411  0.00000 -0.34822
      11     F     4.67583  4.67583  0.00000 -0.35165
      12     F     4.66832  4.66832  0.00000 -0.33664

   Total alpha = 45.00000, Total beta = 45.00000, Total charge = -0.00000
