                              Psi4 1.0.54 Driver

  ==> Input File <==

--------------------------------------------------------------------------
set {
	reference rhf
	basis cc-pvtz
}

set_num_threads( 4 )
memory 2 gb

molecule MOL {
0 1

H	 3.721907	 -0.933076	 -0.066039
O	 2.824271	 -1.154299	 0.131461
C	 2.076458	 -0.067370	 -0.038225
C	 0.626018	 -0.337582	 0.258241
O	 2.538288	 0.965419	 -0.381593
C	 -0.267326	 0.883135	 0.076490
H	 0.325620	 -1.161483	 -0.378003
H	 0.574537	 -0.713685	 1.275261
C	 -1.726822	 0.642622	 0.463839
H	 -0.210803	 1.217591	 -0.953497
H	 0.129920	 1.693110	 0.675679
C	 -2.480891	 -0.340606	 -0.429852
H	 -2.243098	 1.597649	 0.438609
H	 -1.776542	 0.301208	 1.495542
C	 -3.917089	 -0.571292	 0.029055
H	 -2.484792	 0.035457	 -1.449457
H	 -1.963668	 -1.294368	 -0.457673
H	 -4.429791	 -1.269867	 -0.621954
H	 -4.480901	 0.355430	 0.030115
H	 -3.945809	 -0.975337	 1.035572

	symmetry c1
}
set optking {
	frozen_dihedral = ("
		16 12 9 6
	")
}

ee,wfn = optimize('scf', return_wfn=True)
oeprop( wfn, 'DIPOLE', 'QUADRUPOLE', 'MULLIKEN_CHARGES')
f=open( 'psi4out.xyz', 'w' )
f.write( "20  " )
f.write( str(ee) + "\n" )
f.write( MOL.save_string_xyz() )
f.close()
--------------------------------------------------------------------------

    Molecular point group: c1
  Charge       = 0
  Multiplicity = 1
  Basis Set: CC-PVTZ
  Basis Set:
  @DF-RHF Final Energy:  -384.09489881322565
    Total Energy =                       -384.0948988132250861
    Molecular point group: c1
  Basis Set: CC-PVTZ
  Basis Set:
  Basis Set: CC-PVTZ
  Basis Set:
  @DF-RHF Final Energy:  -384.09485151764602
    Total Energy =                       -384.0948515176464184
  Basis Set: CC-PVTZ
  Basis Set:
  Basis Set: CC-PVTZ
  Basis Set:
  @DF-RHF Final Energy:  -384.09491734936250
    Total Energy =                       -384.0949173493621629
  Basis Set: CC-PVTZ
  Basis Set:
  Basis Set: CC-PVTZ
  Basis Set:
  @DF-RHF Final Energy:  -384.09485780590234
    Total Energy =                       -384.0948578059019951
  Basis Set: CC-PVTZ
  Basis Set:
  Basis Set: CC-PVTZ
  Basis Set:
  @DF-RHF Final Energy:  -384.09492504458956
    Total Energy =                       -384.0949250445897860
  Basis Set: CC-PVTZ
  Basis Set:
  Charge       = 0
  Multiplicity = 1
  Basis Set: CC-PVTZ
  Basis Set:

    Orbital Energies (a.u.)
    -----------------------

    Doubly Occupied:

       1A    -20.603905     2A    -20.540512     3A    -11.373466
       4A    -11.238716     5A    -11.221036     6A    -11.218776
       7A    -11.218157     8A    -11.210498     9A     -1.477451
      10A     -1.368985    11A     -1.097492    12A     -1.042336
      13A     -0.962473    14A     -0.870325    15A     -0.817362
      16A     -0.778520    17A     -0.703706    18A     -0.693194
      19A     -0.666445    20A     -0.637103    21A     -0.605983
      22A     -0.595960    23A     -0.577457    24A     -0.555756
      25A     -0.541832    26A     -0.513208    27A     -0.496544
      28A     -0.484585    29A     -0.471213    30A     -0.468567
      31A     -0.458123    32A     -0.446536

  @DF-RHF Final Energy:  -384.09492533895468

   => Energetics <=

    Nuclear Repulsion Energy =            376.5794870273741708
    One-Electron Energy =               -1269.4363839692869078
    Two-Electron Energy =                 508.7619716029578854
    DFT Exchange-Correlation Energy =       0.0000000000000000
    Empirical Dispersion Energy =           0.0000000000000000
    PCM Polarization Energy =               0.0000000000000000
    EFP Energy =                            0.0000000000000000
    Total Energy =                       -384.0949253389548517
    Molecular point group: c1
  Basis Set: CC-PVTZ
  Basis Set:

  -Total Gradient:
     Atom            X                  Y                   Z
    ------   -----------------  -----------------  -----------------
       1       -0.000014226383     0.000017756516    -0.000002980161
       2       -0.000022621414    -0.000085471252     0.000014624035
       3        0.000020969335    -0.000020768927     0.000049159070
       4        0.000014807282    -0.000011855781    -0.000019971024
       5       -0.000017528896     0.000097729623    -0.000041487051
       6        0.000217914975    -0.000572898426     0.000456209492
       7       -0.000005560062    -0.000017989017    -0.000004461411
       8        0.000009717976    -0.000002028782     0.000006263567
       9       -0.000508150508     0.000947613161    -0.000605663325
      10       -0.000002773642     0.000006891602    -0.000012028305
      11       -0.000005274620     0.000007977252     0.000006064829
      12        0.001159445366    -0.000889865123    -0.000040484049
      13        0.000000305683     0.000012859385     0.000003684875
      14        0.000005400365    -0.000001589454     0.000014710118
      15        0.000021786556     0.000014529743    -0.000010404035
      16       -0.000872668427     0.000513388678     0.000188150411
      17        0.000014934404    -0.000018490201    -0.000005297154
      18       -0.000004569899    -0.000008464245    -0.000008966384
      19       -0.000014917107     0.000015347508     0.000001610884
      20        0.000003009019    -0.000004672260     0.000011265618

  **** Optimization is complete! (in 6 steps) ****
    Final optimized geometry and variables:
    Molecular point group: c1

    Geometry (in Angstrom), charge = 0, multiplicity = 1:

    H            3.713777317139    -0.951247770661    -0.075322176319
    O            2.817061572666    -1.160144148839     0.139106577842
    C            2.073680174261    -0.075057233485    -0.059983733258
    C            0.625018096097    -0.326816235591     0.260558505185
    O            2.537186956982     0.942725518706    -0.443767713800
    C           -0.263108216601     0.892793444411     0.048157543301
    H            0.313747687159    -1.170010161304    -0.344363222200
    H            0.582375713066    -0.668353096629     1.290080600906
    C           -1.721055369469     0.672142462575     0.453870480493
    H           -0.211293647521     1.196807235176    -0.991570696515
    H            0.143323627336     1.717609097973     0.620417459660
    C           -2.498647813848    -0.304498339676    -0.426934999341
    H           -2.228464330228     1.631888889668     0.435917990658
    H           -1.758541672839     0.331851690208     1.486635695904
    C           -3.935877382351    -0.503856081566     0.044776280522
    H           -2.509163712384     0.069474348949    -1.447163615115
    H           -2.000661435750    -1.268071381585    -0.454992398066
    H           -4.470654727270    -1.187716154631    -0.604151727473
    H           -4.478233440595     0.435685806782     0.054138033521
    H           -3.965073928350    -0.910774654128     1.050094643450

  Mulliken Charges: (a.u.)
   Center  Symbol    Alpha    Beta     Spin     Total
       1     H     0.38238  0.38238  0.00000  0.23525
       2     O     4.16029  4.16029  0.00000 -0.32057
       3     C     2.80328  2.80328  0.00000  0.39343
       4     C     3.11183  3.11183  0.00000 -0.22366
       5     O     4.19127  4.19127  0.00000 -0.38255
       6     C     3.09238  3.09238  0.00000 -0.18476
       7     H     0.43743  0.43743  0.00000  0.12514
       8     H     0.43784  0.43784  0.00000  0.12433
       9     C     3.09969  3.09969  0.00000 -0.19937
      10     H     0.44581  0.44581  0.00000  0.10838
      11     H     0.43943  0.43943  0.00000  0.12114
      12     C     3.08552  3.08552  0.00000 -0.17103
      13     H     0.44478  0.44478  0.00000  0.11044
      14     H     0.45482  0.45482  0.00000  0.09036
      15     C     3.14977  3.14977  0.00000 -0.29954
      16     H     0.45253  0.45253  0.00000  0.09494
      17     H     0.45462  0.45462  0.00000  0.09075
      18     H     0.44770  0.44770  0.00000  0.10460
      19     H     0.45373  0.45373  0.00000  0.09254
      20     H     0.45491  0.45491  0.00000  0.09018

   Total alpha = 32.00000, Total beta = 32.00000, Total charge = -0.00000

*** Psi4 exiting successfully. Buy a developer a beer!
