  ==> Input File <==

--------------------------------------------------------------------------
set {
	reference rhf
	basis 6-31G*
}

set_num_threads( 4 )
memory 2 gb

molecule MOL {
0 1

O	 -2.821601	 1.309235	 -0.001213
C	 -2.668563	 0.129746	 -0.000350
C	 -3.801572	 -0.864014	 -0.000442
O	 -1.481751	 -0.454642	 0.000584
H	 -4.417280	 -0.689587	 -0.874708
H	 -3.443784	 -1.883046	 -0.000565
H	 -4.417179	 -0.689832	 0.873954
C	 -0.334255	 0.388708	 0.000906
C	 0.891947	 -0.504646	 0.000751
H	 -0.365390	 1.025305	 -0.873475
H	 -0.365484	 1.024911	 0.875569
C	 2.191998	 0.301789	 0.000897
H	 0.855148	 -1.151283	 -0.871571
H	 0.855132	 -1.151660	 0.872805
C	 3.441114	 -0.581407	 0.000108
H	 2.215074	 0.954890	 -0.869742
H	 2.215465	 0.953923	 0.872248
C	 3.869056	 -1.008332	 1.403485
H	 4.258121	 -0.047703	 -0.480241
H	 3.255628	 -1.465431	 -0.605836
H	 4.094467	 -0.145842	 2.024224
H	 4.756409	 -1.632617	 1.370212
H	 3.084602	 -1.574499	 1.897547

	symmetry c1
}
set optking {
	frozen_dihedral = ("
		19 15 12 16
	")
}

ee = optimize('scf')
oeprop('DIPOLE', 'QUADRUPOLE', 'MULLIKEN_CHARGES')
f=open( 'psi4out.xyz', 'w' )
f.write( "23  " )
f.write( str(ee) + "\n" )
f.write( MOL.save_string_xyz() )
f.close()
--------------------------------------------------------------------------

    Molecular point group: c1
  Charge       = 0
  Multiplicity = 1
  Basis Set: 6-31G*
  Basis Set:
  @DF-RHF Final Energy:  -422.97658040775411
    Total Energy =                       -422.9765804077539997
    Molecular point group: c1
  Basis Set: 6-31G*
  Basis Set:
  Basis Set: 6-31G*
  Basis Set:
  @DF-RHF Final Energy:  -422.97675708505824
    Total Energy =                       -422.9767570850576703
  Basis Set: 6-31G*
  Basis Set:
  Basis Set: 6-31G*
  Basis Set:
  @DF-RHF Final Energy:  -422.97681230049807
    Total Energy =                       -422.9768123004981817
  Basis Set: 6-31G*
  Basis Set:
  Basis Set: 6-31G*
  Basis Set:
  @DF-RHF Final Energy:  -422.97668239576006
    Total Energy =                       -422.9766823957602355
  Basis Set: 6-31G*
  Basis Set:
  Basis Set: 6-31G*
  Basis Set:
  @DF-RHF Final Energy:  -422.97681887327713
    Total Energy =                       -422.9768188732766703
  Basis Set: 6-31G*
  Basis Set:
  Charge       = 0
  Multiplicity = 1
  Basis Set: 6-31G*
  Basis Set:

    Orbital Energies (a.u.)
    -----------------------

    Doubly Occupied:

       1A    -20.603077     2A    -20.540591     3A    -11.374140
       4A    -11.281508     5A    -11.232434     6A    -11.224515
       7A    -11.223811     8A    -11.221687     9A    -11.213420
      10A     -1.468019    11A     -1.360802    12A     -1.093759
      13A     -1.041229    14A     -1.002416    15A     -0.930982
      16A     -0.850136    17A     -0.797082    18A     -0.773018
      19A     -0.691292    20A     -0.685357    21A     -0.669593
      22A     -0.633168    23A     -0.617389    24A     -0.597143
      25A     -0.578460    26A     -0.571401    27A     -0.546669
      28A     -0.534985    29A     -0.527429    30A     -0.506815
      31A     -0.499069    32A     -0.473157    33A     -0.466207
      34A     -0.465339    35A     -0.451291    36A     -0.435407

  @DF-RHF Final Energy:  -422.97681909062015

   => Energetics <=

    Nuclear Repulsion Energy =            453.1125400210751764
    One-Electron Energy =               -1473.8131256400783968
    Two-Electron Energy =                 597.7237665283823844
    DFT Exchange-Correlation Energy =       0.0000000000000000
    Empirical Dispersion Energy =           0.0000000000000000
    PCM Polarization Energy =               0.0000000000000000
    EFP Energy =                            0.0000000000000000
    Total Energy =                       -422.9768190906208929
    Molecular point group: c1
  Basis Set: 6-31G*
  Basis Set:

  -Total Gradient:
     Atom            X                  Y                   Z
    ------   -----------------  -----------------  -----------------
       1       -0.000000684944    -0.000002572138    -0.000025452065
       2       -0.000002171089     0.000002330039     0.000066797075
       3        0.000000989944     0.000000887116    -0.000017595089
       4        0.000005998479    -0.000004070219    -0.000017383613
       5       -0.000002063296    -0.000003266613    -0.000001096523
       6        0.000000274056    -0.000000101395    -0.000001341359
       7        0.000002894408     0.000003872786    -0.000000801173
       8        0.000017382395     0.000017100589     0.000015909489
       9        0.000013933236    -0.000037631384    -0.000018921959
      10       -0.000003771487     0.000002369799    -0.000001880096
      11       -0.000003475341     0.000003568064    -0.000004122866
      12       -0.001865027302    -0.002870583380    -0.002502998035
      13       -0.000006951857     0.000003774727    -0.000009209685
      14        0.000015676854     0.000002642578    -0.000006946025
      15        0.001200689103     0.001933744594     0.003587886385
      16        0.001404876154     0.002051319414     0.001552217344
      17        0.000010114450     0.000013537158     0.000012117760
      18       -0.000034964653     0.000028749250     0.000019788778
      19       -0.000740994568    -0.001150209274    -0.002595023313
      20       -0.000011723490    -0.000006225641    -0.000013401650
      21        0.000007948664     0.000004363903     0.000000684068
      22       -0.000007820049    -0.000000405936    -0.000028984960
      23       -0.000001129669     0.000006805962    -0.000010242489

  **** Optimization is complete! (in 6 steps) ****
    Final optimized geometry and variables:
    Molecular point group: c1

    Geometry (in Angstrom), charge = 0, multiplicity = 1:

    O           -2.719670338251     1.452807388216    -0.134531972076
    C           -2.568962227766     0.273169513976    -0.152945815891
    C           -3.703963635823    -0.718279361767    -0.160962495218
    O           -1.383351623120    -0.313494147098    -0.168983909212
    H           -4.325389993727    -0.528739915660    -1.027998687563
    H           -3.348274324705    -1.737876642530    -0.179801477916
    H           -4.313104286039    -0.556866448909     0.720386090038
    C           -0.234125785452     0.527525023433    -0.163340863347
    C            0.990133893534    -0.368145551889    -0.184658644576
    H           -0.269216749203     1.177234503220    -1.027952053926
    H           -0.258472814255     1.150623747488     0.720881983555
    C            2.290296118208     0.438489251224    -0.193924991279
    H            0.944541442872    -1.004582444168    -1.063892846575
    H            0.956935839627    -1.024488758135     0.679925453507
    C            3.556412580423    -0.431519423164    -0.152239931911
    H            2.319730784956     1.079194150448    -1.072001919499
    H            2.300582548064     1.117238475550     0.657828486127
    C            3.963733284367    -0.864834570380     1.255697952164
    H            4.375970168749     0.104761391642    -0.622224718249
    H            3.400502091720    -1.314657647433    -0.768700563995
    H            4.193574142205    -0.003971647640     1.876911711270
    H            4.844875902325    -1.498239293201     1.228622552388
    H            3.173423838016    -1.424766226169     1.746602330376

  Mulliken Charges: (a.u.)
   Center  Symbol    Alpha    Beta     Spin     Total
       1     O     4.28388  4.28388  0.00000 -0.56775
       2     C     2.61535  2.61535  0.00000  0.76930
       3     C     3.28774  3.28774  0.00000 -0.57548
       4     O     4.31270  4.31270  0.00000 -0.62540
       5     H     0.39748  0.39748  0.00000  0.20505
       6     H     0.39989  0.39989  0.00000  0.20023
       7     H     0.39750  0.39750  0.00000  0.20501
       8     C     2.99581  2.99581  0.00000  0.00837
       9     C     3.16560  3.16560  0.00000 -0.33120
      10     H     0.41064  0.41064  0.00000  0.17872
      11     H     0.41053  0.41053  0.00000  0.17894
      12     C     3.16327  3.16327  0.00000 -0.32654
      13     H     0.41389  0.41389  0.00000  0.17222
      14     H     0.41346  0.41346  0.00000  0.17308
      15     C     3.15427  3.15427  0.00000 -0.30853
      16     H     0.41807  0.41807  0.00000  0.16386
      17     H     0.42078  0.42078  0.00000  0.15843
      18     C     3.24051  3.24051  0.00000 -0.48102
      19     H     0.41819  0.41819  0.00000  0.16361
      20     H     0.42135  0.42135  0.00000  0.15731
      21     H     0.42048  0.42048  0.00000  0.15904
      22     H     0.41800  0.41800  0.00000  0.16401
      23     H     0.42063  0.42063  0.00000  0.15875

   Total alpha = 36.00000, Total beta = 36.00000, Total charge = -0.00000
