  ==> Input File <==

--------------------------------------------------------------------------
set {
	reference rhf
	basis 6-31G*
}

set_num_threads( 4 )
memory 2 gb

molecule MOL {
0 1

H	 -1.836216	 1.387520	 -0.000064
C	 -1.301823	 0.443321	 -0.000031
O	 -0.003969	 0.658512	 0.000451
O	 -1.829879	 -0.616434	 -0.000857
C	 0.463454	 1.848408	 0.635155
C	 1.971176	 1.869515	 0.506128
H	 0.148809	 1.838304	 1.669667
H	 0.006853	 2.702766	 0.154653
H	 2.410664	 1.002563	 0.986000
H	 2.368479	 2.761951	 0.978296
H	 2.268188	 1.871210	 -0.536307

	symmetry c1
}
set optking {
	frozen_dihedral = ("
		5 3 2 4
	")
}

ee = optimize('scf')
oeprop('DIPOLE', 'QUADRUPOLE', 'MULLIKEN_CHARGES')
f=open( 'psi4out.xyz', 'w' )
f.write( "11  " )
f.write( str(ee) + "\n" )
f.write( MOL.save_string_xyz() )
f.close()
--------------------------------------------------------------------------

    Molecular point group: c1
  Charge       = 0
  Multiplicity = 1
  Basis Set: 6-31G*
  Basis Set:
  @DF-RHF Final Energy:  -266.81603027178505
    Total Energy =                       -266.8160302717848253
    Molecular point group: c1
  Basis Set: 6-31G*
  Basis Set:
  Basis Set: 6-31G*
  Basis Set:
  @DF-RHF Final Energy:  -266.81694503458925
    Total Energy =                       -266.8169450345893665
  Basis Set: 6-31G*
  Basis Set:
  Basis Set: 6-31G*
  Basis Set:
  @DF-RHF Final Energy:  -266.81696235969491
    Total Energy =                       -266.8169623596950828
  Basis Set: 6-31G*
  Basis Set:
  Basis Set: 6-31G*
  Basis Set:
  @DF-RHF Final Energy:  -266.81728018012291
    Total Energy =                       -266.8172801801229070
  Basis Set: 6-31G*
  Basis Set:
  Basis Set: 6-31G*
  Basis Set:
  @DF-RHF Final Energy:  -266.81729179837765
    Total Energy =                       -266.8172917983777097
  Basis Set: 6-31G*
  Basis Set:
  Charge       = 0
  Multiplicity = 1
  Basis Set: 6-31G*
  Basis Set:

    Orbital Energies (a.u.)
    -----------------------

    Doubly Occupied:

       1A    -20.608888     2A    -20.558648     3A    -11.380102
       4A    -11.306777     5A    -11.233344     6A     -1.472142
       7A     -1.380773     8A     -1.054910     9A     -0.889010
      10A     -0.845848    11A     -0.740004    12A     -0.692704
      13A     -0.663270    14A     -0.614098    15A     -0.570630
      16A     -0.557126    17A     -0.536119    18A     -0.516127
      19A     -0.459470    20A     -0.450065

  @DF-RHF Final Energy:  -266.81729236013894

   => Energetics <=

    Nuclear Repulsion Energy =            176.2781833334613282
    One-Electron Energy =                -713.1308450888058132
    Two-Electron Energy =                 270.0353693952054641
    DFT Exchange-Correlation Energy =       0.0000000000000000
    Empirical Dispersion Energy =           0.0000000000000000
    PCM Polarization Energy =               0.0000000000000000
    EFP Energy =                            0.0000000000000000
    Total Energy =                       -266.8172923601389925
    Molecular point group: c1
  Basis Set: 6-31G*
  Basis Set:

  -Total Gradient:
     Atom            X                  Y                   Z
    ------   -----------------  -----------------  -----------------
       1        0.000022451752    -0.000032126491     0.000010635423
       2        0.000640059115    -0.001573928334    -0.005057800908
       3        0.000109650386     0.002472280922    -0.002617884207
       4       -0.000649908813     0.000520492109     0.004451622870
       5       -0.000162981421    -0.001412335605     0.003215758930
       6        0.000044678635     0.000070311186     0.000017168455
       7       -0.000032665404    -0.000032299568    -0.000022083336
       8        0.000025621577    -0.000002174947     0.000008928139
       9       -0.000007935532     0.000000898218     0.000001894033
      10        0.000014679797    -0.000010813970     0.000001004178
      11       -0.000003650086    -0.000000303520    -0.000009243577

  **** Optimization is complete! (in 6 steps) ****
    Final optimized geometry and variables:
    Molecular point group: c1

    Geometry (in Angstrom), charge = 0, multiplicity = 1:

    H           -1.687124826137     0.566007097371    -0.460352987897
    C           -1.163381141059    -0.375492610539    -0.292465663573
    O            0.144646952787    -0.232594989645    -0.128523904949
    O           -1.714601067671    -1.415593345605    -0.254714052626
    C            0.615845002991     0.978796142228     0.440047096875
    C            2.114045704000     1.042801086543     0.233152473581
    H            0.367959227377     0.990153208548     1.495085414989
    H            0.123272554097     1.822592938133    -0.034302202045
    H            2.596601079040     0.192826252272     0.700086457436
    H            2.511507216155     1.951711959954     0.672404218164
    H            2.351934807384     1.034767800227    -0.823989808320

  Mulliken Charges: (a.u.)
   Center  Symbol    Alpha    Beta     Spin     Total
       1     H     0.43196  0.43196  0.00000  0.13607
       2     C     2.72256  2.72256  0.00000  0.55489
       3     O     4.28656  4.28656  0.00000 -0.57313
       4     O     4.24311  4.24311  0.00000 -0.48622
       5     C     3.00885  3.00885  0.00000 -0.01770
       6     C     3.24703  3.24703  0.00000 -0.49406
       7     H     0.41205  0.41205  0.00000  0.17590
       8     H     0.41934  0.41934  0.00000  0.16131
       9     H     0.40457  0.40457  0.00000  0.19087
      10     H     0.41559  0.41559  0.00000  0.16881
      11     H     0.40838  0.40838  0.00000  0.18325

   Total alpha = 20.00000, Total beta = 20.00000, Total charge =  0.00000
