  ==> Input File <==

--------------------------------------------------------------------------
set {
	reference rhf
	basis cc-pvtz
}

set_num_threads( 4 )
memory 2 gb

molecule MOL {
0 1

H	 2.614283	 2.028610	 0.296620
O	 3.358864	 1.662087	 -0.142800
C	 3.565468	 0.338079	 0.273842
C	 2.533667	 -0.637565	 -0.272227
H	 4.548038	 0.064914	 -0.086598
H	 3.593945	 0.282242	 1.360360
C	 1.114816	 -0.402372	 0.240993
H	 2.544552	 -0.580764	 -1.356576
H	 2.850574	 -1.642962	 -0.005497
C	 0.113298	 -1.420414	 -0.302504
H	 0.796373	 0.598427	 -0.031033
H	 1.113377	 -0.446476	 1.328807
C	 -1.021236	 -1.786220	 0.656285
H	 -0.309008	 -1.044767	 -1.231360
H	 0.650521	 -2.328758	 -0.560908
C	 -2.004664	 -0.656118	 0.955418
H	 -1.572457	 -2.619778	 0.229831
H	 -0.598216	 -2.151186	 1.589564
C	 -3.171448	 -1.096993	 1.835562
H	 -2.392728	 -0.262132	 0.018588
H	 -1.490837	 0.167331	 1.442158
C	 -4.153256	 0.029822	 2.139265
H	 -3.699313	 -1.912766	 1.349300
H	 -2.785072	 -1.498707	 2.768515
H	 -4.582036	 0.431716	 1.227198
H	 -4.969274	 -0.317215	 2.762793
H	 -3.663775	 0.846220	 2.660084

	symmetry c1
}
set optking {
	frozen_dihedral = ("
		14 10 7 4
	")
}

ee = optimize('scf')
oeprop('DIPOLE', 'QUADRUPOLE', 'MULLIKEN_CHARGES')
f=open( 'psi4out.xyz', 'w' )
f.write( "27  " )
f.write( str(ee) + "\n" )
f.write( MOL.save_string_xyz() )
f.close()
--------------------------------------------------------------------------

    Molecular point group: c1
  Charge       = 0
  Multiplicity = 1
  Basis Set: CC-PVTZ
  Basis Set:
  @DF-RHF Final Energy:  -388.42508172311250
    Total Energy =                       -388.4250817231121573
    Molecular point group: c1
  Basis Set: CC-PVTZ
  Basis Set:
  Basis Set: CC-PVTZ
  Basis Set:
  @DF-RHF Final Energy:  -388.42530408260870
    Total Energy =                       -388.4253040826089318
  Basis Set: CC-PVTZ
  Basis Set:
  Basis Set: CC-PVTZ
  Basis Set:
  @DF-RHF Final Energy:  -388.42539817671934
    Total Energy =                       -388.4253981767196819
  Basis Set: CC-PVTZ
  Basis Set:
  Basis Set: CC-PVTZ
  Basis Set:
  @DF-RHF Final Energy:  -388.42544664457137
    Total Energy =                       -388.4254466445718208
  Basis Set: CC-PVTZ
  Basis Set:
  Basis Set: CC-PVTZ
  Basis Set:
  @DF-RHF Final Energy:  -388.42544819631723
    Total Energy =                       -388.4254481963168928
  Basis Set: CC-PVTZ
  Basis Set:
  Basis Set: CC-PVTZ
  Basis Set:
  @DF-RHF Final Energy:  -388.42544951363368
    Total Energy =                       -388.4254495136339074
  Basis Set: CC-PVTZ
  Basis Set:
  Charge       = 0
  Multiplicity = 1
  Basis Set: CC-PVTZ
  Basis Set:

    Orbital Energies (a.u.)
    -----------------------

    Doubly Occupied:

       1A    -20.545282     2A    -11.264924     3A    -11.217286
       4A    -11.214579     5A    -11.214137     6A    -11.213628
       7A    -11.213206     8A    -11.212142     9A    -11.207625
      10A     -1.363218    11A     -1.096187    12A     -1.062158
      13A     -1.012796    14A     -0.948608    15A     -0.888934
      16A     -0.821072    17A     -0.803179    18A     -0.777177
      19A     -0.695594    20A     -0.656913    21A     -0.636642
      22A     -0.616419    23A     -0.596620    24A     -0.587766
      25A     -0.581031    26A     -0.551561    27A     -0.545230
      28A     -0.532048    29A     -0.504883    30A     -0.496750
      31A     -0.486184    32A     -0.474743    33A     -0.467156
      34A     -0.460121    35A     -0.453853    36A     -0.442590
      37A     -0.425355

  @DF-RHF Final Energy:  -388.42544961081313

   => Energetics <=

    Nuclear Repulsion Energy =            459.8658797383876049
    One-Electron Energy =               -1438.0074647718186043
    Two-Electron Energy =                 589.7161354226180947
    DFT Exchange-Correlation Energy =       0.0000000000000000
    Empirical Dispersion Energy =           0.0000000000000000
    PCM Polarization Energy =               0.0000000000000000
    EFP Energy =                            0.0000000000000000
    Total Energy =                       -388.4254496108129615
    Molecular point group: c1
  Basis Set: CC-PVTZ
  Basis Set:

  -Total Gradient:
     Atom            X                  Y                   Z
    ------   -----------------  -----------------  -----------------
       1        0.000000073769     0.000001281550     0.000001205350
       2       -0.000003681610     0.000004237589    -0.000003974826
       3        0.000000881072     0.000001007691     0.000001464514
       4        0.000552211643    -0.001761146218     0.002200887768
       5        0.000000594503    -0.000001084035     0.000001164113
       6        0.000000604350    -0.000001740090    -0.000000913379
       7       -0.001454880743     0.002830506129    -0.002573237593
       8       -0.000003280128    -0.000002597990     0.000000436408
       9        0.000004456288     0.000001116788     0.000001244462
      10        0.003816571147    -0.002713431213    -0.001680376961
      11        0.000004681319     0.000000463923     0.000000136770
      12        0.000002287849    -0.000002466482     0.000004034973
      13        0.000009190573     0.000005401108     0.000008426002
      14       -0.002925829562     0.001642683689     0.002045910828
      15       -0.000003325745    -0.000001365385    -0.000001068835
      16        0.000001037989    -0.000003269888    -0.000004450855
      17        0.000000831938     0.000006453805    -0.000000866704
      18        0.000000842283    -0.000003595171     0.000002457995
      19       -0.000003961661    -0.000001940927    -0.000004168464
      20       -0.000001650548     0.000001570229     0.000002020445
      21        0.000004806729    -0.000002655286    -0.000002116433
      22       -0.000001369438    -0.000000235510     0.000001348184
      23       -0.000001051168    -0.000001162076     0.000001176908
      24        0.000000736277     0.000001125721    -0.000001289763
      25       -0.000000184185    -0.000000245702     0.000000177375
      26       -0.000000496515     0.000000864157     0.000000750589
      27       -0.000000096431     0.000000223599    -0.000000378870

  **** Optimization is complete! (in 7 steps) ****
    Final optimized geometry and variables:
    Molecular point group: c1

    Geometry (in Angstrom), charge = 0, multiplicity = 1:

    H            2.449611402910     2.438856220904    -0.318811122174
    O            3.212964228915     2.090055648064    -0.739728590606
    C            3.452571396923     0.778354197008    -0.302752248017
    C            2.456778613500    -0.234134636170    -0.847949625958
    H            4.447122475339     0.529450683426    -0.647552025248
    H            3.469207282021     0.737582713690     0.784775344779
    C            1.028354510864    -0.047187862773    -0.340315868692
    H            2.474116618794    -0.184891114011    -1.932971209033
    H            2.801820890839    -1.227216560181    -0.571703342085
    C            0.045190210799    -1.076318372828    -0.917831639758
    H            0.679429615057     0.954826407508    -0.565905955793
    H            1.039665134916    -0.131983171533     0.744529473945
    C           -1.109118027965    -1.438966874346     0.019363375609
    H           -0.381913178134    -0.688583468746    -1.838502482001
    H            0.581126126059    -1.984216025771    -1.173303465890
    C           -2.051842302858    -0.280591822794     0.338155491191
    H           -1.684014914858    -2.241996053729    -0.433807440016
    H           -0.705632513773    -1.840455624165     0.946212084187
    C           -3.220014499008    -0.684893294767     1.233470235161
    H           -2.439687382564     0.129856217248    -0.591765211627
    H           -1.501391384934     0.523362557748     0.818667616311
    C           -4.162548908364     0.471578387485     1.549665383456
    H           -3.779093410915    -1.483989000057     0.754457963306
    H           -2.834039027309    -1.098328699020     2.161348260237
    H           -4.591971134499     0.885505934903     0.643322202929
    H           -4.979729021668     0.150287402163     2.185270514859
    H           -3.640901898916     1.273093799083     2.062290342843

  Mulliken Charges: (a.u.)
   Center  Symbol    Alpha    Beta     Spin     Total
       1     H     0.39259  0.39259  0.00000  0.21482
       2     O     4.20541  4.20541  0.00000 -0.41082
       3     C     2.98021  2.98021  0.00000  0.03959
       4     C     3.08883  3.08883  0.00000 -0.17765
       5     H     0.44844  0.44844  0.00000  0.10312
       6     H     0.46997  0.46997  0.00000  0.06005
       7     C     3.10661  3.10661  0.00000 -0.21322
       8     H     0.45064  0.45064  0.00000  0.09871
       9     H     0.45556  0.45556  0.00000  0.08888
      10     C     3.09934  3.09934  0.00000 -0.19868
      11     H     0.45384  0.45384  0.00000  0.09233
      12     H     0.45360  0.45360  0.00000  0.09279
      13     C     3.09795  3.09795  0.00000 -0.19590
      14     H     0.45080  0.45080  0.00000  0.09839
      15     H     0.44699  0.44699  0.00000  0.10602
      16     C     3.08623  3.08623  0.00000 -0.17247
      17     H     0.44826  0.44826  0.00000  0.10348
      18     H     0.45447  0.45447  0.00000  0.09106
      19     C     3.08459  3.08459  0.00000 -0.16918
      20     H     0.45466  0.45466  0.00000  0.09068
      21     H     0.45419  0.45419  0.00000  0.09162
      22     C     3.14969  3.14969  0.00000 -0.29938
      23     H     0.45354  0.45354  0.00000  0.09292
      24     H     0.45460  0.45460  0.00000  0.09081
      25     H     0.45501  0.45501  0.00000  0.08999
      26     H     0.44823  0.44823  0.00000  0.10353
      27     H     0.45575  0.45575  0.00000  0.08850

   Total alpha = 37.00000, Total beta = 37.00000, Total charge = -0.00000
