                              Psi4 1.0.54 Driver

  ==> Input File <==

--------------------------------------------------------------------------
set {
	reference rhf
	basis cc-pvtz
}

set_num_threads( 4 )
memory 2 gb

molecule MOL {
0 1

H	 2.614283	 2.028610	 0.296620
O	 3.358864	 1.662087	 -0.142800
C	 3.565468	 0.338079	 0.273842
C	 2.533667	 -0.637565	 -0.272227
H	 4.548038	 0.064914	 -0.086598
H	 3.593945	 0.282242	 1.360360
C	 1.114816	 -0.402372	 0.240993
H	 2.544552	 -0.580764	 -1.356576
H	 2.850574	 -1.642962	 -0.005497
C	 0.116772	 -1.431500	 -0.287819
H	 0.791345	 0.593562	 -0.042703
H	 1.115771	 -0.433043	 1.329269
C	 -1.307084	 -1.288081	 0.252849
H	 0.094862	 -1.382153	 -1.373780
H	 0.480247	 -2.424491	 -0.038175
C	 -2.043735	 -0.026014	 -0.192432
H	 -1.881422	 -2.153648	 -0.065675
H	 -1.283368	 -1.326018	 1.339658
C	 -3.491064	 0.022626	 0.290561
H	 -2.027316	 0.033497	 -1.278552
H	 -1.524554	 0.856698	 0.168503
C	 -4.228364	 1.283173	 -0.149099
H	 -4.021579	 -0.851273	 -0.077448
H	 -3.509666	 -0.045261	 1.375046
H	 -4.255234	 1.363662	 -1.230781
H	 -5.252003	 1.284452	 0.207648
H	 -3.743638	 2.174700	 0.235052

	symmetry c1
}
set optking {
	frozen_dihedral = ("
		10 7 4 8
	")
}

ee,wfn = optimize('scf', return_wfn=True)
oeprop( wfn, 'DIPOLE', 'QUADRUPOLE', 'MULLIKEN_CHARGES')
f=open( 'psi4out.xyz', 'w' )
f.write( "27  " )
f.write( str(ee) + "\n" )
f.write( MOL.save_string_xyz() )
f.close()
--------------------------------------------------------------------------

    Molecular point group: c1
  Charge       = 0
  Multiplicity = 1
  Basis Set: CC-PVTZ
  Basis Set:
  @DF-RHF Final Energy:  -388.42778785841716
    Total Energy =                       -388.4277878584174459
    Molecular point group: c1
  Basis Set: CC-PVTZ
  Basis Set:
  Charge       = 0
  Multiplicity = 1
  Basis Set: CC-PVTZ
  Basis Set:

    Orbital Energies (a.u.)
    -----------------------

    Doubly Occupied:

       1A    -20.545346     2A    -11.264983     3A    -11.216778
       4A    -11.214713     5A    -11.213896     6A    -11.213276
       7A    -11.213252     8A    -11.211868     9A    -11.207265
      10A     -1.363238    11A     -1.096223    12A     -1.062580
      13A     -1.012535    14A     -0.949428    15A     -0.888681
      16A     -0.820534    17A     -0.801882    18A     -0.778312
      19A     -0.696254    20A     -0.652708    21A     -0.639484
      22A     -0.616069    23A     -0.601820    24A     -0.583588
      25A     -0.580947    26A     -0.553638    27A     -0.541350
      28A     -0.532595    29A     -0.505738    30A     -0.495332
      31A     -0.485424    32A     -0.474409    33A     -0.469415
      34A     -0.461415    35A     -0.452558    36A     -0.442655
      37A     -0.425687

  @DF-RHF Final Energy:  -388.42778799957966

   => Energetics <=

    Nuclear Repulsion Energy =            460.2364488229678727
    One-Electron Energy =               -1438.7567172661604218
    Two-Electron Energy =                 590.0924804436124305
    DFT Exchange-Correlation Energy =       0.0000000000000000
    Empirical Dispersion Energy =           0.0000000000000000
    PCM Polarization Energy =               0.0000000000000000
    EFP Energy =                            0.0000000000000000
    Total Energy =                       -388.4277879995801186
    Molecular point group: c1
  Basis Set: CC-PVTZ
  Basis Set:

  -Total Gradient:
     Atom            X                  Y                   Z
    ------   -----------------  -----------------  -----------------
       1       -0.000025831427     0.000019561025     0.000001054302
       2       -0.000064154618     0.000015067243     0.000035541937
       3        0.000068212713    -0.000051423592    -0.000111945115
       4        0.000007092543    -0.000159218923     0.000155061760
       5        0.000013593061    -0.000010819242     0.000004377490
       6       -0.000017178393    -0.000002229193    -0.000016101264
       7       -0.000045831412     0.000100673554    -0.000156262994
       8        0.000041424032     0.000119382660     0.000010066446
       9        0.000027948854    -0.000061661587     0.000007925465
      10        0.000032228966    -0.000045320353     0.000070250078
      11       -0.000035932490     0.000090016750     0.000014400261
      12        0.000002682307    -0.000010014645    -0.000030630138
      13       -0.000010131545    -0.000018607739     0.000009751531
      14        0.000002889225     0.000000621343     0.000003266453
      15        0.000026875023     0.000001925039    -0.000000243144
      16        0.000003242827    -0.000000781135     0.000000398128
      17       -0.000009948565     0.000013925642    -0.000004918902
      18       -0.000016828559    -0.000013104786     0.000004211748
      19       -0.000000444443     0.000003117393    -0.000005422277
      20       -0.000010337909    -0.000009900021     0.000011468022
      21        0.000008984415     0.000009625553    -0.000008027882
      22       -0.000002194029     0.000009019086     0.000009298842
      23        0.000004155917     0.000000560921    -0.000005114787
      24       -0.000000234758    -0.000000710396     0.000000266546
      25       -0.000000325606    -0.000005062444     0.000000399741
      26       -0.000001007483     0.000003130434     0.000002032952
      27        0.000001051362     0.000002227417    -0.000001105201

  **** Optimization is complete! (in 2 steps) ****
    Final optimized geometry and variables:
    Molecular point group: c1

    Geometry (in Angstrom), charge = 0, multiplicity = 1:

    H            2.606740680074     2.036834608194     0.289548874812
    O            3.353330920776     1.672063123157    -0.147668272331
    C            3.564697368453     0.350040159828     0.272801356280
    C            2.535969655218    -0.630481956568    -0.270005371141
    H            4.548237398593     0.079085033534    -0.086647112753
    H            3.593122610393     0.297776207350     1.359449342329
    C            1.114463799152    -0.390473451079     0.233610795782
    H            2.552516891595    -0.581794325426    -1.354640827134
    H            2.851739799795    -1.633640108649     0.006453999845
    C            0.118435985108    -1.422721688214    -0.292770162847
    H            0.793313540587     0.603975608917    -0.057987611657
    H            1.109769786346    -0.414228130447     1.321997105560
    C           -1.305967855060    -1.280307040207     0.246817114742
    H            0.097030238952    -1.376660808911    -1.378865252599
    H            0.483729222283    -2.414209308631    -0.040015210723
    C           -2.041723906956    -0.016716235509    -0.195494799431
    H           -1.880437265319    -2.144569828226    -0.074816949305
    H           -1.283501998325    -1.321468767230     1.333501661291
    C           -3.488631709416     0.032524825137     0.288493296772
    H           -2.026028220398     0.044721265021    -1.281453693428
    H           -1.521470264860     0.864826862218     0.166647223845
    C           -4.224463234477     1.295394580311    -0.146782006198
    H           -4.020586465888    -0.839501971667    -0.081799578288
    H           -3.506607234800    -0.038602532928     1.372737912785
    H           -4.252859030301     1.378659612262    -1.228180749607
    H           -5.247515684754     1.297545952964     0.211520006103
    H           -3.737620377307     2.185096880335     0.238844558210

  Mulliken Charges: (a.u.)
   Center  Symbol    Alpha    Beta     Spin     Total
       1     H     0.39225  0.39225  0.00000  0.21550
       2     O     4.20554  4.20554  0.00000 -0.41108
       3     C     2.97998  2.97998  0.00000  0.04003
       4     C     3.08910  3.08910  0.00000 -0.17820
       5     H     0.44858  0.44858  0.00000  0.10283
       6     H     0.46970  0.46970  0.00000  0.06061
       7     C     3.10289  3.10289  0.00000 -0.20578
       8     H     0.45080  0.45080  0.00000  0.09841
       9     H     0.45518  0.45518  0.00000  0.08964
      10     C     3.09856  3.09856  0.00000 -0.19711
      11     H     0.45556  0.45556  0.00000  0.08887
      12     H     0.45379  0.45379  0.00000  0.09242
      13     C     3.09806  3.09806  0.00000 -0.19611
      14     H     0.45165  0.45165  0.00000  0.09670
      15     H     0.44803  0.44803  0.00000  0.10394
      16     C     3.08792  3.08792  0.00000 -0.17584
      17     H     0.44797  0.44797  0.00000  0.10406
      18     H     0.45387  0.45387  0.00000  0.09226
      19     C     3.08407  3.08407  0.00000 -0.16814
      20     H     0.45407  0.45407  0.00000  0.09186
      21     H     0.45545  0.45545  0.00000  0.08911
      22     C     3.14960  3.14960  0.00000 -0.29919
      23     H     0.45374  0.45374  0.00000  0.09251
      24     H     0.45472  0.45472  0.00000  0.09056
      25     H     0.45484  0.45484  0.00000  0.09032
      26     H     0.44829  0.44829  0.00000  0.10341
      27     H     0.45578  0.45578  0.00000  0.08843

   Total alpha = 37.00000, Total beta = 37.00000, Total charge = -0.00000

*** Psi4 exiting successfully. Buy a developer a beer!
