                              Psi4 1.0.54 Driver

  ==> Input File <==

--------------------------------------------------------------------------
set {
	reference rhf
	basis cc-pvtz
}

set_num_threads( 4 )
memory 2 gb

molecule MOL {
0 1

H	 2.614283	 2.028610	 0.296620
O	 3.358864	 1.662087	 -0.142800
C	 3.565468	 0.338079	 0.273842
C	 2.284696	 -0.378227	 0.675361
H	 4.015274	 -0.169884	 -0.568552
H	 4.283713	 0.305063	 1.090839
C	 1.604281	 0.200446	 1.913918
H	 1.597222	 -0.353570	 -0.164835
H	 2.528030	 -1.422918	 0.853704
C	 0.340684	 -0.564157	 2.305761
H	 1.355610	 1.240902	 1.733314
H	 2.303102	 0.185963	 2.748619
C	 -0.341820	 -0.072923	 3.583701
H	 -0.368919	 -0.526455	 1.482797
H	 0.597563	 -1.611918	 2.434907
C	 -0.954991	 1.323368	 3.493511
H	 -1.126161	 -0.778324	 3.843981
H	 0.371676	 -0.099981	 4.404279
C	 -1.708850	 1.727503	 4.757940
H	 -1.634453	 1.361661	 2.644787
H	 -0.181176	 2.059348	 3.297177
C	 -2.319137	 3.122558	 4.672697
H	 -2.494106	 1.002714	 4.954486
H	 -1.033536	 1.681590	 5.608179
H	 -3.024188	 3.191735	 3.850897
H	 -2.848338	 3.376467	 5.584061
H	 -1.554348	 3.875754	 4.514125

	symmetry c1
}
set optking {
	frozen_dihedral = ("
		4 3 2 1
	")
}

ee,wfn = optimize('scf', return_wfn=True)
oeprop( wfn, 'DIPOLE', 'QUADRUPOLE', 'MULLIKEN_CHARGES')
f=open( 'psi4out.xyz', 'w' )
f.write( "27  " )
f.write( str(ee) + "\n" )
f.write( MOL.save_string_xyz() )
f.close()
--------------------------------------------------------------------------

    Molecular point group: c1
  Charge       = 0
  Multiplicity = 1
  Basis Set: CC-PVTZ
  Basis Set:
  @DF-RHF Final Energy:  -388.42597709132775
    Total Energy =                       -388.4259770913267857
    Molecular point group: c1
  Basis Set: CC-PVTZ
  Basis Set:
  Basis Set: CC-PVTZ
  Basis Set:
  @DF-RHF Final Energy:  -388.42607730702338
    Total Energy =                       -388.4260773070232062
  Basis Set: CC-PVTZ
  Basis Set:
  Basis Set: CC-PVTZ
  Basis Set:
  @DF-RHF Final Energy:  -388.42613781123413
    Total Energy =                       -388.4261378112341845
  Basis Set: CC-PVTZ
  Basis Set:
  Basis Set: CC-PVTZ
  Basis Set:
  @DF-RHF Final Energy:  -388.42614049941625
    Total Energy =                       -388.4261404994165332
  Basis Set: CC-PVTZ
  Basis Set:
  Basis Set: CC-PVTZ
  Basis Set:
  @DF-RHF Final Energy:  -388.42614164562053
    Total Energy =                       -388.4261416456206462
  Basis Set: CC-PVTZ
  Basis Set:
  Charge       = 0
  Multiplicity = 1
  Basis Set: CC-PVTZ
  Basis Set:

    Orbital Energies (a.u.)
    -----------------------

    Doubly Occupied:

       1A    -20.542568     2A    -11.264078     3A    -11.221749
       4A    -11.219146     5A    -11.217974     6A    -11.215518
       7A    -11.215288     8A    -11.213948     9A    -11.208377
      10A     -1.361172    11A     -1.099163    12A     -1.065083
      13A     -1.014316    14A     -0.950986    15A     -0.891108
      16A     -0.824995    17A     -0.805713    18A     -0.781388
      19A     -0.677765    20A     -0.657699    21A     -0.646808
      22A     -0.619941    23A     -0.609007    24A     -0.585392
      25A     -0.579184    26A     -0.562532    27A     -0.540997
      28A     -0.531433    29A     -0.507725    30A     -0.498028
      31A     -0.488394    32A     -0.479122    33A     -0.469110
      34A     -0.463055    35A     -0.451111    36A     -0.439281
      37A     -0.431960

  @DF-RHF Final Energy:  -388.42614166945486

   => Energetics <=

    Nuclear Repulsion Energy =            460.1591856216260794
    One-Electron Energy =               -1438.4684301697798219
    Two-Electron Energy =                 589.8831028786991055
    DFT Exchange-Correlation Energy =       0.0000000000000000
    Empirical Dispersion Energy =           0.0000000000000000
    PCM Polarization Energy =               0.0000000000000000
    EFP Energy =                            0.0000000000000000
    Total Energy =                       -388.4261416694546369
    Molecular point group: c1
  Basis Set: CC-PVTZ
  Basis Set:

  -Total Gradient:
     Atom            X                  Y                   Z
    ------   -----------------  -----------------  -----------------
       1       -0.001088614736    -0.000648826077    -0.001396881000
       2        0.001404235190     0.000974916961     0.002221819965
       3       -0.000431238492    -0.000734233441    -0.001942202690
       4        0.000116927535     0.000398901092     0.001121902543
       5        0.000001978083     0.000004376705    -0.000001681973
       6        0.000000939933     0.000005360924    -0.000001892000
       7       -0.000008163474     0.000001506925    -0.000005834718
       8        0.000001484170     0.000002265748     0.000003246868
       9       -0.000000958714    -0.000007086390    -0.000000083378
      10        0.000001663487     0.000001853546     0.000002365164
      11       -0.000001955149     0.000001324665    -0.000000290085
      12        0.000000100650    -0.000001255769     0.000001411086
      13        0.000005892819    -0.000001749639     0.000002941373
      14        0.000000729271     0.000002004920     0.000000658440
      15        0.000002018978     0.000000531968    -0.000001154383
      16       -0.000006078006    -0.000000899026    -0.000003663182
      17        0.000001288576     0.000000234016    -0.000002825464
      18       -0.000000416537    -0.000002332528     0.000002327900
      19       -0.000000079486     0.000000361422    -0.000000388603
      20       -0.000002525008     0.000000587598     0.000000264611
      21       -0.000000728960     0.000000424673    -0.000001094292
      22        0.000003078218     0.000001672088     0.000000967242
      23        0.000000067063     0.000000745297    -0.000001879333
      24        0.000000022869    -0.000001122709     0.000001594907
      25       -0.000000032492    -0.000000932316     0.000000067437
      26        0.000000635032     0.000000305589     0.000000642920
      27       -0.000000270822     0.000001063760    -0.000000339361

  **** Optimization is complete! (in 6 steps) ****
    Final optimized geometry and variables:
    Molecular point group: c1

    Geometry (in Angstrom), charge = 0, multiplicity = 1:

    H            1.943757153674     1.211826140462    -2.124786531923
    O            2.696639969162     0.828859594173    -2.533311531206
    C            2.891041193386    -0.484992479270    -2.078465174425
    C            1.608195439497    -1.202543408325    -1.686451157112
    H            3.375578364805    -1.019289510202    -2.885179711860
    H            3.577068081182    -0.481249311562    -1.233764159850
    C            0.915011776660    -0.631776471421    -0.449495079513
    H            0.925496178304    -1.189376316054    -2.532038543989
    H            1.854783054974    -2.244501169680    -1.502787029535
    C           -0.350755391984    -1.402552964318    -0.077037970881
    H            0.663482796761     0.412415315308    -0.610250314021
    H            1.608130397480    -0.651563221217     0.388120648583
    C           -1.036092976021    -0.936749636501     1.208846890961
    H           -1.058403788411    -1.348861604586    -0.900869326377
    H           -0.094093762492    -2.452543900243     0.031757081785
    C           -1.640429246388     0.464998138593     1.148927855921
    H           -1.825738898165    -1.643306953948     1.448594168340
    H           -0.326619775851    -0.987476770687     2.031528838558
    C           -2.400383125210     0.842375552457     2.417914312437
    H           -2.314248330709     0.528254132395     0.297111219619
    H           -0.860949313410     1.201073778048     0.976754248122
    C           -3.000066967892     2.243483008817     2.363921800510
    H           -3.191995753423     0.118468715060     2.590476629306
    H           -1.731287716432     0.770069465199     3.271077814537
    H           -3.699380492635     2.338443762490     1.539806228591
    H           -3.533305116717     2.478114896969     3.277987201065
    H           -2.228924550368     2.994787128519     2.229383137350

  Mulliken Charges: (a.u.)
   Center  Symbol    Alpha    Beta     Spin     Total
       1     H     0.39101  0.39101  0.00000  0.21799
       2     O     4.20803  4.20803  0.00000 -0.41605
       3     C     2.95961  2.95961  0.00000  0.08079
       4     C     3.10616  3.10616  0.00000 -0.21231
       5     H     0.45617  0.45617  0.00000  0.08766
       6     H     0.47614  0.47614  0.00000  0.04772
       7     C     3.09365  3.09365  0.00000 -0.18729
       8     H     0.44858  0.44858  0.00000  0.10284
       9     H     0.45314  0.45314  0.00000  0.09373
      10     C     3.09937  3.09937  0.00000 -0.19874
      11     H     0.46181  0.46181  0.00000  0.07637
      12     H     0.45084  0.45084  0.00000  0.09831
      13     C     3.09773  3.09773  0.00000 -0.19546
      14     H     0.45186  0.45186  0.00000  0.09629
      15     H     0.44692  0.44692  0.00000  0.10616
      16     C     3.08905  3.08905  0.00000 -0.17810
      17     H     0.44767  0.44767  0.00000  0.10467
      18     H     0.45295  0.45295  0.00000  0.09410
      19     C     3.08406  3.08406  0.00000 -0.16813
      20     H     0.45451  0.45451  0.00000  0.09099
      21     H     0.45480  0.45480  0.00000  0.09040
      22     C     3.14970  3.14970  0.00000 -0.29940
      23     H     0.45359  0.45359  0.00000  0.09282
      24     H     0.45421  0.45421  0.00000  0.09158
      25     H     0.45506  0.45506  0.00000  0.08988
      26     H     0.44799  0.44799  0.00000  0.10401
      27     H     0.45540  0.45540  0.00000  0.08920

   Total alpha = 37.00000, Total beta = 37.00000, Total charge =  0.00000

*** Psi4 exiting successfully. Buy a developer a beer!
