  ==> Input File <==

--------------------------------------------------------------------------
set {
	reference rhf
	basis 6-31G*
}

set_num_threads( 4 )
memory 2 gb

molecule MOL {
0 1

H	 -3.327225	 -2.569525	 0.796214
O	 -2.972866	 -1.885292	 0.246524
C	 -1.715077	 -1.492721	 0.732780
C	 -1.177863	 -0.397191	 -0.171080
H	 -1.796975	 -1.126012	 1.755093
H	 -1.027730	 -2.337576	 0.743553
C	 0.198102	 0.111031	 0.262842
H	 -1.893443	 0.420489	 -0.179637
H	 -1.132435	 -0.782808	 -1.185827
C	 1.331804	 -0.827780	 -0.158768
H	 0.361943	 1.100838	 -0.156218
H	 0.217265	 0.229072	 1.345532
C	 2.723619	 -0.410569	 0.329459
H	 1.342964	 -0.912588	 -1.244120
H	 1.116806	 -1.824343	 0.220779
C	 3.243875	 0.895854	 -0.272975
H	 3.424222	 -1.207124	 0.091250
H	 2.714788	 -0.329854	 1.414619
H	 3.251977	 0.848779	 -1.358681
H	 2.637085	 1.747371	 0.016682
H	 4.259473	 1.094070	 0.055697

	symmetry c1
}
set optking {
	frozen_dihedral = ("
		8 4 7 10
	")
}

ee = optimize('scf')
oeprop('DIPOLE', 'QUADRUPOLE', 'MULLIKEN_CHARGES')
f=open( 'psi4out.xyz', 'w' )
f.write( "21  " )
f.write( str(ee) + "\n" )
f.write( MOL.save_string_xyz() )
f.close()
--------------------------------------------------------------------------

    Molecular point group: c1
  Charge       = 0
  Multiplicity = 1
  Basis Set: 6-31G*
  Basis Set:
  @DF-RHF Final Energy:  -310.21033785013219
    Total Energy =                       -310.2103378501324187
    Molecular point group: c1
  Basis Set: 6-31G*
  Basis Set:
  Basis Set: 6-31G*
  Basis Set:
  @DF-RHF Final Energy:  -310.21060619458711
    Total Energy =                       -310.2106061945869442
  Basis Set: 6-31G*
  Basis Set:
  Basis Set: 6-31G*
  Basis Set:
  @DF-RHF Final Energy:  -310.21062997342784
    Total Energy =                       -310.2106299734275581
  Basis Set: 6-31G*
  Basis Set:
  Basis Set: 6-31G*
  Basis Set:
  @DF-RHF Final Energy:  -310.21064252522024
    Total Energy =                       -310.2106425252202939
  Basis Set: 6-31G*
  Basis Set:
  Basis Set: 6-31G*
  Basis Set:
  @DF-RHF Final Energy:  -310.21064641804401
    Total Energy =                       -310.2106464180440071
  Basis Set: 6-31G*
  Basis Set:
  Basis Set: 6-31G*
  Basis Set:
  @DF-RHF Final Energy:  -310.21064973479383
    Total Energy =                       -310.2106497347939467
  Basis Set: 6-31G*
  Basis Set:
  Charge       = 0
  Multiplicity = 1
  Basis Set: 6-31G*
  Basis Set:

    Orbital Energies (a.u.)
    -----------------------

    Doubly Occupied:

       1A    -20.551712     2A    -11.266747     3A    -11.216041
       4A    -11.215754     5A    -11.214412     6A    -11.210769
       7A    -11.208372     8A     -1.358489     9A     -1.086086
      10A     -1.031977    11A     -0.951946    12A     -0.881860
      13A     -0.810219    14A     -0.774336    15A     -0.694418
      16A     -0.647953    17A     -0.632650    18A     -0.609033
      19A     -0.585032    20A     -0.566258    21A     -0.540106
      22A     -0.520095    23A     -0.513164    24A     -0.491866
      25A     -0.477027    26A     -0.460435    27A     -0.451514
      28A     -0.447157    29A     -0.430233

  @DF-RHF Final Energy:  -310.21065046066667

   => Energetics <=

    Nuclear Repulsion Energy =            315.1482500076391489
    One-Electron Energy =               -1045.0264746736611414
    Two-Electron Energy =                 419.6675742053554359
    DFT Exchange-Correlation Energy =       0.0000000000000000
    Empirical Dispersion Energy =           0.0000000000000000
    PCM Polarization Energy =               0.0000000000000000
    EFP Energy =                            0.0000000000000000
    Total Energy =                       -310.2106504606665567
    Molecular point group: c1
  Basis Set: 6-31G*
  Basis Set:

  -Total Gradient:
     Atom            X                  Y                   Z
    ------   -----------------  -----------------  -----------------
       1        0.000010778485     0.000006268007     0.000002879183
       2        0.000005256041     0.000008161322    -0.000008006189
       3       -0.000010931055     0.000002003248     0.000009637934
       4       -0.000338857068    -0.000124011826     0.001233122803
       5        0.000001283676    -0.000001780756    -0.000000451902
       6        0.000002174067     0.000001094842    -0.000000487054
       7       -0.000057743339    -0.000589792310     0.000857277354
       8        0.000294513099     0.000251977976    -0.001279645552
       9       -0.000001371800    -0.000008265623     0.000000164385
      10        0.000096660947     0.000480505097    -0.000836435520
      11       -0.000001364913     0.000009633664     0.000015611710
      12        0.000003043288    -0.000016005907    -0.000002034011
      13        0.000000641393    -0.000009261965    -0.000009606490
      14        0.000000634665    -0.000017199646     0.000006477453
      15        0.000004752774     0.000004533845     0.000015855821
      16       -0.000010452258     0.000013509289     0.000009171212
      17        0.000001460204     0.000002821749    -0.000011766871
      18       -0.000001604834    -0.000012897090    -0.000002680627
      19       -0.000000067625    -0.000002252865     0.000000469142
      20        0.000000680022     0.000001651013     0.000000934961
      21        0.000000514236    -0.000000692063    -0.000000487739

  **** Optimization is complete! (in 7 steps) ****
    Final optimized geometry and variables:
    Molecular point group: c1

    Geometry (in Angstrom), charge = 0, multiplicity = 1:

    H           -3.555331709297    -1.937280289229     0.630648567743
    O           -3.180912240504    -1.255357914286     0.091486611244
    C           -1.916345191429    -0.900218768324     0.589737788774
    C           -1.351213851591     0.190723976060    -0.304609085130
    H           -1.996772867250    -0.533190958619     1.612152100445
    H           -1.258066150899    -1.766222401461     0.604859090837
    C            0.039932508820     0.685248856241     0.114696924399
    H           -2.053534974684     1.018762035336    -0.306261944740
    H           -1.321798730559    -0.182826675716    -1.324721648188
    C            1.184526918022    -0.245845654864    -0.301571805041
    H            0.199623756014     1.663388827025    -0.327942549071
    H            0.066203423721     0.836331276768     1.193360649642
    C            2.571343942996     0.196705460667     0.179912426420
    H            1.192567238002    -0.332669088341    -1.386710342327
    H            0.996645169019    -1.246613975032     0.079721894991
    C            3.064001548354     1.514621990719    -0.420851833014
    H            3.285504222144    -0.585729084419    -0.064912158063
    H            2.567359046640     0.273872681744     1.265410465123
    H            3.062035412246     1.473153844252    -1.506803754791
    H            2.447083180586     2.354920523386    -0.120594979912
    H            4.079612346883     1.726995891056    -0.101231502867

  Mulliken Charges: (a.u.)
   Center  Symbol    Alpha    Beta     Spin     Total
       1     H     0.28125  0.28125  0.00000  0.43749
       2     O     4.37170  4.37170  0.00000 -0.74341
       3     C     2.99130  2.99130  0.00000  0.01741
       4     C     3.16097  3.16097  0.00000 -0.32194
       5     H     0.43289  0.43289  0.00000  0.13422
       6     H     0.43163  0.43163  0.00000  0.13673
       7     C     3.16460  3.16460  0.00000 -0.32919
       8     H     0.41265  0.41265  0.00000  0.17470
       9     H     0.41457  0.41457  0.00000  0.17085
      10     C     3.15346  3.15346  0.00000 -0.30692
      11     H     0.41622  0.41622  0.00000  0.16756
      12     H     0.42454  0.42454  0.00000  0.15091
      13     C     3.15213  3.15213  0.00000 -0.30426
      14     H     0.42234  0.42234  0.00000  0.15533
      15     H     0.42275  0.42275  0.00000  0.15451
      16     C     3.24153  3.24153  0.00000 -0.48305
      17     H     0.42091  0.42091  0.00000  0.15819
      18     H     0.42378  0.42378  0.00000  0.15244
      19     H     0.42182  0.42182  0.00000  0.15635
      20     H     0.41981  0.41981  0.00000  0.16039
      21     H     0.41916  0.41916  0.00000  0.16169

   Total alpha = 29.00000, Total beta = 29.00000, Total charge = -0.00000
