                              Psi4 1.0.54 Driver

  ==> Input File <==

--------------------------------------------------------------------------
set {
	reference rhf
	basis cc-pvtz
}

set_num_threads( 4 )
memory 2 gb

molecule MOL {
0 1

H	 0.404050	 -1.179163	 -1.110251
C	 0.483953	 -0.124086	 -1.405661
C	 0.062554	 0.862911	 -0.350953
O	 0.884413	 0.160634	 -2.480705
C	 -1.339253	 0.577611	 0.196911
H	 0.131819	 1.860496	 -0.765104
H	 0.785620	 0.783951	 0.457759
C	 -1.813142	 -0.849710	 -0.061612
H	 -2.032833	 1.276441	 -0.256032
H	 -1.357249	 0.782269	 1.263793
H	 -1.839268	 -1.063526	 -1.124230
H	 -2.810118	 -1.001930	 0.334000
H	 -1.159274	 -1.579980	 0.402282

	symmetry c1
}
set optking {
	frozen_dihedral = ("
		6 3 5 9
	")
}

ee,wfn = optimize('scf', return_wfn=True)
oeprop( wfn, 'DIPOLE', 'QUADRUPOLE', 'MULLIKEN_CHARGES')
f=open( 'psi4out.xyz', 'w' )
f.write( "13  " )
f.write( str(ee) + "\n" )
f.write( MOL.save_string_xyz() )
f.close()
--------------------------------------------------------------------------

    Molecular point group: c1
  Charge       = 0
  Multiplicity = 1
  Basis Set: CC-PVTZ
  Basis Set:
  @DF-RHF Final Energy:  -231.06133156629053
    Total Energy =                       -231.0613315662905620
    Molecular point group: c1
  Basis Set: CC-PVTZ
  Basis Set:
  Basis Set: CC-PVTZ
  Basis Set:
  @DF-RHF Final Energy:  -230.95340344648901
    Total Energy =                       -230.9534034464888634
  Basis Set: CC-PVTZ
  Basis Set:
  Basis Set: CC-PVTZ
  Basis Set:
  @DF-RHF Final Energy:  -231.04354552245726
    Total Energy =                       -231.0435455224570944
  Basis Set: CC-PVTZ
  Basis Set:
  Basis Set: CC-PVTZ
  Basis Set:
  @DF-RHF Final Energy:  -231.06311363724609
    Total Energy =                       -231.0631136372461469
  Basis Set: CC-PVTZ
  Basis Set:
  @DF-RHF Final Energy:  -231.05579328652146
    Total Energy =                       -231.0557932865215207
  @DF-RHF Final Energy:  -231.06396606543220
    Total Energy =                       -231.0639660654320835
  @DF-RHF Final Energy:  -231.06403567953254
    Total Energy =                       -231.0640356795324237
  @DF-RHF Final Energy:  -231.06426650593230
    Total Energy =                       -231.0642665059322383
  Basis Set: CC-PVTZ
  Basis Set:
  @DF-RHF Final Energy:  -231.06432691937741
    Total Energy =                       -231.0643269193772653
  Basis Set: CC-PVTZ
  Basis Set:
  Basis Set: CC-PVTZ
  Basis Set:
  @DF-RHF Final Energy:  -231.06433894942339
    Total Energy =                       -231.0643389494231883
  Basis Set: CC-PVTZ
  Basis Set:
  Basis Set: CC-PVTZ
  Basis Set:
  @DF-RHF Final Energy:  -231.06434327329234
    Total Energy =                       -231.0643432732924225
  Basis Set: CC-PVTZ
  Basis Set:
  Charge       = 0
  Multiplicity = 1
  Basis Set: CC-PVTZ
  Basis Set:

    Orbital Energies (a.u.)
    -----------------------

    Doubly Occupied:

       1A    -20.551303     2A    -11.320246     3A    -11.237102
       4A    -11.234196     5A    -11.223544     6A     -1.405910
       7A     -1.083470     8A     -0.974537     9A     -0.858934
      10A     -0.776260    11A     -0.680814    12A     -0.640878
      13A     -0.620874    14A     -0.604620    15A     -0.562067
      16A     -0.534364    17A     -0.517130    18A     -0.488560
      19A     -0.480510    20A     -0.410307

  @DF-RHF Final Energy:  -231.06434355513389

   => Energetics <=

    Nuclear Repulsion Energy =            174.3240212150521700
    One-Electron Energy =                -658.3654772946906633
    Two-Electron Energy =                 252.9771125245046335
    DFT Exchange-Correlation Energy =       0.0000000000000000
    Empirical Dispersion Energy =           0.0000000000000000
    PCM Polarization Energy =               0.0000000000000000
    EFP Energy =                            0.0000000000000000
    Total Energy =                       -231.0643435551338314
    Molecular point group: c1
  Basis Set: CC-PVTZ
  Basis Set:

  -Total Gradient:
     Atom            X                  Y                   Z
    ------   -----------------  -----------------  -----------------
       1        0.000008956062    -0.000008833555    -0.000019510386
       2       -0.000014205304    -0.000018793769     0.000068542501
       3        0.002788834433    -0.000912174079     0.006391703668
       4        0.000005593383     0.000013914755    -0.000056129886
       5       -0.002368577668    -0.000704717140    -0.006492020080
       6       -0.001971718200     0.000848494752    -0.004320045413
       7       -0.000009450606     0.000006817377    -0.000004079025
       8        0.000029986421     0.000038253461    -0.000015347929
       9        0.001568559840     0.000735747481     0.004437689414
      10       -0.000012880291     0.000006315025    -0.000003585988
      11       -0.000044400236    -0.000002732631     0.000011331433
      12       -0.000015821858    -0.000010958938     0.000022808761
      13        0.000035124025     0.000008667260    -0.000021357072

  **** Optimization is complete! (in 12 steps) ****
    Final optimized geometry and variables:
    Molecular point group: c1

    Geometry (in Angstrom), charge = 0, multiplicity = 1:

    H            0.869124711418    -0.993088540284    -1.079104619278
    C            0.802418150054     0.057942917127    -0.777836596055
    C            0.632469495097     0.314253787308     0.698488597947
    O            0.874695906217     0.909315414747    -1.596260060063
    C           -0.758386610516    -0.082550392634     1.250698490660
    H            0.797906465802     1.373705735577     0.835018770446
    H            1.410733461923    -0.240156093135     1.213383618137
    C           -1.504156767872    -1.179322668217     0.495377499052
    H           -1.370339170059     0.808837022660     1.314508823384
    H           -0.625506314980    -0.402516810476     2.278282400912
    H           -1.738057205779    -0.885362412579    -0.521441325716
    H           -2.440072656090    -1.400243599632     0.993503637502
    H           -0.931093050346    -2.099446848315     0.454209566839

  Mulliken Charges: (a.u.)
   Center  Symbol    Alpha    Beta     Spin     Total
       1     H     0.46209  0.46209  0.00000  0.07582
       2     C     2.90537  2.90537  0.00000  0.18926
       3     C     3.08923  3.08923  0.00000 -0.17845
       4     O     4.16591  4.16591  0.00000 -0.33182
       5     C     3.08977  3.08977  0.00000 -0.17954
       6     H     0.44099  0.44099  0.00000  0.11802
       7     H     0.44931  0.44931  0.00000  0.10137
       8     C     3.15924  3.15924  0.00000 -0.31848
       9     H     0.44514  0.44514  0.00000  0.10971
      10     H     0.44994  0.44994  0.00000  0.10011
      11     H     0.44852  0.44852  0.00000  0.10296
      12     H     0.44275  0.44275  0.00000  0.11449
      13     H     0.45173  0.45173  0.00000  0.09654

   Total alpha = 20.00000, Total beta = 20.00000, Total charge =  0.00000

*** Psi4 exiting successfully. Buy a developer a beer!
