  ==> Input File <==

--------------------------------------------------------------------------
set {
	reference rhf
	basis 6-31G*
}

set_num_threads( 4 )
memory 2 gb

molecule MOL {
0 1

H	 -2.698709	 -0.000305	 0.034435
C	 -1.693833	 0.000034	 0.434417
O	 -0.828952	 -0.000968	 -0.659236
H	 -1.574200	 0.882896	 1.055746
H	 -1.574147	 -0.881698	 1.057355
C	 -0.742598	 -1.163998	 -1.449430
C	 -0.188163	 -2.357966	 -0.674860
C	 -2.056546	 -1.490250	 -2.156579
H	 -0.016429	 -0.893771	 -2.206852
H	 0.715846	 -2.076177	 -0.145794
H	 0.055390	 -3.163961	 -1.359907
H	 -0.900424	 -2.746850	 0.045985
H	 -2.446104	 -0.607744	 -2.652445
H	 -1.893673	 -2.258139	 -2.906435
H	 -2.811858	 -1.859743	 -1.470416

	symmetry c1
}
set optking {
	frozen_dihedral = ("
		6 3 2 1
	")
}

ee = optimize('scf')
oeprop('DIPOLE', 'QUADRUPOLE', 'MULLIKEN_CHARGES')
f=open( 'psi4out.xyz', 'w' )
f.write( "15  " )
f.write( str(ee) + "\n" )
f.write( MOL.save_string_xyz() )
f.close()
--------------------------------------------------------------------------

    Molecular point group: c1
  Charge       = 0
  Multiplicity = 1
  Basis Set: 6-31G*
  Basis Set:
  @DF-RHF Final Energy:  -232.13523176429007
    Total Energy =                       -232.1352317642899266
    Molecular point group: c1
  Basis Set: 6-31G*
  Basis Set:
  Basis Set: 6-31G*
  Basis Set:
  @DF-RHF Final Energy:  -232.13722362351177
    Total Energy =                       -232.1372236235115452
  Basis Set: 6-31G*
  Basis Set:
  Basis Set: 6-31G*
  Basis Set:
  @DF-RHF Final Energy:  -232.13769420230460
    Total Energy =                       -232.1376942023047150
  Basis Set: 6-31G*
  Basis Set:
  Basis Set: 6-31G*
  Basis Set:
  @DF-RHF Final Energy:  -232.13769596098322
    Total Energy =                       -232.1376959609832511
  Basis Set: 6-31G*
  Basis Set:
  Basis Set: 6-31G*
  Basis Set:
  @DF-RHF Final Energy:  -232.13770609226160
    Total Energy =                       -232.1377060922616238
  Basis Set: 6-31G*
  Basis Set:
  Charge       = 0
  Multiplicity = 1
  Basis Set: 6-31G*
  Basis Set:

    Orbital Energies (a.u.)
    -----------------------

    Doubly Occupied:

       1A    -20.548299     2A    -11.274313     3A    -11.261083
       4A    -11.211169     5A    -11.209900     6A     -1.370411
       7A     -1.050452     8A     -0.939851     9A     -0.931043
      10A     -0.781263    11A     -0.674331    12A     -0.640455
      13A     -0.633311    14A     -0.572680    15A     -0.565034
      16A     -0.552701    17A     -0.534264    18A     -0.498025
      19A     -0.496594    20A     -0.443131    21A     -0.406417

  @DF-RHF Final Energy:  -232.13770660423782

   => Energetics <=

    Nuclear Repulsion Energy =            198.7936167307678659
    One-Electron Energy =                -708.6731893628325452
    Two-Electron Energy =                 277.7418660278269726
    DFT Exchange-Correlation Energy =       0.0000000000000000
    Empirical Dispersion Energy =           0.0000000000000000
    PCM Polarization Energy =               0.0000000000000000
    EFP Energy =                            0.0000000000000000
    Total Energy =                       -232.1377066042376782
    Molecular point group: c1
  Basis Set: 6-31G*
  Basis Set:

  -Total Gradient:
     Atom            X                  Y                   Z
    ------   -----------------  -----------------  -----------------
       1        0.000043407166     0.000503382245    -0.000013913482
       2        0.000131002391    -0.000702819606     0.000160790403
       3       -0.000490736915     0.000321069510    -0.000388877836
       4       -0.000006868618    -0.000001195355     0.000009424664
       5        0.000003468140     0.000020847508    -0.000038213957
       6        0.000339539958    -0.000169985194     0.000211452796
       7       -0.000020741266     0.000007688614    -0.000002203535
       8       -0.000004775936     0.000012839483     0.000036092028
       9        0.000009163364    -0.000005695872    -0.000008278519
      10       -0.000012204106     0.000003370742     0.000015714131
      11        0.000006512711     0.000007043972     0.000001512518
      12        0.000003055596    -0.000008199931    -0.000006335804
      13       -0.000010805411     0.000005782499     0.000017934951
      14        0.000013285392     0.000019181240     0.000011144975
      15       -0.000003302468    -0.000013309856    -0.000006243334

  **** Optimization is complete! (in 6 steps) ****
    Final optimized geometry and variables:
    Molecular point group: c1

    Geometry (in Angstrom), charge = 0, multiplicity = 1:

    H           -1.646560153581     1.059559718232     0.923541546618
    C           -0.625319581894     1.000912520538     1.289352935174
    O            0.304122097871     0.982856625798     0.249904286948
    H           -0.422757952973     1.889860575733     1.871512611557
    H           -0.537969490787     0.138312953664     1.943109230277
    C            0.381813776086    -0.164623276659    -0.563593784496
    C            0.946744423225    -1.368813790253     0.187587650173
    C           -0.938482759354    -0.482299030244    -1.262157928406
    H            1.100729915320     0.118604165182    -1.323168688727
    H            1.858221698603    -1.092298426431     0.706044267895
    H            1.179885707518    -2.166941212138    -0.510500342865
    H            0.246174735394    -1.766605820513     0.914709079778
    H           -1.332722009198     0.404579261504    -1.746650680066
    H           -0.783488819673    -1.243394850788    -2.020395873152
    H           -1.687140322915    -0.856993786370    -0.571129197491

  Mulliken Charges: (a.u.)
   Center  Symbol    Alpha    Beta     Spin     Total
       1     H     0.42831  0.42831  0.00000  0.14338
       2     C     3.08180  3.08180  0.00000 -0.16360
       3     O     4.31195  4.31195  0.00000 -0.62390
       4     H     0.41273  0.41273  0.00000  0.17454
       5     H     0.43017  0.43017  0.00000  0.13967
       6     C     2.90893  2.90893  0.00000  0.18214
       7     C     3.25158  3.25158  0.00000 -0.50316
       8     C     3.25480  3.25480  0.00000 -0.50960
       9     H     0.41523  0.41523  0.00000  0.16953
      10     H     0.41130  0.41130  0.00000  0.17739
      11     H     0.42008  0.42008  0.00000  0.15984
      12     H     0.42171  0.42171  0.00000  0.15657
      13     H     0.41161  0.41161  0.00000  0.17678
      14     H     0.41870  0.41870  0.00000  0.16260
      15     H     0.42109  0.42109  0.00000  0.15783

   Total alpha = 21.00000, Total beta = 21.00000, Total charge =  0.00000
