  ==> Input File <==

--------------------------------------------------------------------------
set {
	reference rhf
	basis cc-pvtz
}

set_num_threads( 4 )
memory 2 gb

molecule MOL {
0 1

H	 2.828711	 -0.346904	 0.001083
C	 1.876752	 0.015931	 -0.363450
C	 0.776285	 -0.474665	 0.563092
H	 1.728113	 -0.357244	 -1.367440
H	 1.906171	 1.096574	 -0.386153
N	 -0.540022	 0.017605	 0.071630
H	 0.707111	 -1.548969	 0.573035
H	 0.886169	 -0.084184	 1.560432
O	 -1.084190	 0.848257	 0.718231
O	 -0.967578	 -0.475229	 -0.917666

	symmetry c1
}
set optking {
	frozen_dihedral = ("
		9 6 3 2
	")
}

ee = optimize('scf')
oeprop('DIPOLE', 'QUADRUPOLE', 'MULLIKEN_CHARGES')
f=open( 'psi4out.xyz', 'w' )
f.write( "10  " )
f.write( str(ee) + "\n" )
f.write( MOL.save_string_xyz() )
f.close()
--------------------------------------------------------------------------

    Molecular point group: c1
  Charge       = 0
  Multiplicity = 1
  Basis Set: CC-PVTZ
  Basis Set:
  @DF-RHF Final Energy:  -282.81312220487854
    Total Energy =                       -282.8131222048784821
    Molecular point group: c1
  Basis Set: CC-PVTZ
  Basis Set:
  Basis Set: CC-PVTZ
  Basis Set:
  @DF-RHF Final Energy:  -282.80763880657628
    Total Energy =                       -282.8076388065763922
  Basis Set: CC-PVTZ
  Basis Set:
  Basis Set: CC-PVTZ
  Basis Set:
  @DF-RHF Final Energy:  -282.81314047452639
    Total Energy =                       -282.8131404745264490
  Basis Set: CC-PVTZ
  Basis Set:
  Basis Set: CC-PVTZ
  Basis Set:
  @DF-RHF Final Energy:  -282.81328954876358
    Total Energy =                       -282.8132895487635778
  Basis Set: CC-PVTZ
  Basis Set:
  Basis Set: CC-PVTZ
  Basis Set:
  @DF-RHF Final Energy:  -282.81329396945773
    Total Energy =                       -282.8132939694577317
  Basis Set: CC-PVTZ
  Basis Set:
  Charge       = 0
  Multiplicity = 1
  Basis Set: CC-PVTZ
  Basis Set:

    Orbital Energies (a.u.)
    -----------------------

    Doubly Occupied:

       1A    -20.593721     2A    -20.590363     3A    -15.838551
       4A    -11.301974     5A    -11.249810     6A     -1.637826
       7A     -1.422204     8A     -1.126091     9A     -0.966872
      10A     -0.839210    11A     -0.763958    12A     -0.740700
      13A     -0.730366    14A     -0.657996    15A     -0.590668
      16A     -0.561286    17A     -0.547211    18A     -0.488901
      19A     -0.479372    20A     -0.455108

  @DF-RHF Final Energy:  -282.81329453022056

   => Energetics <=

    Nuclear Repulsion Energy =            186.7191969829853804
    One-Electron Energy =                -755.9006039680093636
    Two-Electron Energy =                 286.3681124548033949
    DFT Exchange-Correlation Energy =       0.0000000000000000
    Empirical Dispersion Energy =           0.0000000000000000
    PCM Polarization Energy =               0.0000000000000000
    EFP Energy =                            0.0000000000000000
    Total Energy =                       -282.8132945302205599
    Molecular point group: c1
  Basis Set: CC-PVTZ
  Basis Set:

  -Total Gradient:
     Atom            X                  Y                   Z
    ------   -----------------  -----------------  -----------------
       1        0.000004289275     0.000002063673    -0.000003374930
       2        0.000002894376    -0.000100124499    -0.000073720196
       3       -0.000026353693     0.000086050614     0.000137609316
       4        0.000000306313    -0.000000101572    -0.000000698908
       5       -0.000001723577    -0.000006219021     0.000002332791
       6        0.000133915205     0.000060202373    -0.000234629509
       7        0.000012803135    -0.000001647542    -0.000001333246
       8       -0.000004893599    -0.000000745459    -0.000002460143
       9       -0.000122865348    -0.000082114288     0.000103879133
      10        0.000001627912     0.000042635720     0.000072395692

  **** Optimization is complete! (in 6 steps) ****
    Final optimized geometry and variables:
    Molecular point group: c1

    Geometry (in Angstrom), charge = 0, multiplicity = 1:

    H            2.836509696594    -0.336297962207    -0.002668821104
    C            1.884760870996     0.018867063957    -0.375660161434
    C            0.784585843158    -0.463796318228     0.553445813228
    H            1.738891274843    -0.362503587979    -1.375471401539
    H            1.914322406406     1.100222114627    -0.409234695476
    N           -0.540161777352     0.019503115709     0.072342773713
    H            0.714588047774    -1.539932930140     0.559662117942
    H            0.893513723779    -0.083826166878     1.553805126173
    O           -1.087528905219     0.850251183206     0.714880451858
    O           -0.952458609190    -0.456504108011    -0.932142820998

  Mulliken Charges: (a.u.)
   Center  Symbol    Alpha    Beta     Spin     Total
       1     H     0.44821  0.44821  0.00000  0.10359
       2     C     3.14118  3.14118  0.00000 -0.28236
       3     C     3.03766  3.03766  0.00000 -0.07532
       4     H     0.43785  0.43785  0.00000  0.12430
       5     H     0.44379  0.44379  0.00000  0.11242
       6     N     3.27737  3.27737  0.00000  0.44527
       7     H     0.43660  0.43660  0.00000  0.12680
       8     H     0.43309  0.43309  0.00000  0.13381
       9     O     4.16938  4.16938  0.00000 -0.33876
      10     O     4.17488  4.17488  0.00000 -0.34975

   Total alpha = 20.00000, Total beta = 20.00000, Total charge = -0.00000
