  ==> Input File <==

--------------------------------------------------------------------------
set {
	reference rhf
	basis 6-31G*
}

set_num_threads( 1 )
memory 2 gb

molecule MOL {
0 1

H	 2.378938	 -1.156402	 -0.158600
O	 1.697427	 -0.578670	 -0.470782
C	 1.135793	 0.118896	 0.612333
C	 0.031547	 1.023609	 0.088541
H	 1.891709	 0.725823	 1.107428
H	 0.743969	 -0.575948	 1.351769
C	 -1.134819	 0.293262	 -0.585751
H	 0.474374	 1.714721	 -0.623187
H	 -0.338529	 1.620940	 0.920081
C	 -1.917817	 -0.639439	 0.339494
H	 -0.758119	 -0.268455	 -1.433105
H	 -1.813832	 1.041889	 -0.986690
H	 -2.777680	 -1.057197	 -0.174994
H	 -1.310268	 -1.471279	 0.680599
H	 -2.283753	 -0.111424	 1.216626

	symmetry c1
}
set optking {
	frozen_dihedral = ("
		8 4 7 11,
		1 2 3 4
	")
}

ee = energy('scf')
oeprop('DIPOLE', 'QUADRUPOLE', 'MULLIKEN_CHARGES')
f=open( 'psi4out.xyz', 'w' )
f.write( "15  " )
f.write( str(ee) + "\n" )
f.write( MOL.save_string_xyz() )
f.close()
--------------------------------------------------------------------------

    Molecular point group: c1

    Geometry (in Angstrom), charge = 0, multiplicity = 1:

       Center              X                  Y                   Z               Mass
    ------------   -----------------  -----------------  -----------------  -----------------
           H          2.369436919585    -1.166749163506    -0.156441054789     1.007825032070
           O          1.687925919585    -0.589017163506    -0.468623054789    15.994914619560
           C          1.126291919585     0.108548836494     0.614491945211    12.000000000000
           C          0.022045919585     1.013261836494     0.090699945211    12.000000000000
           H          1.882207919585     0.715475836494     1.109586945211     1.007825032070
           H          0.734467919585    -0.586295163506     1.353927945211     1.007825032070
           C         -1.144320080415     0.282914836494    -0.583592054789    12.000000000000
           H          0.464872919585     1.704373836494    -0.621028054789     1.007825032070
           H         -0.348030080415     1.610592836494     0.922239945211     1.007825032070
           C         -1.927318080415    -0.649786163506     0.341652945211    12.000000000000
           H         -0.767620080415    -0.278802163506    -1.430946054789     1.007825032070
           H         -1.823333080415     1.031541836494    -0.984531054789     1.007825032070
           H         -2.787181080415    -1.067544163506    -0.172835054789     1.007825032070
           H         -1.319769080415    -1.481626163506     0.682757945211     1.007825032070
           H         -2.293254080415    -0.121771163506     1.218784945211     1.007825032070

  Charge       = 0
  Multiplicity = 1
  Basis Set: 6-31G*
  Basis Set:

    Orbital Energies (a.u.)
    -----------------------

    Doubly Occupied:

       1A    -20.553255     2A    -11.267351     3A    -11.212401
       4A    -11.208852     5A    -11.205003     6A     -1.359851
       7A     -1.063956     8A     -0.969975     9A     -0.868588
      10A     -0.774279    11A     -0.704053    12A     -0.648409
      13A     -0.607462    14A     -0.572929    15A     -0.563505
      16A     -0.532035    17A     -0.509742    18A     -0.473562
      19A     -0.466953    20A     -0.452123    21A     -0.430605

  @DF-RHF Final Energy:  -232.14385716864967

   => Energetics <=

    Nuclear Repulsion Energy =            191.7097977758434126
    One-Electron Energy =                -694.8175911786963752
    Two-Electron Energy =                 270.9639362342033451
    DFT Exchange-Correlation Energy =       0.0000000000000000
    Empirical Dispersion Energy =           0.0000000000000000
    PCM Polarization Energy =               0.0000000000000000
    EFP Energy =                            0.0000000000000000
    Total Energy =                       -232.1438571686496175

  Mulliken Charges: (a.u.)
   Center  Symbol    Alpha    Beta     Spin     Total
       1     H     0.28065  0.28065  0.00000  0.43871
       2     O     4.36975  4.36975  0.00000 -0.73950
       3     C     2.99916  2.99916  0.00000  0.00167
       4     C     3.16088  3.16088  0.00000 -0.32175
       5     H     0.42936  0.42936  0.00000  0.14129
       6     H     0.43056  0.43056  0.00000  0.13887
       7     C     3.15385  3.15385  0.00000 -0.30770
       8     H     0.41384  0.41384  0.00000  0.17233
       9     H     0.42471  0.42471  0.00000  0.15058
      10     C     3.24323  3.24323  0.00000 -0.48647
      11     H     0.40784  0.40784  0.00000  0.18432
      12     H     0.42267  0.42267  0.00000  0.15467
      13     H     0.41889  0.41889  0.00000  0.16221
      14     H     0.41987  0.41987  0.00000  0.16026
      15     H     0.42474  0.42474  0.00000  0.15052

   Total alpha = 21.00000, Total beta = 21.00000, Total charge =  0.00000
