  ==> Input File <==

--------------------------------------------------------------------------
set {
	reference rhf
	basis 6-31G*
}

set_num_threads( 1 )
memory 2 gb

molecule MOL {
0 1

H	 -1.284890	 0.354077	 -2.314168
C	 -1.051255	 -0.511618	 -1.697623
O	 -1.392607	 -0.295399	 -0.366433
H	 -1.626815	 -1.356970	 -2.048698
H	 0.008511	 -0.737806	 -1.807910
C	 -0.719715	 0.768384	 0.229244
C	 0.719720	 0.768376	 -0.229267
H	 -1.185038	 1.714362	 -0.050570
H	 -0.750528	 0.687237	 1.313896
O	 1.392611	 -0.295398	 0.366430
H	 0.750534	 0.687200	 -1.313918
H	 1.185043	 1.714359	 0.050526
C	 2.706965	 -0.449871	 -0.062409
H	 2.756559	 -0.644779	 -1.131878
H	 3.305899	 0.433456	 0.155466
H	 3.125548	 -1.294566	 0.467107

	symmetry c1
}
set optking {
	frozen_dihedral = ("
		3 6 7 11,
		7 10 13 14
	")
}

ee = energy('scf')
oeprop('DIPOLE', 'QUADRUPOLE', 'MULLIKEN_CHARGES')
f=open( 'psi4out.xyz', 'w' )
f.write( "16  " )
f.write( str(ee) + "\n" )
f.write( MOL.save_string_xyz() )
f.close()
--------------------------------------------------------------------------

    Molecular point group: c1

    Geometry (in Angstrom), charge = 0, multiplicity = 1:

       Center              X                  Y                   Z               Mass
    ------------   -----------------  -----------------  -----------------  -----------------
           H         -1.575810446503     0.364932625734    -2.004922732583     1.007825032070
           C         -1.342175446503    -0.500762374266    -1.388377732583    12.000000000000
           O         -1.683527446503    -0.284543374266    -0.057187732583    15.994914619560
           H         -1.917735446503    -1.346114374266    -1.739452732583     1.007825032070
           H         -0.282409446503    -0.726950374266    -1.498664732583     1.007825032070
           C         -1.010635446503     0.779239625734     0.538489267417    12.000000000000
           C          0.428799553497     0.779231625734     0.079978267417    12.000000000000
           H         -1.475958446503     1.725217625734     0.258675267417     1.007825032070
           H         -1.041448446503     0.698092625734     1.623141267417     1.007825032070
           O          1.101690553497    -0.284542374266     0.675675267417    15.994914619560
           H          0.459613553497     0.698055625734    -1.004672732583     1.007825032070
           H          0.894122553497     1.725214625734     0.359771267417     1.007825032070
           C          2.416044553497    -0.439015374266     0.246836267417    12.000000000000
           H          2.465638553497    -0.633923374266    -0.822632732583     1.007825032070
           H          3.014978553497     0.444311625734     0.464711267417     1.007825032070
           H          2.834627553497    -1.283710374266     0.776352267417     1.007825032070

  Charge       = 0
  Multiplicity = 1
  Basis Set: 6-31G*
  Basis Set:

    Orbital Energies (a.u.)
    -----------------------

    Doubly Occupied:

       1A    -20.561267     2A    -20.552505     3A    -11.269854
       4A    -11.269452     5A    -11.268774     6A    -11.262631
       7A     -1.395180     8A     -1.372591     9A     -1.026855
      10A     -0.952889    11A     -0.905778    12A     -0.809546
      13A     -0.707081    14A     -0.684156    15A     -0.657792
      16A     -0.636558    17A     -0.630553    18A     -0.596396
      19A     -0.551240    20A     -0.531522    21A     -0.529908
      22A     -0.494030    23A     -0.448215    24A     -0.422971
      25A     -0.409966

  @DF-RHF Final Energy:  -306.95993176647613

   => Energetics <=

    Nuclear Repulsion Energy =            268.0734227110419283
    One-Electron Energy =                -950.1711553432799064
    Two-Electron Energy =                 375.1378008657625287
    DFT Exchange-Correlation Energy =       0.0000000000000000
    Empirical Dispersion Energy =           0.0000000000000000
    PCM Polarization Energy =               0.0000000000000000
    EFP Energy =                            0.0000000000000000
    Total Energy =                       -306.9599317664753926

  Mulliken Charges: (a.u.)
   Center  Symbol    Alpha    Beta     Spin     Total
       1     H     0.43186  0.43186  0.00000  0.13627
       2     C     3.09163  3.09163  0.00000 -0.18325
       3     O     4.29885  4.29885  0.00000 -0.59769
       4     H     0.40951  0.40951  0.00000  0.18099
       5     H     0.41975  0.41975  0.00000  0.16050
       6     C     2.98870  2.98870  0.00000  0.02261
       7     C     3.02209  3.02209  0.00000 -0.04419
       8     H     0.42998  0.42998  0.00000  0.14004
       9     H     0.40614  0.40614  0.00000  0.18772
      10     O     4.29944  4.29944  0.00000 -0.59888
      11     H     0.42478  0.42478  0.00000  0.15043
      12     H     0.42734  0.42734  0.00000  0.14531
      13     C     3.08003  3.08003  0.00000 -0.16007
      14     H     0.43099  0.43099  0.00000  0.13802
      15     H     0.42936  0.42936  0.00000  0.14129
      16     H     0.40955  0.40955  0.00000  0.18089

   Total alpha = 25.00000, Total beta = 25.00000, Total charge =  0.00000
