                              Psi4 1.0.54 Driver

  ==> Input File <==

--------------------------------------------------------------------------
set {
	reference rhf
	basis cc-pvtz
}

set_num_threads( 4 )
memory 2 gb

molecule MOL {
0 1

H	 3.721907	 -0.933076	 -0.066039
O	 2.824271	 -1.154299	 0.131461
C	 2.076458	 -0.067370	 -0.038225
C	 0.626018	 -0.337582	 0.258241
O	 2.538288	 0.965419	 -0.381593
C	 -0.267326	 0.883135	 0.076490
H	 0.325620	 -1.161483	 -0.378003
H	 0.574537	 -0.713685	 1.275261
C	 -1.726822	 0.642622	 0.463839
H	 -0.210803	 1.217591	 -0.953497
H	 0.129920	 1.693110	 0.675679
C	 -2.684470	 0.443889	 -0.709811
H	 -2.065346	 1.495327	 1.044830
H	 -1.788789	 -0.217041	 1.127606
C	 -4.138528	 0.313821	 -0.267912
H	 -2.589665	 1.283549	 -1.393198
H	 -2.408145	 -0.441646	 -1.273219
H	 -4.796384	 0.176115	 -1.118173
H	 -4.466281	 1.200390	 0.264320
H	 -4.271541	 -0.535550	 0.393928

	symmetry c1
}
set optking {
	frozen_dihedral = ("
		12 9 6 10
	")
}

ee,wfn = optimize('scf', return_wfn=True)
oeprop( wfn, 'DIPOLE', 'QUADRUPOLE', 'MULLIKEN_CHARGES')
f=open( 'psi4out.xyz', 'w' )
f.write( "20  " )
f.write( str(ee) + "\n" )
f.write( MOL.save_string_xyz() )
f.close()
--------------------------------------------------------------------------

    Molecular point group: c1
  Charge       = 0
  Multiplicity = 1
  Basis Set: CC-PVTZ
  Basis Set:
  @DF-RHF Final Energy:  -384.09157994289450
    Total Energy =                       -384.0915799428947821
    Molecular point group: c1
  Basis Set: CC-PVTZ
  Basis Set:
  Basis Set: CC-PVTZ
  Basis Set:
  @DF-RHF Final Energy:  -384.09199455187093
    Total Energy =                       -384.0919945518709255
  Basis Set: CC-PVTZ
  Basis Set:
  Basis Set: CC-PVTZ
  Basis Set:
  @DF-RHF Final Energy:  -384.09224946954191
    Total Energy =                       -384.0922494695417413
  Basis Set: CC-PVTZ
  Basis Set:
  Basis Set: CC-PVTZ
  Basis Set:
  @DF-RHF Final Energy:  -384.09139245384631
    Total Energy =                       -384.0913924538463107
  Basis Set: CC-PVTZ
  Basis Set:
  Basis Set: CC-PVTZ
  Basis Set:
  @DF-RHF Final Energy:  -384.09228570879105
    Total Energy =                       -384.0922857087907687
  Basis Set: CC-PVTZ
  Basis Set:
  Basis Set: CC-PVTZ
  Basis Set:
  @DF-RHF Final Energy:  -384.09229284023075
    Total Energy =                       -384.0922928402308116
  Basis Set: CC-PVTZ
  Basis Set:
  Basis Set: CC-PVTZ
  Basis Set:
  @DF-RHF Final Energy:  -384.09229395214760
    Total Energy =                       -384.0922939521477701
  Basis Set: CC-PVTZ
  Basis Set:
  Charge       = 0
  Multiplicity = 1
  Basis Set: CC-PVTZ
  Basis Set:

    Orbital Energies (a.u.)
    -----------------------

    Doubly Occupied:

       1A    -20.603868     2A    -20.540535     3A    -11.373214
       4A    -11.239220     5A    -11.220759     6A    -11.218428
       7A    -11.217814     8A    -11.209898     9A     -1.477424
      10A     -1.368950    11A     -1.096280    12A     -1.043063
      13A     -0.960231    14A     -0.870380    15A     -0.810846
      16A     -0.786854    17A     -0.703633    18A     -0.692313
      19A     -0.666265    20A     -0.635505    21A     -0.606753
      22A     -0.595474    23A     -0.573437    24A     -0.558411
      25A     -0.542820    26A     -0.504385    27A     -0.500004
      28A     -0.484393    29A     -0.473832    30A     -0.468484
      31A     -0.457448    32A     -0.444767

  @DF-RHF Final Energy:  -384.09229415748121

   => Energetics <=

    Nuclear Repulsion Energy =            374.8445926932874954
    One-Electron Energy =               -1265.9823909742708565
    Two-Electron Energy =                 507.0455041235020417
    DFT Exchange-Correlation Energy =       0.0000000000000000
    Empirical Dispersion Energy =           0.0000000000000000
    PCM Polarization Energy =               0.0000000000000000
    EFP Energy =                            0.0000000000000000
    Total Energy =                       -384.0922941574813194
    Molecular point group: c1
  Basis Set: CC-PVTZ
  Basis Set:

  -Total Gradient:
     Atom            X                  Y                   Z
    ------   -----------------  -----------------  -----------------
       1        0.000001868412    -0.000013367781     0.000005512137
       2        0.000011574218     0.000028183652    -0.000024335783
       3        0.000002061355     0.000029523398     0.000004073901
       4        0.000013207520    -0.000022942859    -0.000016470262
       5       -0.000030611177    -0.000061571371     0.000028968713
       6       -0.000436602908     0.004593751630     0.001211444961
       7        0.000016609297     0.000016976410     0.000023445281
       8        0.000010303076     0.000007568239    -0.000003901738
       9        0.000554007339    -0.003869812873    -0.000174282179
      10        0.000204410010    -0.002985989450    -0.000986885241
      11       -0.000013610326    -0.000003606986     0.000000024540
      12       -0.000356143394     0.002271680583    -0.000066728654
      13        0.000015177938     0.000015542410     0.000005447416
      14        0.000015789682    -0.000004414771    -0.000001971949
      15        0.000008531101    -0.000007437208    -0.000002199583
      16       -0.000006135536     0.000014845344    -0.000001409948
      17       -0.000004320527    -0.000007109469    -0.000005310157
      18        0.000001218606    -0.000002143944     0.000001520183
      19       -0.000002862938     0.000005571945     0.000003151358
      20       -0.000004471739    -0.000005246906    -0.000000092993

  **** Optimization is complete! (in 8 steps) ****
    Final optimized geometry and variables:
    Molecular point group: c1

    Geometry (in Angstrom), charge = 0, multiplicity = 1:

    H            3.660855527275    -1.319320483378    -0.108776426477
    O            2.765102155135    -1.472808296318     0.151615842932
    C            2.082743206309    -0.341314768140    -0.001427201946
    C            0.639898578336    -0.501742326789     0.394293868892
    O            2.589223965566     0.648844791144    -0.402915347126
    C           -0.184079932556     0.772538242875     0.245248974940
    H            0.232862801603    -1.308566322314    -0.206769121244
    H            0.628110974768    -0.861251625529     1.417834247105
    C           -1.667837212912     0.552583697988     0.587346615776
    H           -0.088510352202     1.113581505244    -0.778226923667
    H            0.245235609055     1.543052192576     0.871449082897
    C           -2.559703444092     0.383610214929    -0.641390996118
    H           -2.033982938017     1.400831466706     1.156997135456
    H           -1.777867487530    -0.310664690468     1.237926784582
    C           -4.020514869641     0.125185956542    -0.290046531033
    H           -2.486969355717     1.277670627746    -1.253275381442
    H           -2.187607842319    -0.434076105050    -1.253981106021
    H           -4.627075379367     0.024328082688    -1.182579739135
    H           -4.430650862017     0.939416735408     0.298203703082
    H           -4.129478716203    -0.786115004531     0.288601145014

  Mulliken Charges: (a.u.)
   Center  Symbol    Alpha    Beta     Spin     Total
       1     H     0.38239  0.38239  0.00000  0.23522
       2     O     4.16028  4.16028  0.00000 -0.32057
       3     C     2.80589  2.80589  0.00000  0.38823
       4     C     3.10860  3.10860  0.00000 -0.21719
       5     O     4.19130  4.19130  0.00000 -0.38261
       6     C     3.09426  3.09426  0.00000 -0.18852
       7     H     0.43803  0.43803  0.00000  0.12393
       8     H     0.43728  0.43728  0.00000  0.12544
       9     C     3.09880  3.09880  0.00000 -0.19761
      10     H     0.44598  0.44598  0.00000  0.10804
      11     H     0.43918  0.43918  0.00000  0.12165
      12     C     3.08175  3.08175  0.00000 -0.16351
      13     H     0.44541  0.44541  0.00000  0.10919
      14     H     0.45599  0.45599  0.00000  0.08803
      15     C     3.15062  3.15062  0.00000 -0.30125
      16     H     0.45149  0.45149  0.00000  0.09702
      17     H     0.45562  0.45562  0.00000  0.08875
      18     H     0.44769  0.44769  0.00000  0.10462
      19     H     0.45437  0.45437  0.00000  0.09126
      20     H     0.45506  0.45506  0.00000  0.08989

   Total alpha = 32.00000, Total beta = 32.00000, Total charge =  0.00000

*** Psi4 exiting successfully. Buy a developer a beer!
