  ==> Input File <==

--------------------------------------------------------------------------
set {
	reference rhf
	basis cc-pvtz
}

set_num_threads( 4 )
memory 2 gb

molecule MOL {
0 1

O	 1.707442	 -0.521754	 -0.264061
C	 0.860843	 0.273204	 -0.013120
C	 -0.623368	 -0.117453	 -0.005652
C	 1.244470	 1.705849	 0.300540
C	 -0.892588	 -1.253841	 -1.002900
C	 -1.473463	 1.100646	 -0.372896
C	 -0.981836	 -0.579025	 1.418506
H	 -0.609333	 -0.970024	 -2.010649
H	 -1.950451	 -1.487353	 -1.013175
H	 -0.360848	 -2.161259	 -0.746463
H	 -1.232203	 1.461623	 -1.364827
H	 -2.524364	 0.834451	 -0.354500
H	 -1.312381	 1.914833	 0.318657
H	 -2.035706	 -0.826342	 1.468082
H	 -0.425078	 -1.458934	 1.716857
H	 -0.788494	 0.205047	 2.140903
H	 1.206025	 1.857994	 1.373450
H	 2.254935	 1.876425	 -0.037595
H	 0.576150	 2.423744	 -0.154659

	symmetry c1
}
set optking {
	frozen_dihedral = ("
		1 2 3 5
	")
}

ee = optimize('scf')
oeprop('DIPOLE', 'QUADRUPOLE', 'MULLIKEN_CHARGES')
f=open( 'psi4out.xyz', 'w' )
f.write( "19  " )
f.write( str(ee) + "\n" )
f.write( MOL.save_string_xyz() )
f.close()
--------------------------------------------------------------------------

    Molecular point group: c1
  Charge       = 0
  Multiplicity = 1
  Basis Set: CC-PVTZ
  Basis Set:
  @DF-RHF Final Energy:  -309.17027738637472
    Total Energy =                       -309.1702773863743232
    Molecular point group: c1
  Basis Set: CC-PVTZ
  Basis Set:
  Basis Set: CC-PVTZ
  Basis Set:
  @DF-RHF Final Energy:  -309.17091461869899
    Total Energy =                       -309.1709146186992712
  Basis Set: CC-PVTZ
  Basis Set:
  Basis Set: CC-PVTZ
  Basis Set:
  @DF-RHF Final Energy:  -309.17269213186177
    Total Energy =                       -309.1726921318622772
  Basis Set: CC-PVTZ
  Basis Set:
  Basis Set: CC-PVTZ
  Basis Set:
  @DF-RHF Final Energy:  -309.17268298373068
    Total Energy =                       -309.1726829837309083
  Basis Set: CC-PVTZ
  Basis Set:
  @DF-RHF Final Energy:  -309.17335334916379
    Total Energy =                       -309.1733533491632784
  @DF-RHF Final Energy:  -309.17379111571910
    Total Energy =                       -309.1737911157188137
  @DF-RHF Final Energy:  -309.17386549934508
    Total Energy =                       -309.1738654993448563
  @DF-RHF Final Energy:  -309.17393045743188
    Total Energy =                       -309.1739304574318794
  Basis Set: CC-PVTZ
  Basis Set:
  @DF-RHF Final Energy:  -309.17394539731873
    Total Energy =                       -309.1739453973189029
  Basis Set: CC-PVTZ
  Basis Set:
  Basis Set: CC-PVTZ
  Basis Set:
  @DF-RHF Final Energy:  -309.17393727798390
    Total Energy =                       -309.1739372779838959
  Basis Set: CC-PVTZ
  Basis Set:
  Basis Set: CC-PVTZ
  Basis Set:
  @DF-RHF Final Energy:  -309.17394794255125
    Total Energy =                       -309.1739479425511945
  Basis Set: CC-PVTZ
  Basis Set:
  Charge       = 0
  Multiplicity = 1
  Basis Set: CC-PVTZ
  Basis Set:

    Orbital Energies (a.u.)
    -----------------------

    Doubly Occupied:

       1A    -20.536973     2A    -11.318060     3A    -11.245653
       4A    -11.225613     5A    -11.221251     6A    -11.220867
       7A    -11.207919     8A     -1.398317     9A     -1.110351
      10A     -1.003854    11A     -0.946545    12A     -0.936841
      13A     -0.835077    14A     -0.705582    15A     -0.666778
      16A     -0.634106    17A     -0.622865    18A     -0.595011
      19A     -0.590390    20A     -0.568639    21A     -0.547978
      22A     -0.546584    23A     -0.525381    24A     -0.514154
      25A     -0.503047    26A     -0.472694    27A     -0.466150
      28A     -0.394160

  @DF-RHF Final Energy:  -309.17394795833206

   => Energetics <=

    Nuclear Repulsion Energy =            326.9192478138720617
    One-Electron Energy =               -1067.0647131382502266
    Two-Electron Energy =                 430.9715173660459868
    DFT Exchange-Correlation Energy =       0.0000000000000000
    Empirical Dispersion Energy =           0.0000000000000000
    PCM Polarization Energy =               0.0000000000000000
    EFP Energy =                            0.0000000000000000
    Total Energy =                       -309.1739479583321781
    Molecular point group: c1
  Basis Set: CC-PVTZ
  Basis Set:

  -Total Gradient:
     Atom            X                  Y                   Z
    ------   -----------------  -----------------  -----------------
       1        0.000091019208    -0.000291723048     0.001158317029
       2       -0.000180776040     0.000576950461    -0.001820290724
       3        0.000245862993    -0.000865841156     0.001263563167
       4       -0.000009354547     0.000002138492    -0.000006506611
       5       -0.000149785846     0.000568182690    -0.000610579194
       6        0.000005737660    -0.000000079453     0.000004451825
       7        0.000001794777     0.000003744313     0.000002600192
       8        0.000000002278    -0.000001690056    -0.000002027413
       9        0.000001936009     0.000001599426     0.000000999660
      10        0.000000351153    -0.000001437737     0.000000114399
      11        0.000000683992    -0.000000909026     0.000000405411
      12        0.000000392674    -0.000000500941     0.000000278373
      13        0.000002003879     0.000005103541     0.000002888459
      14        0.000000528317    -0.000000155966    -0.000000798284
      15        0.000000528815     0.000002477154    -0.000002160307
      16       -0.000000944705    -0.000001041486     0.000002617422
      17       -0.000005542407     0.000003966150     0.000003598913
      18       -0.000002915251    -0.000004138600     0.000001450562
      19       -0.000001522958     0.000003355245     0.000001077121

  **** Optimization is complete! (in 12 steps) ****
    Final optimized geometry and variables:
    Molecular point group: c1

    Geometry (in Angstrom), charge = 0, multiplicity = 1:

    O            1.703220202625    -0.632634570281    -0.321253500868
    C            0.883944668286     0.185668448053    -0.054149137095
    C           -0.607455674937    -0.182413010401    -0.011453425265
    C            1.310882106531     1.592794757245     0.307200622246
    C           -0.876161085935    -1.316805343506    -1.004759073684
    C           -1.510253687960     1.011582006447    -0.348597176218
    C           -0.900239421535    -0.664766795324     1.420536748247
    H           -0.667357025086    -1.002656338276    -2.020842699964
    H           -1.917459910669    -1.614220025475    -0.952362616975
    H           -0.259651215758    -2.177331918358    -0.792572769436
    H           -1.299928434600     1.402770941107    -1.337956327007
    H           -2.547004482475     0.697482881482    -0.336367430969
    H           -1.408166379853     1.821485674804     0.362324913057
    H           -1.942203985301    -0.949883628463     1.507890442643
    H           -0.290952516608    -1.524170451985     1.669604794635
    H           -0.709128431587     0.110262837392     2.154591045783
    H            0.858405240391     1.917301397314     1.235972227310
    H            2.385792960788     1.617904957386     0.395991907405
    H            0.999386272449     2.287033484963    -0.464320693826

  Mulliken Charges: (a.u.)
   Center  Symbol    Alpha    Beta     Spin     Total
       1     O     4.17847  4.17847  0.00000 -0.35695
       2     C     2.84975  2.84975  0.00000  0.30050
       3     C     3.00709  3.00709  0.00000 -0.01418
       4     C     3.16457  3.16457  0.00000 -0.32915
       5     C     3.15183  3.15183  0.00000 -0.30366
       6     C     3.16532  3.16532  0.00000 -0.33064
       7     C     3.15563  3.15563  0.00000 -0.31126
       8     H     0.44909  0.44909  0.00000  0.10183
       9     H     0.45160  0.45160  0.00000  0.09680
      10     H     0.43606  0.43606  0.00000  0.12788
      11     H     0.44409  0.44409  0.00000  0.11182
      12     H     0.44264  0.44264  0.00000  0.11473
      13     H     0.44565  0.44565  0.00000  0.10870
      14     H     0.44681  0.44681  0.00000  0.10637
      15     H     0.43965  0.43965  0.00000  0.12069
      16     H     0.44748  0.44748  0.00000  0.10505
      17     H     0.44636  0.44636  0.00000  0.10728
      18     H     0.43175  0.43175  0.00000  0.13651
      19     H     0.44616  0.44616  0.00000  0.10768

   Total alpha = 28.00000, Total beta = 28.00000, Total charge =  0.00000
