  ==> Input File <==

--------------------------------------------------------------------------
set {
	reference rhf
	basis 6-31G*
}

set_num_threads( 4 )
memory 2 gb

molecule MOL {
0 1

H	 3.463771	 0.168298	 -0.756243
C	 2.752674	 -0.045734	 0.033351
C	 1.322923	 0.120767	 -0.479465
H	 2.934561	 -1.059086	 0.377456
H	 2.958358	 0.631174	 0.856809
C	 0.306652	 -0.176050	 0.621399
H	 1.144658	 -0.551717	 -1.312180
H	 1.166477	 1.131798	 -0.836680
N	 -1.068537	 -0.011044	 0.085269
H	 0.372515	 -1.192590	 0.973735
H	 0.391664	 0.520566	 1.441230
O	 -1.431628	 1.095740	 -0.168831
O	 -1.728680	 -0.999100	 -0.024183

	symmetry c1
}
set optking {
	frozen_dihedral = ("
		12 9 6 3
	")
}

ee = optimize('scf')
oeprop('DIPOLE', 'QUADRUPOLE', 'MULLIKEN_CHARGES')
f=open( 'psi4out.xyz', 'w' )
f.write( "13  " )
f.write( str(ee) + "\n" )
f.write( MOL.save_string_xyz() )
f.close()
--------------------------------------------------------------------------

    Molecular point group: c1
  Charge       = 0
  Multiplicity = 1
  Basis Set: 6-31G*
  Basis Set:
  @DF-RHF Final Energy:  -321.73533837305922
    Total Energy =                       -321.7353383730594487
    Molecular point group: c1
  Basis Set: 6-31G*
  Basis Set:
  Basis Set: 6-31G*
  Basis Set:
  @DF-RHF Final Energy:  -321.73152169200608
    Total Energy =                       -321.7315216920061971
  Basis Set: 6-31G*
  Basis Set:
  Basis Set: 6-31G*
  Basis Set:
  @DF-RHF Final Energy:  -321.73548699504141
    Total Energy =                       -321.7354869950412422
  Basis Set: 6-31G*
  Basis Set:
  Basis Set: 6-31G*
  Basis Set:
  @DF-RHF Final Energy:  -321.73556755370703
    Total Energy =                       -321.7355675537070283
  Basis Set: 6-31G*
  Basis Set:
  Basis Set: 6-31G*
  Basis Set:
  @DF-RHF Final Energy:  -321.73554988956215
    Total Energy =                       -321.7355498895619235
  Basis Set: 6-31G*
  Basis Set:
  Charge       = 0
  Multiplicity = 1
  Basis Set: 6-31G*
  Basis Set:

    Orbital Energies (a.u.)
    -----------------------

    Doubly Occupied:

       1A    -20.602498     2A    -20.598967     3A    -15.847085
       4A    -11.299330     5A    -11.256339     6A    -11.239758
       7A     -1.630689     8A     -1.416175     9A     -1.135109
      10A     -1.028410    11A     -0.884242    12A     -0.832503
      13A     -0.758734    14A     -0.735550    15A     -0.723282
      16A     -0.671170    17A     -0.604706    18A     -0.587865
      19A     -0.550806    20A     -0.522015    21A     -0.513987
      22A     -0.483927    23A     -0.473586    24A     -0.448045

  @DF-RHF Final Energy:  -321.73557434573320

   => Energetics <=

    Nuclear Repulsion Energy =            247.3570653602467928
    One-Electron Energy =                -928.4957200964532831
    Two-Electron Energy =                 359.4030803904734057
    DFT Exchange-Correlation Energy =       0.0000000000000000
    Empirical Dispersion Energy =           0.0000000000000000
    PCM Polarization Energy =               0.0000000000000000
    EFP Energy =                            0.0000000000000000
    Total Energy =                       -321.7355743457330846
    Molecular point group: c1
  Basis Set: 6-31G*
  Basis Set:

  -Total Gradient:
     Atom            X                  Y                   Z
    ------   -----------------  -----------------  -----------------
       1        0.000003322002     0.000000895322    -0.000000408251
       2       -0.000005402610    -0.000001292820    -0.000002113037
       3        0.000007426350     0.000019823075    -0.000002424487
       4        0.000001793238     0.000003368080    -0.000001640583
       5       -0.000001580940    -0.000000805808     0.000001675029
       6        0.000009293029    -0.000003179770    -0.000069396064
       7        0.000019907339     0.000001306782    -0.000026933338
       8       -0.000017267497    -0.000018142555     0.000027974829
       9       -0.000131019844     0.000190542525     0.000128059957
      10       -0.000028536524     0.000011210105    -0.000024135339
      11        0.000001454933     0.000005048664     0.000030909645
      12        0.000136016659    -0.000090552861    -0.000050691759
      13        0.000004593870    -0.000118220737    -0.000010876602

  **** Optimization is complete! (in 6 steps) ****
    Final optimized geometry and variables:
    Molecular point group: c1

    Geometry (in Angstrom), charge = 0, multiplicity = 1:

    H            3.466944633502     0.167474244866    -0.767588411375
    C            2.756070517324    -0.044349628511     0.022804167625
    C            1.326183606560     0.124512004089    -0.489092046885
    H            2.937029991727    -1.057358055401     0.368454479707
    H            2.963675922380     0.633470054895     0.845120546896
    C            0.311813981378    -0.169357928696     0.613305562175
    H            1.147743120097    -0.549196706439    -1.321290711694
    H            1.170579261150     1.134180982134    -0.848234976036
    N           -1.069248751873    -0.012476261195     0.087957268203
    H            0.380718594537    -1.181126308229     0.977649253016
    H            0.396956021802     0.534523629613     1.428107186266
    O           -1.427199410748     1.097844889474    -0.164132654325
    O           -1.718626937493    -0.999965441295    -0.066155544021

  Mulliken Charges: (a.u.)
   Center  Symbol    Alpha    Beta     Spin     Total
       1     H     0.40732  0.40732  0.00000  0.18536
       2     C     3.24832  3.24832  0.00000 -0.49664
       3     C     3.17285  3.17285  0.00000 -0.34569
       4     H     0.41481  0.41481  0.00000  0.17039
       5     H     0.41482  0.41482  0.00000  0.17036
       6     C     3.08394  3.08394  0.00000 -0.16789
       7     H     0.40291  0.40291  0.00000  0.19417
       8     H     0.39524  0.39524  0.00000  0.20953
       9     N     3.22331  3.22331  0.00000  0.55338
      10     H     0.38705  0.38705  0.00000  0.22590
      11     H     0.38900  0.38900  0.00000  0.22200
      12     O     4.23159  4.23159  0.00000 -0.46319
      13     O     4.22884  4.22884  0.00000 -0.45768

   Total alpha = 24.00000, Total beta = 24.00000, Total charge = -0.00000
