                              Psi4 1.0.54 Driver

  ==> Input File <==

--------------------------------------------------------------------------
set {
	reference rhf
	basis cc-pvtz
}

set_num_threads( 4 )
memory 2 gb

molecule MOL {
0 1

O	 -2.071633	 -1.227563	 -0.223463
C	 -1.652164	 -0.152425	 0.058082
C	 -0.327811	 0.006324	 0.778296
C	 -2.402515	 1.108629	 -0.298924
C	 0.843231	 -0.001575	 -0.211665
H	 -0.319484	 0.928173	 1.350354
H	 -0.227804	 -0.823091	 1.466705
C	 1.943856	 0.983943	 0.169919
H	 0.482804	 0.234287	 -1.209741
H	 1.251431	 -1.005341	 -0.258491
C	 3.116325	 0.970535	 -0.804915
H	 1.528087	 1.986451	 0.221275
H	 2.301402	 0.749649	 1.168321
H	 2.796038	 1.235636	 -1.806999
H	 3.572814	 -0.012121	 -0.853623
H	 3.881830	 1.676617	 -0.505162
H	 -3.240910	 0.874416	 -0.936711
H	 -1.747554	 1.818823	 -0.790984
H	 -2.760419	 1.579708	 0.610998

	symmetry c1
}
set optking {
	frozen_dihedral = ("
		9 5 3 2
	")
}

ee,wfn = optimize('scf', return_wfn=True)
oeprop( wfn, 'DIPOLE', 'QUADRUPOLE', 'MULLIKEN_CHARGES')
f=open( 'psi4out.xyz', 'w' )
f.write( "19  " )
f.write( str(ee) + "\n" )
f.write( MOL.save_string_xyz() )
f.close()
--------------------------------------------------------------------------

    Molecular point group: c1
  Charge       = 0
  Multiplicity = 1
  Basis Set: CC-PVTZ
  Basis Set:
  @DF-RHF Final Energy:  -309.17322915364366
    Total Energy =                       -309.1732291536436037
    Molecular point group: c1
  Basis Set: CC-PVTZ
  Basis Set:
  Basis Set: CC-PVTZ
  Basis Set:
  @DF-RHF Final Energy:  -309.17344779594231
    Total Energy =                       -309.1734477959421383
  Basis Set: CC-PVTZ
  Basis Set:
  Basis Set: CC-PVTZ
  Basis Set:
  @DF-RHF Final Energy:  -309.17368607144789
    Total Energy =                       -309.1736860714478325
  Basis Set: CC-PVTZ
  Basis Set:
  Basis Set: CC-PVTZ
  Basis Set:
  @DF-RHF Final Energy:  -309.17375249088639
    Total Energy =                       -309.1737524908865566
  Basis Set: CC-PVTZ
  Basis Set:
  Basis Set: CC-PVTZ
  Basis Set:
  @DF-RHF Final Energy:  -309.17377925380885
    Total Energy =                       -309.1737792538086751
  Basis Set: CC-PVTZ
  Basis Set:
  Basis Set: CC-PVTZ
  Basis Set:
  @DF-RHF Final Energy:  -309.17378806170024
    Total Energy =                       -309.1737880616999519
  Basis Set: CC-PVTZ
  Basis Set:
  Basis Set: CC-PVTZ
  Basis Set:
  @DF-RHF Final Energy:  -309.17379159831722
    Total Energy =                       -309.1737915983170524
  Basis Set: CC-PVTZ
  Basis Set:
  Charge       = 0
  Multiplicity = 1
  Basis Set: CC-PVTZ
  Basis Set:

    Orbital Energies (a.u.)
    -----------------------

    Doubly Occupied:

       1A    -20.536525     2A    -11.319235     3A    -11.230613
       4A    -11.228067     5A    -11.226912     6A    -11.225581
       7A    -11.214898     8A     -1.396446     9A     -1.093575
      10A     -1.031193    11A     -0.983770    12A     -0.893618
      13A     -0.810543    14A     -0.735474    15A     -0.661617
      16A     -0.649416    17A     -0.623696    18A     -0.615365
      19A     -0.585376    20A     -0.576878    21A     -0.552535
      22A     -0.539404    23A     -0.512603    24A     -0.506647
      25A     -0.484292    26A     -0.476201    27A     -0.470203
      28A     -0.399091

  @DF-RHF Final Energy:  -309.17379216446358

   => Energetics <=

    Nuclear Repulsion Energy =            302.5812564244933469
    One-Electron Energy =               -1018.3505432445276710
    Two-Electron Energy =                 406.5954946555706329
    DFT Exchange-Correlation Energy =       0.0000000000000000
    Empirical Dispersion Energy =           0.0000000000000000
    PCM Polarization Energy =               0.0000000000000000
    EFP Energy =                            0.0000000000000000
    Total Energy =                       -309.1737921644636344
    Molecular point group: c1
  Basis Set: CC-PVTZ
  Basis Set:

  -Total Gradient:
     Atom            X                  Y                   Z
    ------   -----------------  -----------------  -----------------
       1       -0.000001868097    -0.000011498364     0.000007677528
       2       -0.000331468625     0.002590885502    -0.000088962215
       3        0.000368222642    -0.004473053864    -0.000141815773
       4       -0.000014471495     0.000014041551     0.000034171796
       5        0.000376077135     0.005367231719     0.001023659286
       6       -0.000021804156     0.000008058958     0.000002266729
       7       -0.000003359979    -0.000000426942     0.000012402034
       8        0.000020312711     0.000002759722     0.000002866863
       9       -0.000396076522    -0.003551559427    -0.000828519312
      10        0.000003174514     0.000007145044     0.000001861221
      11        0.000004539481    -0.000001425281     0.000002282266
      12       -0.000011636653     0.000004143483    -0.000000637515
      13        0.000001017897    -0.000000827438     0.000007241520
      14        0.000001446855     0.000000607002    -0.000005170920
      15        0.000007515012    -0.000003243945    -0.000003451637
      16        0.000008417396     0.000004119394    -0.000002169040
      17       -0.000013069316    -0.000005898778    -0.000011246640
      18        0.000016516486     0.000019681580    -0.000018671385
      19       -0.000013485287     0.000029260085     0.000006215194

  **** Optimization is complete! (in 8 steps) ****
    Final optimized geometry and variables:
    Molecular point group: c1

    Geometry (in Angstrom), charge = 0, multiplicity = 1:

    O           -2.053299966039    -1.533966751817    -0.031922458863
    C           -1.579174716893    -0.458888162781     0.143161800986
    C           -0.253531284669    -0.280069992787     0.851839642750
    C           -2.271798166783     0.795936536831    -0.337523572222
    C            0.915534612424    -0.176939542007    -0.151816780719
    H           -0.298956434005     0.625343804679     1.448865021228
    H           -0.108541112036    -1.115856619024     1.521115547749
    C            2.011085738755     0.789099597384     0.285899398332
    H            0.546862360769     0.097710600512    -1.135969084924
    H            1.339055825208    -1.166700899618    -0.282776060274
    C            3.193535608082     0.824258630455    -0.675650983747
    H            1.591931097745     1.787015346765     0.381617818529
    H            2.357839316119     0.508526074782     1.276638894687
    H            2.881263151966     1.127934133026    -1.669287851080
    H            3.658109335345    -0.152145804136    -0.760332439816
    H            3.950468576820     1.522896335314    -0.339027931073
    H           -3.074272944406     0.540036643338    -1.012246855587
    H           -1.575984548361     1.469562101049    -0.823348591816
    H           -2.680434681478     1.319220772264     0.521269496726

  Mulliken Charges: (a.u.)
   Center  Symbol    Alpha    Beta     Spin     Total
       1     O     4.17677  4.17677  0.00000 -0.35354
       2     C     2.85723  2.85723  0.00000  0.28553
       3     C     3.09828  3.09828  0.00000 -0.19656
       4     C     3.15699  3.15699  0.00000 -0.31399
       5     C     3.10146  3.10146  0.00000 -0.20292
       6     H     0.45115  0.45115  0.00000  0.09769
       7     H     0.43733  0.43733  0.00000  0.12534
       8     C     3.08615  3.08615  0.00000 -0.17230
       9     H     0.44938  0.44938  0.00000  0.10124
      10     H     0.44126  0.44126  0.00000  0.11749
      11     C     3.14957  3.14957  0.00000 -0.29915
      12     H     0.45489  0.45489  0.00000  0.09023
      13     H     0.45107  0.45107  0.00000  0.09787
      14     H     0.45442  0.45442  0.00000  0.09116
      15     H     0.45295  0.45295  0.00000  0.09410
      16     H     0.44728  0.44728  0.00000  0.10544
      17     H     0.43563  0.43563  0.00000  0.12873
      18     H     0.45085  0.45085  0.00000  0.09831
      19     H     0.44734  0.44734  0.00000  0.10532

   Total alpha = 28.00000, Total beta = 28.00000, Total charge = -0.00000

*** Psi4 exiting successfully. Buy a developer a beer!
