                              Psi4 1.0.54 Driver

  ==> Input File <==

--------------------------------------------------------------------------
set {
	reference rhf
	basis cc-pvtz
}

set_num_threads( 4 )
memory 2 gb

molecule MOL {
0 1

O	 -2.817697	 1.304178	 0.001046
C	 -2.664672	 0.129869	 0.003507
C	 -3.797908	 -0.860100	 -0.001145
O	 -1.481217	 -0.452708	 0.001092
H	 -4.408836	 -0.679689	 -0.875387
H	 -3.443486	 -1.878443	 -0.002770
H	 -4.412123	 -0.683688	 0.871605
C	 -0.332055	 0.384012	 -0.000250
C	 0.892252	 -0.506059	 -0.000295
H	 -0.360822	 1.020205	 -0.874146
H	 -0.359817	 1.021310	 0.872861
C	 0.735360	 -1.698883	 -0.938868
H	 1.075562	 -0.852303	 1.011724
H	 1.755813	 0.083341	 -0.291045
C	 1.958798	 -2.611042	 -0.955885
H	 -0.137435	 -2.277640	 -0.646897
H	 0.541124	 -1.343274	 -1.947723
C	 1.802893	 -3.802504	 -1.894565
H	 2.152865	 -2.968447	 0.051417
H	 2.831593	 -2.033826	 -1.247668
H	 0.957593	 -4.418920	 -1.607609
H	 2.687292	 -4.428777	 -1.883300
H	 1.641252	 -3.477043	 -2.916720

	symmetry c1
}
set optking {
	frozen_dihedral = ("
		13 9 8 10
	")
}

ee,wfn = optimize('scf', return_wfn=True)
oeprop( wfn, 'DIPOLE', 'QUADRUPOLE', 'MULLIKEN_CHARGES')
f=open( 'psi4out.xyz', 'w' )
f.write( "23  " )
f.write( str(ee) + "\n" )
f.write( MOL.save_string_xyz() )
f.close()
--------------------------------------------------------------------------

    Molecular point group: c1
  Charge       = 0
  Multiplicity = 1
  Basis Set: CC-PVTZ
  Basis Set:
  @DF-RHF Final Energy:  -423.13105444209452
    Total Energy =                       -423.1310544420948645
    Molecular point group: c1
  Basis Set: CC-PVTZ
  Basis Set:
  Basis Set: CC-PVTZ
  Basis Set:
  @DF-RHF Final Energy:  -423.13158551888637
    Total Energy =                       -423.1315855188859132
  Basis Set: CC-PVTZ
  Basis Set:
  Basis Set: CC-PVTZ
  Basis Set:
  @DF-RHF Final Energy:  -423.13258721895153
    Total Energy =                       -423.1325872189512438
  Basis Set: CC-PVTZ
  Basis Set:
  Basis Set: CC-PVTZ
  Basis Set:
  @DF-RHF Final Energy:  -423.13253011621930
    Total Energy =                       -423.1325301162191863
  Basis Set: CC-PVTZ
  Basis Set:
  Basis Set: CC-PVTZ
  Basis Set:
  @DF-RHF Final Energy:  -423.13274770912130
    Total Energy =                       -423.1327477091209630
  Basis Set: CC-PVTZ
  Basis Set:
  Basis Set: CC-PVTZ
  Basis Set:
  @DF-RHF Final Energy:  -423.13275355740609
    Total Energy =                       -423.1327535574056355
  Basis Set: CC-PVTZ
  Basis Set:
  Charge       = 0
  Multiplicity = 1
  Basis Set: CC-PVTZ
  Basis Set:

    Orbital Energies (a.u.)
    -----------------------

    Doubly Occupied:

       1A    -20.596817     2A    -20.530347     3A    -11.367275
       4A    -11.280024     5A    -11.231477     6A    -11.223647
       7A    -11.217224     8A    -11.215975     9A    -11.209343
      10A     -1.472219    11A     -1.365022    12A     -1.092226
      13A     -1.042319    14A     -1.003721    15A     -0.932309
      16A     -0.844494    17A     -0.805892    18A     -0.771899
      19A     -0.691665    20A     -0.688349    21A     -0.670323
      22A     -0.644638    23A     -0.607636    24A     -0.588394
      25A     -0.581143    26A     -0.569445    27A     -0.560754
      28A     -0.532407    29A     -0.529993    30A     -0.513357
      31A     -0.492031    32A     -0.475161    33A     -0.467663
      34A     -0.460676    35A     -0.450110    36A     -0.441644

  @DF-RHF Final Energy:  -423.13275411368892

   => Energetics <=

    Nuclear Repulsion Energy =            459.6158994922638499
    One-Electron Energy =               -1487.1620734769796854
    Two-Electron Energy =                 604.4134198710269175
    DFT Exchange-Correlation Energy =       0.0000000000000000
    Empirical Dispersion Energy =           0.0000000000000000
    PCM Polarization Energy =               0.0000000000000000
    EFP Energy =                            0.0000000000000000
    Total Energy =                       -423.1327541136888613
    Molecular point group: c1
  Basis Set: CC-PVTZ
  Basis Set:

  -Total Gradient:
     Atom            X                  Y                   Z
    ------   -----------------  -----------------  -----------------
       1       -0.000033992819     0.000158272193    -0.000062857086
       2        0.000097273904    -0.000115652110     0.000086344422
       3        0.000038639054     0.000021445332    -0.000055885885
       4       -0.000107933251    -0.000102617652    -0.000028723079
       5       -0.000031584137     0.000015511625    -0.000036872103
       6        0.000025142316    -0.000068987912    -0.000000020029
       7       -0.000008297873     0.000026698299     0.000067337588
       8       -0.002530474420    -0.003337615259    -0.002716234891
       9       -0.002861042027    -0.003835906159    -0.000292820425
      10        0.002541512012     0.003452008944     0.002358485651
      11        0.000030468002     0.000002140221    -0.000031725725
      12       -0.000001234067    -0.000043482652    -0.000060682455
      13        0.002872785938     0.003802170946     0.000794059295
      14       -0.000042955435    -0.000011848809    -0.000006062861
      15        0.000007021881    -0.000001130303     0.000016085802
      16       -0.000003740382     0.000002536425    -0.000000288475
      17        0.000002386656    -0.000007116341    -0.000034975680
      18       -0.000025179119     0.000037143357    -0.000003899261
      19        0.000005745341    -0.000002847074     0.000019649253
      20        0.000035582058     0.000015776401    -0.000021331920
      21       -0.000031877683    -0.000017042773     0.000009811273
      22        0.000019259688     0.000006843003     0.000018258952
      23        0.000002494364     0.000003700304    -0.000017652360

  **** Optimization is complete! (in 7 steps) ****
    Final optimized geometry and variables:
    Molecular point group: c1

    Geometry (in Angstrom), charge = 0, multiplicity = 1:

    O           -2.152690256136     2.268960797280     0.370453199777
    C           -2.067171941640     1.089657060517     0.434300783723
    C           -3.255377427656     0.168918160166     0.504852733795
    O           -0.918863419771     0.440202861448     0.450260318536
    H           -3.867193411843     0.329430333446    -0.372816874086
    H           -2.960766000632    -0.866785883534     0.564013385353
    H           -3.845868885243     0.435633762820     1.371155640293
    C            0.273247913868     1.208258302228     0.391669480136
    C            1.478888544169     0.286760435912     0.430572909657
    H            0.274669288523     1.824754403470    -0.496972943107
    H            0.291122183863     1.885913533316     1.234209210926
    C            1.428133025292    -0.891706505498    -0.535801992438
    H            1.649299080843    -0.048719658276     1.448919763008
    H            2.338316302153     0.908088361584     0.189997380738
    C            2.716868418368    -1.709144281765    -0.537823681471
    H            0.593675765001    -1.534547315998    -0.281225970610
    H            1.234813373652    -0.522630489020    -1.540603381597
    C            2.667930028333    -2.896621011234    -1.493196822639
    H            2.916582722378    -2.065704949047     0.469094790166
    H            3.552045015728    -1.067053404424    -0.804445429505
    H            1.864332560592    -3.576661170095    -1.230900277672
    H            3.595626976699    -3.456734031687    -1.470912245474
    H            2.503017830173    -2.570493382210    -2.514755745862

  Mulliken Charges: (a.u.)
   Center  Symbol    Alpha    Beta     Spin     Total
       1     O     4.20258  4.20258  0.00000 -0.40516
       2     C     2.81117  2.81117  0.00000  0.37767
       3     C     3.13962  3.13962  0.00000 -0.27923
       4     O     4.14640  4.14640  0.00000 -0.29279
       5     H     0.44199  0.44199  0.00000  0.11602
       6     H     0.44221  0.44221  0.00000  0.11557
       7     H     0.44167  0.44167  0.00000  0.11666
       8     C     2.99282  2.99282  0.00000  0.01435
       9     C     3.09155  3.09155  0.00000 -0.18311
      10     H     0.45072  0.45072  0.00000  0.09856
      11     H     0.44656  0.44656  0.00000  0.10687
      12     C     3.08587  3.08587  0.00000 -0.17173
      13     H     0.45037  0.45037  0.00000  0.09925
      14     H     0.45330  0.45330  0.00000  0.09341
      15     C     3.08597  3.08597  0.00000 -0.17195
      16     H     0.44576  0.44576  0.00000  0.10847
      17     H     0.45535  0.45535  0.00000  0.08930
      18     C     3.14950  3.14950  0.00000 -0.29900
      19     H     0.45411  0.45411  0.00000  0.09178
      20     H     0.45454  0.45454  0.00000  0.09091
      21     H     0.45496  0.45496  0.00000  0.09008
      22     H     0.44809  0.44809  0.00000  0.10382
      23     H     0.45488  0.45488  0.00000  0.09025

   Total alpha = 36.00000, Total beta = 36.00000, Total charge = -0.00000

*** Psi4 exiting successfully. Buy a developer a beer!
