  ==> Input File <==

--------------------------------------------------------------------------
set {
	reference rhf
	basis 6-31G*
}

set_num_threads( 1 )
memory 2 gb

molecule MOL {
0 1

H	 -3.006072	 -2.992348	 0.273062
O	 -2.780768	 -2.138066	 -0.066563
C	 -1.505730	 -1.768689	 0.392163
C	 -1.177863	 -0.397191	 -0.171080
H	 -1.483752	 -1.739786	 1.480735
H	 -0.758163	 -2.492394	 0.070084
C	 0.198102	 0.111031	 0.262842
H	 -1.950906	 0.296881	 0.147351
H	 -1.233421	 -0.450468	 -1.254847
C	 1.331804	 -0.827780	 -0.158768
H	 0.361943	 1.100838	 -0.156218
H	 0.217265	 0.229072	 1.345532
C	 2.723619	 -0.410569	 0.329459
H	 1.342964	 -0.912588	 -1.244120
H	 1.116806	 -1.824343	 0.220779
C	 3.243875	 0.895854	 -0.272975
H	 3.424222	 -1.207124	 0.091250
H	 2.714788	 -0.329854	 1.414619
H	 3.251977	 0.848779	 -1.358681
H	 2.637085	 1.747371	 0.016682
H	 4.259473	 1.094070	 0.055697

	symmetry c1
}
set optking {
	frozen_dihedral = ("
		2 3 4 8,
		4 7 10 14,
		16 13 10 14,
		1 2 3 5
	")
}

ee = energy('scf')
oeprop('DIPOLE', 'QUADRUPOLE', 'MULLIKEN_CHARGES')
f=open( 'psi4out.xyz', 'w' )
f.write( "21  " )
f.write( str(ee) + "\n" )
f.write( MOL.save_string_xyz() )
f.close()
--------------------------------------------------------------------------

    Molecular point group: c1

    Geometry (in Angstrom), charge = 0, multiplicity = 1:

       Center              X                  Y                   Z               Mass
    ------------   -----------------  -----------------  -----------------  -----------------
           H         -3.243740291800    -2.310202514418     0.227759670728     1.007825032070
           O         -3.018436291800    -1.455920514418    -0.111865329272    15.994914619560
           C         -1.743398291800    -1.086543514418     0.346860670728    12.000000000000
           C         -1.415531291800     0.284954485582    -0.216382329272    12.000000000000
           H         -1.721420291800    -1.057640514418     1.435432670728     1.007825032070
           H         -0.995831291800    -1.810248514418     0.024781670728     1.007825032070
           C         -0.039566291800     0.793176485582     0.217539670728    12.000000000000
           H         -2.188574291800     0.979026485582     0.102048670728     1.007825032070
           H         -1.471089291800     0.231677485582    -1.300149329272     1.007825032070
           C          1.094135708200    -0.145634514418    -0.204070329272    12.000000000000
           H          0.124274708200     1.782983485582    -0.201520329272     1.007825032070
           H         -0.020403291800     0.911217485582     1.300229670728     1.007825032070
           C          2.485950708200     0.271576485582     0.284156670728    12.000000000000
           H          1.105295708200    -0.230442514418    -1.289422329272     1.007825032070
           H          0.879137708200    -1.142197514418     0.175476670728     1.007825032070
           C          3.006206708200     1.577999485582    -0.318277329272    12.000000000000
           H          3.186553708200    -0.524978514418     0.045947670728     1.007825032070
           H          2.477119708200     0.352291485582     1.369316670728     1.007825032070
           H          3.014308708200     1.530924485582    -1.403983329272     1.007825032070
           H          2.399416708200     2.429516485582    -0.028620329272     1.007825032070
           H          4.021804708200     1.776215485582     0.010394670728     1.007825032070

  Charge       = 0
  Multiplicity = 1
  Basis Set: 6-31G*
  Basis Set:

    Orbital Energies (a.u.)
    -----------------------

    Doubly Occupied:

       1A    -20.551325     2A    -11.265842     3A    -11.216254
       4A    -11.215679     5A    -11.214352     6A    -11.210680
       7A    -11.208617     8A     -1.358133     9A     -1.088803
      10A     -1.032621    11A     -0.950003    12A     -0.884330
      13A     -0.812534    14A     -0.770750    15A     -0.696009
      16A     -0.648789    17A     -0.633801    18A     -0.609303
      19A     -0.581211    20A     -0.571663    21A     -0.535866
      22A     -0.525738    23A     -0.514024    24A     -0.489668
      25A     -0.480970    26A     -0.460544    27A     -0.452275
      28A     -0.445709    29A     -0.428199

  @DF-RHF Final Energy:  -310.20918744587908

   => Energetics <=

    Nuclear Repulsion Energy =            317.4303254217128938
    One-Electron Energy =               -1049.5717369373944621
    Two-Electron Energy =                 421.9322240698037945
    DFT Exchange-Correlation Energy =       0.0000000000000000
    Empirical Dispersion Energy =           0.0000000000000000
    PCM Polarization Energy =               0.0000000000000000
    EFP Energy =                            0.0000000000000000
    Total Energy =                       -310.2091874458777170

  Mulliken Charges: (a.u.)
   Center  Symbol    Alpha    Beta     Spin     Total
       1     H     0.28135  0.28135  0.00000  0.43729
       2     O     4.37268  4.37268  0.00000 -0.74537
       3     C     2.99194  2.99194  0.00000  0.01611
       4     C     3.15969  3.15969  0.00000 -0.31939
       5     H     0.43335  0.43335  0.00000  0.13330
       6     H     0.43016  0.43016  0.00000  0.13968
       7     C     3.16269  3.16269  0.00000 -0.32539
       8     H     0.41268  0.41268  0.00000  0.17464
       9     H     0.41501  0.41501  0.00000  0.16997
      10     C     3.15757  3.15757  0.00000 -0.31514
      11     H     0.41623  0.41623  0.00000  0.16754
      12     H     0.42402  0.42402  0.00000  0.15197
      13     C     3.15098  3.15098  0.00000 -0.30196
      14     H     0.42244  0.42244  0.00000  0.15512
      15     H     0.42199  0.42199  0.00000  0.15601
      16     C     3.24151  3.24151  0.00000 -0.48302
      17     H     0.42118  0.42118  0.00000  0.15763
      18     H     0.42367  0.42367  0.00000  0.15266
      19     H     0.42187  0.42187  0.00000  0.15626
      20     H     0.41984  0.41984  0.00000  0.16032
      21     H     0.41912  0.41912  0.00000  0.16176

   Total alpha = 29.00000, Total beta = 29.00000, Total charge = -0.00000
