                              Psi4 1.0.54 Driver

  ==> Input File <==

--------------------------------------------------------------------------
set {
	reference rhf
	basis cc-pvtz
}

set_num_threads( 4 )
memory 2 gb

molecule MOL {
0 1

H	 -2.123894	 -0.667238	 -0.609809
O	 -2.041679	 -0.058866	 0.103463
C	 -0.959304	 0.780994	 -0.094939
C	 0.354905	 0.037902	 -0.006215
H	 -0.985899	 1.279578	 -1.057596
H	 -0.969809	 1.529522	 0.682889
F	 0.974130	 0.030713	 -1.173391
F	 1.152455	 0.621478	 0.863814
F	 0.201548	 -1.210951	 0.363676

	symmetry c1
}
set optking {
	frozen_dihedral = ("
		7 4 3 5
	")
}

ee,wfn = optimize('scf', return_wfn=True)
oeprop( wfn, 'DIPOLE', 'QUADRUPOLE', 'MULLIKEN_CHARGES')
f=open( 'psi4out.xyz', 'w' )
f.write( "9  " )
f.write( str(ee) + "\n" )
f.write( MOL.save_string_xyz() )
f.close()
--------------------------------------------------------------------------

    Molecular point group: c1
  Charge       = 0
  Multiplicity = 1
  Basis Set: CC-PVTZ
  Basis Set:
  @DF-RHF Final Energy:  -450.83919871761071
    Total Energy =                       -450.8391987176107705
    Molecular point group: c1
  Basis Set: CC-PVTZ
  Basis Set:
  Basis Set: CC-PVTZ
  Basis Set:
  @DF-RHF Final Energy:  -450.83956816614773
    Total Energy =                       -450.8395681661477283
  Basis Set: CC-PVTZ
  Basis Set:
  Basis Set: CC-PVTZ
  Basis Set:
  @DF-RHF Final Energy:  -450.83997094809342
    Total Energy =                       -450.8399709480937076
  Basis Set: CC-PVTZ
  Basis Set:
  Basis Set: CC-PVTZ
  Basis Set:
  @DF-RHF Final Energy:  -450.83998151235238
    Total Energy =                       -450.8399815123524377
  Basis Set: CC-PVTZ
  Basis Set:
  Basis Set: CC-PVTZ
  Basis Set:
  @DF-RHF Final Energy:  -450.83998270484835
    Total Energy =                       -450.8399827048485804
  Basis Set: CC-PVTZ
  Basis Set:
  Charge       = 0
  Multiplicity = 1
  Basis Set: CC-PVTZ
  Basis Set:

    Orbital Energies (a.u.)
    -----------------------

    Doubly Occupied:

       1A    -26.338247     2A    -26.335942     3A    -26.335835
       4A    -20.582671     5A    -11.494900     6A    -11.310096
       7A     -1.747248     8A     -1.643977     9A     -1.640600
      10A     -1.405618    11A     -1.044523    12A     -0.929740
      13A     -0.835743    14A     -0.834461    15A     -0.811851
      16A     -0.730930    17A     -0.719032    18A     -0.704160
      19A     -0.670029    20A     -0.664751    21A     -0.647271
      22A     -0.630790    23A     -0.614745    24A     -0.529786
      25A     -0.484007

  @DF-RHF Final Energy:  -450.83998289297074

   => Energetics <=

    Nuclear Repulsion Energy =            276.4497703024316024
    One-Electron Energy =               -1175.2056034283118606
    Two-Electron Energy =                 447.9158502329094063
    DFT Exchange-Correlation Energy =       0.0000000000000000
    Empirical Dispersion Energy =           0.0000000000000000
    PCM Polarization Energy =               0.0000000000000000
    EFP Energy =                            0.0000000000000000
    Total Energy =                       -450.8399828929708519
    Molecular point group: c1
  Basis Set: CC-PVTZ
  Basis Set:

  -Total Gradient:
     Atom            X                  Y                   Z
    ------   -----------------  -----------------  -----------------
       1       -0.000005758717     0.000015518580     0.000000889584
       2        0.000034849237    -0.000019962462     0.000000885343
       3        0.000847482690     0.001653509936     0.000769675876
       4       -0.000817685882    -0.001608116122    -0.000482731654
       5       -0.000563379410    -0.001112844643    -0.000557516326
       6        0.000003344558     0.000003202394     0.000001243253
       7        0.000526808502     0.000996840494     0.000271349934
       8       -0.000024166194     0.000001644678    -0.000004319237
       9       -0.000001494785     0.000070207144     0.000000523228

  **** Optimization is complete! (in 6 steps) ****
    Final optimized geometry and variables:
    Molecular point group: c1

    Geometry (in Angstrom), charge = 0, multiplicity = 1:

    H           -2.162449366134    -0.672409269049    -0.607726140722
    O           -2.082759136591    -0.044271785524     0.087883769719
    C           -0.981977882527     0.773697266284    -0.100216364558
    C            0.358790469903     0.029557877015    -0.006661724829
    H           -1.007018568762     1.271219134879    -1.061896602101
    H           -1.000704395716     1.517588587696     0.679591506038
    F            0.984813486827     0.026287326592    -1.170552699408
    F            1.167047544624     0.611798110066     0.855444356275
    F            0.216475246430    -1.220444780173     0.361144945903

  Mulliken Charges: (a.u.)
   Center  Symbol    Alpha    Beta     Spin     Total
       1     H     0.38925  0.38925  0.00000  0.22151
       2     O     4.18406  4.18406  0.00000 -0.36813
       3     C     3.00756  3.00756  0.00000 -0.01512
       4     C     2.67981  2.67981  0.00000  0.64039
       5     H     0.46036  0.46036  0.00000  0.07928
       6     H     0.44724  0.44724  0.00000  0.10552
       7     F     4.61401  4.61401  0.00000 -0.22801
       8     F     4.61117  4.61117  0.00000 -0.22234
       9     F     4.60654  4.60654  0.00000 -0.21309

   Total alpha = 25.00000, Total beta = 25.00000, Total charge = -0.00000

*** Psi4 exiting successfully. Buy a developer a beer!
