  ==> Input File <==

--------------------------------------------------------------------------
set {
	reference rhf
	basis 6-31G*
}

set_num_threads( 1 )
memory 2 gb

molecule MOL {
0 1

O	 -0.682937	 1.318834	 -0.186099
C	 -0.860635	 0.152188	 -0.042321
C	 -2.173363	 -0.477127	 0.338347
O	 0.083258	 -0.765189	 -0.202595
H	 -2.477673	 -1.180929	 -0.427595
H	 -2.923125	 0.290956	 0.455536
H	 -2.058825	 -1.029004	 1.264191
C	 1.434266	 -0.403823	 0.074876
C	 1.750232	 -0.525444	 1.554072
H	 1.614378	 0.598234	 -0.283707
H	 2.025050	 -1.097688	 -0.505661
H	 2.802443	 -0.318004	 1.723038
H	 1.167430	 0.180394	 2.132433
H	 1.539704	 -1.528908	 1.907843

	symmetry c1
}
set optking {
	frozen_dihedral = ("
		10 8 4 2
	")
}

ee = energy('scf')
oeprop('DIPOLE', 'QUADRUPOLE', 'MULLIKEN_CHARGES')
f=open( 'psi4out.xyz', 'w' )
f.write( "14  " )
f.write( str(ee) + "\n" )
f.write( MOL.save_string_xyz() )
f.close()
--------------------------------------------------------------------------

    Molecular point group: c1

    Geometry (in Angstrom), charge = 0, multiplicity = 1:

       Center              X                  Y                   Z               Mass
    ------------   -----------------  -----------------  -----------------  -----------------
           O         -0.613850741158     1.435944696564    -0.449551934246    15.994914619560
           C         -0.791548741158     0.269298696564    -0.305773934246    12.000000000000
           C         -2.104276741158    -0.360016303436     0.074894065754    12.000000000000
           O          0.152344258842    -0.648078303436    -0.466047934246    15.994914619560
           H         -2.408586741158    -1.063818303436    -0.691047934246     1.007825032070
           H         -2.854038741158     0.408066696564     0.192083065754     1.007825032070
           H         -1.989738741158    -0.911893303436     1.000738065754     1.007825032070
           C          1.503352258842    -0.286712303436    -0.188576934246    12.000000000000
           C          1.819318258842    -0.408333303436     1.290619065754    12.000000000000
           H          1.683464258842     0.715344696564    -0.547159934246     1.007825032070
           H          2.094136258842    -0.980577303436    -0.769113934246     1.007825032070
           H          2.871529258842    -0.200893303436     1.459585065754     1.007825032070
           H          1.236516258842     0.297504696564     1.868980065754     1.007825032070
           H          1.608790258842    -1.411797303436     1.644390065754     1.007825032070

  Charge       = 0
  Multiplicity = 1
  Basis Set: 6-31G*
  Basis Set:

    Orbital Energies (a.u.)
    -----------------------

    Doubly Occupied:

       1A    -20.597584     2A    -20.546113     3A    -11.375843
       4A    -11.286946     5A    -11.233126     6A    -11.225041
       7A     -1.466115     8A     -1.363053     9A     -1.055267
      10A     -1.002423    11A     -0.884442    12A     -0.765044
      13A     -0.697579    14A     -0.682606    15A     -0.662342
      16A     -0.612311    17A     -0.589091    18A     -0.570291
      19A     -0.557791    20A     -0.536642    21A     -0.516710
      22A     -0.494545    23A     -0.450544    24A     -0.437841

  @DF-RHF Final Energy:  -305.87054132231526

   => Energetics <=

    Nuclear Repulsion Energy =            248.6025489091333611
    One-Electron Energy =                -909.7275527165077165
    Two-Electron Energy =                 355.2544624850592072
    DFT Exchange-Correlation Energy =       0.0000000000000000
    Empirical Dispersion Energy =           0.0000000000000000
    PCM Polarization Energy =               0.0000000000000000
    EFP Energy =                            0.0000000000000000
    Total Energy =                       -305.8705413223151481

  Mulliken Charges: (a.u.)
   Center  Symbol    Alpha    Beta     Spin     Total
       1     O     4.27916  4.27916  0.00000 -0.55831
       2     C     2.61996  2.61996  0.00000  0.76007
       3     C     3.28238  3.28238  0.00000 -0.56476
       4     O     4.30856  4.30856  0.00000 -0.61711
       5     H     0.39938  0.39938  0.00000  0.20124
       6     H     0.39784  0.39784  0.00000  0.20433
       7     H     0.40258  0.40258  0.00000  0.19485
       8     C     3.01069  3.01069  0.00000 -0.02138
       9     C     3.25377  3.25377  0.00000 -0.50754
      10     H     0.39807  0.39807  0.00000  0.20387
      11     H     0.40943  0.40943  0.00000  0.18113
      12     H     0.41478  0.41478  0.00000  0.17044
      13     H     0.41090  0.41090  0.00000  0.17820
      14     H     0.41251  0.41251  0.00000  0.17497

   Total alpha = 24.00000, Total beta = 24.00000, Total charge =  0.00000
