                              Psi4 1.0.54 Driver

  ==> Input File <==

--------------------------------------------------------------------------
set {
	reference rhf
	basis cc-pvtz
}

set_num_threads( 4 )
memory 2 gb

molecule MOL {
0 1

H	 3.889604	 0.356866	 -0.089510
N	 3.091268	 -0.241216	 -0.065538
C	 1.860978	 0.530248	 0.016256
H	 3.192566	 -0.835836	 0.730398
C	 0.644130	 -0.381765	 -0.031064
H	 1.835721	 1.204666	 -0.833114
H	 1.808789	 1.151975	 0.911067
C	 -0.678115	 0.376691	 0.025731
H	 0.693998	 -0.977147	 -0.936845
H	 0.693309	 -1.082142	 0.800523
C	 -1.502958	 0.061063	 1.270406
H	 -1.265211	 0.142484	 -0.859379
H	 -0.485599	 1.446440	 -0.012297
C	 -2.826856	 0.816365	 1.320274
H	 -1.695976	 -1.007312	 1.310533
H	 -0.919958	 0.297799	 2.156317
H	 -3.448200	 0.574008	 0.464450
H	 -3.386762	 0.569643	 2.215059
H	 -2.665982	 1.889417	 1.316471

	symmetry c1
}
set optking {
	frozen_dihedral = ("
		12 8 5 9
	")
}

ee,wfn = optimize('scf', return_wfn=True)
oeprop( wfn, 'DIPOLE', 'QUADRUPOLE', 'MULLIKEN_CHARGES')
f=open( 'psi4out.xyz', 'w' )
f.write( "19  " )
f.write( str(ee) + "\n" )
f.write( MOL.save_string_xyz() )
f.close()
--------------------------------------------------------------------------

    Molecular point group: c1
  Charge       = 0
  Multiplicity = 1
  Basis Set: CC-PVTZ
  Basis Set:
  @DF-RHF Final Energy:  -251.44294517556472
    Total Energy =                       -251.4429451755644322
    Molecular point group: c1
  Basis Set: CC-PVTZ
  Basis Set:
  Basis Set: CC-PVTZ
  Basis Set:
  @DF-RHF Final Energy:  -251.44316075890191
    Total Energy =                       -251.4431607589021382
  Basis Set: CC-PVTZ
  Basis Set:
  Basis Set: CC-PVTZ
  Basis Set:
  @DF-RHF Final Energy:  -251.44321761503880
    Total Energy =                       -251.4432176150388614
  Basis Set: CC-PVTZ
  Basis Set:
  Charge       = 0
  Multiplicity = 1
  Basis Set: CC-PVTZ
  Basis Set:

    Orbital Energies (a.u.)
    -----------------------

    Doubly Occupied:

       1A    -15.526493     2A    -11.238600     3A    -11.213069
       4A    -11.210409     5A    -11.207427     6A    -11.205844
       7A     -1.178476     8A     -1.072913     9A     -0.998453
      10A     -0.901008    11A     -0.817857    12A     -0.788662
      13A     -0.662602    14A     -0.639638    15A     -0.618754
      16A     -0.594466    17A     -0.564503    18A     -0.549280
      19A     -0.534757    20A     -0.493230    21A     -0.487435
      22A     -0.465696    23A     -0.456269    24A     -0.448934
      25A     -0.383944

  @DF-RHF Final Energy:  -251.44321795579859

   => Energetics <=

    Nuclear Repulsion Energy =            247.0933510870389398
    One-Electron Energy =                -828.5556976665604907
    Two-Electron Energy =                 330.0191286237226223
    DFT Exchange-Correlation Energy =       0.0000000000000000
    Empirical Dispersion Energy =           0.0000000000000000
    PCM Polarization Energy =               0.0000000000000000
    EFP Energy =                            0.0000000000000000
    Total Energy =                       -251.4432179557989002
    Molecular point group: c1
  Basis Set: CC-PVTZ
  Basis Set:

  -Total Gradient:
     Atom            X                  Y                   Z
    ------   -----------------  -----------------  -----------------
       1        0.000033829899    -0.000001096291     0.000010583932
       2        0.000054518886    -0.000035654122    -0.000011285082
       3       -0.000048788779     0.000052756982    -0.000037835027
       4        0.000013907939    -0.000011117944     0.000018774399
       5        0.000401491259     0.000815489776    -0.000447850119
       6       -0.000003504496     0.000006150053     0.000000024825
       7       -0.000005646864    -0.000002346624    -0.000010225892
       8       -0.000427790373    -0.000787432215     0.000462316178
       9       -0.000287951440    -0.000482850817     0.000330827068
      10       -0.000021869844     0.000010883812     0.000004586000
      11       -0.000040588771    -0.000093488617    -0.000020384929
      12        0.000288276033     0.000489813708    -0.000299859934
      13        0.000021312008    -0.000004338246    -0.000016265124
      14        0.000027214008     0.000058966386     0.000011196272
      15       -0.000018550841    -0.000018419875    -0.000011565679
      16        0.000017687388    -0.000018898927     0.000010275919
      17        0.000005715706    -0.000012538582     0.000003699123
      18        0.000009557288     0.000010014773     0.000010777606
      19       -0.000018819010     0.000024106769    -0.000007789534

  **** Optimization is complete! (in 4 steps) ****
    Final optimized geometry and variables:
    Molecular point group: c1

    Geometry (in Angstrom), charge = 0, multiplicity = 1:

    H            3.761157414100     0.175435644446    -0.494015015788
    N            2.967085338908    -0.428609437867    -0.478483857774
    C            1.729735641251     0.331297463444    -0.417608774422
    H            3.062193861180    -1.020848469795     0.320008208171
    C            0.519786712491    -0.590536659834    -0.476994213942
    H            1.708446714436     1.002114971517    -1.269975116049
    H            1.656956173680     0.956952891924     0.473724992326
    C           -0.821902507290     0.163727469850    -0.413973840018
    H            0.586489193262    -1.185404378422    -1.379681256854
    H            0.580477095834    -1.295130503814     0.348827373752
    C           -1.644926265548    -0.142111721383     0.835362245746
    H           -1.415131035971    -0.064902787454    -1.293368159219
    H           -0.639057378860     1.234519868124    -0.455765140583
    C           -2.953300701226     0.637802315262     0.898865446473
    H           -1.857073950045    -1.207157533630     0.870962441594
    H           -1.049778124561     0.078342097201     1.717981251898
    H           -3.584487976759     0.412219284996     0.045634734968
    H           -3.512044817017     0.396627670630     1.795966941483
    H           -2.771994339126     1.707619686061     0.899769147184

  Mulliken Charges: (a.u.)
   Center  Symbol    Alpha    Beta     Spin     Total
       1     H     0.43016  0.43016  0.00000  0.13968
       2     N     3.68986  3.68986  0.00000 -0.37972
       3     C     3.02442  3.02442  0.00000 -0.04884
       4     H     0.43060  0.43060  0.00000  0.13880
       5     C     3.08896  3.08896  0.00000 -0.17793
       6     H     0.45605  0.45605  0.00000  0.08791
       7     H     0.46847  0.46847  0.00000  0.06306
       8     C     3.10203  3.10203  0.00000 -0.20407
       9     H     0.44419  0.44419  0.00000  0.11161
      10     H     0.46013  0.46013  0.00000  0.07975
      11     C     3.08225  3.08225  0.00000 -0.16449
      12     H     0.44778  0.44778  0.00000  0.10445
      13     H     0.45670  0.45670  0.00000  0.08661
      14     C     3.15019  3.15019  0.00000 -0.30039
      15     H     0.45353  0.45353  0.00000  0.09294
      16     H     0.45561  0.45561  0.00000  0.08879
      17     H     0.45489  0.45489  0.00000  0.09021
      18     H     0.44882  0.44882  0.00000  0.10236
      19     H     0.45537  0.45537  0.00000  0.08926

   Total alpha = 25.00000, Total beta = 25.00000, Total charge = -0.00000

*** Psi4 exiting successfully. Buy a developer a beer!
