  ==> Input File <==

--------------------------------------------------------------------------
set {
	reference rhf
	basis 6-31G*
}

set_num_threads( 4 )
memory 2 gb

molecule MOL {
0 1

O	 2.855320	 1.368095	 0.109938
C	 2.820716	 0.199642	 0.347168
C	 1.524338	 -0.590449	 0.337185
C	 4.079597	 -0.576255	 0.676346
C	 0.291004	 0.242674	 0.000989
H	 1.639452	 -1.410588	 -0.370281
H	 1.415097	 -1.063901	 1.312024
C	 -0.994322	 -0.586602	 0.000262
H	 0.430251	 0.708771	 -0.969317
H	 0.205456	 1.055724	 0.714978
C	 -2.259874	 0.272531	 0.000494
H	 -1.004862	 -1.240012	 -0.870939
H	 -1.005220	 -1.241071	 0.870675
C	 -3.549786	 -0.549746	 -0.000374
H	 -2.250389	 0.926680	 -0.869574
H	 -2.250838	 0.925513	 0.871430
C	 -4.809590	 0.315458	 -0.000369
H	 -3.560515	 -1.202009	 -0.871156
H	 -3.561123	 -1.202955	 0.869711
H	 -4.844746	 0.956611	 -0.876632
H	 -5.706986	 -0.295590	 -0.001609
H	 -4.845960	 0.954827	 0.877144
H	 4.225362	 -1.382338	 -0.036816
H	 4.933495	 0.086377	 0.651629
H	 3.999564	 -1.027748	 1.660918

	symmetry c1
}
set optking {
	frozen_dihedral = ("
		9 5 8 12
	")
}

ee = optimize('scf')
oeprop('DIPOLE', 'QUADRUPOLE', 'MULLIKEN_CHARGES')
f=open( 'psi4out.xyz', 'w' )
f.write( "25  " )
f.write( str(ee) + "\n" )
f.write( MOL.save_string_xyz() )
f.close()
--------------------------------------------------------------------------

    Molecular point group: c1
  Charge       = 0
  Multiplicity = 1
  Basis Set: 6-31G*
  Basis Set:
  @DF-RHF Final Energy:  -387.13582382204299
    Total Energy =                       -387.1358238220432213
    Molecular point group: c1
  Basis Set: 6-31G*
  Basis Set:
  Basis Set: 6-31G*
  Basis Set:
  @DF-RHF Final Energy:  -387.13588844405217
    Total Energy =                       -387.1358884440523980
  Basis Set: 6-31G*
  Basis Set:
  Basis Set: 6-31G*
  Basis Set:
  @DF-RHF Final Energy:  -387.13582329926817
    Total Energy =                       -387.1358232992677131
  Basis Set: 6-31G*
  Basis Set:
  Basis Set: 6-31G*
  Basis Set:
  @DF-RHF Final Energy:  -387.13593264510570
    Total Energy =                       -387.1359326451063225
  Basis Set: 6-31G*
  Basis Set:
  Basis Set: 6-31G*
  Basis Set:
  @DF-RHF Final Energy:  -387.13593174388387
    Total Energy =                       -387.1359317438833614
  Basis Set: 6-31G*
  Basis Set:
  Basis Set: 6-31G*
  Basis Set:
  @DF-RHF Final Energy:  -387.13593687935474
    Total Energy =                       -387.1359368793545173
  Basis Set: 6-31G*
  Basis Set:
  Charge       = 0
  Multiplicity = 1
  Basis Set: 6-31G*
  Basis Set:

    Orbital Energies (a.u.)
    -----------------------

    Doubly Occupied:

       1A    -20.550428     2A    -11.326195     3A    -11.231745
       4A    -11.228297     5A    -11.217171     6A    -11.216583
       7A    -11.215321     8A    -11.213439     9A    -11.208314
      10A     -1.395701    11A     -1.093434    12A     -1.056212
      13A     -1.014379    14A     -0.969170    15A     -0.890464
      16A     -0.814159    17A     -0.790592    18A     -0.729890
      19A     -0.661773    20A     -0.651578    21A     -0.632368
      22A     -0.623618    23A     -0.596319    24A     -0.583741
      25A     -0.566313    26A     -0.560607    27A     -0.539869
      28A     -0.525509    29A     -0.513231    30A     -0.490157
      31A     -0.487291    32A     -0.473993    33A     -0.463396
      34A     -0.462432    35A     -0.450155    36A     -0.399217

  @DF-RHF Final Energy:  -387.13593701677945

   => Energetics <=

    Nuclear Repulsion Energy =            438.3582462689346926
    One-Electron Energy =               -1393.3022473511357475
    Two-Electron Energy =                 567.8080640654209219
    DFT Exchange-Correlation Energy =       0.0000000000000000
    Empirical Dispersion Energy =           0.0000000000000000
    PCM Polarization Energy =               0.0000000000000000
    EFP Energy =                            0.0000000000000000
    Total Energy =                       -387.1359370167801899
    Molecular point group: c1
  Basis Set: 6-31G*
  Basis Set:

  -Total Gradient:
     Atom            X                  Y                   Z
    ------   -----------------  -----------------  -----------------
       1        0.000002904105    -0.000003591325    -0.000023768178
       2       -0.000007351899     0.000015110314     0.000066736602
       3        0.000013848985    -0.000009078783    -0.000031603550
       4        0.000001894883    -0.000003602462    -0.000012772550
       5       -0.001918314362     0.002966952402     0.000674319079
       6       -0.000007965724    -0.000009309171     0.000000790644
       7        0.000004652507     0.000007483907     0.000000342323
       8        0.001770432645    -0.002732162843     0.001455863202
       9        0.001318686745    -0.002033313278    -0.000779599496
      10        0.000007223071    -0.000009832472    -0.000000248388
      11       -0.000006365812     0.000004731695    -0.000022690326
      12       -0.001174704088     0.001793398388    -0.001336198914
      13       -0.000008152592     0.000016282927    -0.000008384102
      14       -0.000003495372    -0.000001435287     0.000025723925
      15       -0.000002464417     0.000011989470     0.000000598509
      16        0.000009068097    -0.000010065591     0.000003592982
      17        0.000000417173    -0.000000322823    -0.000018049754
      18        0.000001667780    -0.000003380096     0.000008045082
      19       -0.000002858313     0.000000749768     0.000008073460
      20        0.000000589731     0.000007941213     0.000002570076
      21        0.000000105743     0.000000399063    -0.000008229722
      22       -0.000001268049    -0.000007671859     0.000002535181
      23        0.000004160401    -0.000001465848    -0.000002495753
      24        0.000000341079    -0.000000425251    -0.000001519458
      25       -0.000003052324     0.000000617939    -0.000003630873

  **** Optimization is complete! (in 7 steps) ****
    Final optimized geometry and variables:
    Molecular point group: c1

    Geometry (in Angstrom), charge = 0, multiplicity = 1:

    O            2.869824252502     1.346273367776    -0.091281225473
    C            2.836086095213     0.181197926381     0.162372551363
    C            1.535826310911    -0.601504562067     0.200747443333
    C            4.100072911696    -0.597219910155     0.465015725737
    C            0.296147367984     0.235270034512    -0.106853083247
    H            1.624365407219    -1.429851695618    -0.501258906764
    H            1.454292159253    -1.064104234095     1.183337187082
    C           -0.986258622822    -0.601419834803    -0.103581268987
    H            0.428409913384     0.697837640243    -1.079328667143
    H            0.222970953801     1.042062371914     0.614961645260
    C           -2.253688725483     0.256288636771    -0.134207892264
    H           -0.990093712212    -1.254908089589    -0.974261359066
    H           -1.010870145086    -1.245078373724     0.773907241523
    C           -3.541607269178    -0.567524100358    -0.183183855409
    H           -2.218137133443     0.919315566012    -0.997026535330
    H           -2.272556131811     0.900534803050     0.743004144177
    C           -4.802445226241     0.295823970423    -0.208567230723
    H           -3.526087702890    -1.208463785623    -1.062239955490
    H           -3.577041415475    -1.232136595411     0.677680071590
    H           -4.812435487228     0.949378818017    -1.076261042817
    H           -5.698292809301    -0.316369966183    -0.245434805420
    H           -4.866288304039     0.922543732363     0.676474772712
    H            4.220333413350    -1.413960147916    -0.240743592152
    H            4.956370334272     0.060102842971     0.405753962810
    H            4.046915038255    -1.034538983589     1.457774210004

  Mulliken Charges: (a.u.)
   Center  Symbol    Alpha    Beta     Spin     Total
       1     O     4.26123  4.26123  0.00000 -0.52246
       2     C     2.73576  2.73576  0.00000  0.52848
       3     C     3.21129  3.21129  0.00000 -0.42258
       4     C     3.28661  3.28661  0.00000 -0.57323
       5     C     3.14805  3.14805  0.00000 -0.29610
       6     H     0.41000  0.41000  0.00000  0.18000
       7     H     0.41015  0.41015  0.00000  0.17970
       8     C     3.15415  3.15415  0.00000 -0.30829
       9     H     0.41127  0.41127  0.00000  0.17746
      10     H     0.41228  0.41228  0.00000  0.17543
      11     C     3.15111  3.15111  0.00000 -0.30222
      12     H     0.42365  0.42365  0.00000  0.15270
      13     H     0.42507  0.42507  0.00000  0.14986
      14     C     3.15154  3.15154  0.00000 -0.30308
      15     H     0.42216  0.42216  0.00000  0.15569
      16     H     0.42292  0.42292  0.00000  0.15416
      17     C     3.23929  3.23929  0.00000 -0.47857
      18     H     0.42347  0.42347  0.00000  0.15307
      19     H     0.42374  0.42374  0.00000  0.15251
      20     H     0.42126  0.42126  0.00000  0.15747
      21     H     0.41955  0.41955  0.00000  0.16091
      22     H     0.42150  0.42150  0.00000  0.15699
      23     H     0.40877  0.40877  0.00000  0.18245
      24     H     0.39648  0.39648  0.00000  0.20703
      25     H     0.40869  0.40869  0.00000  0.18261

   Total alpha = 36.00000, Total beta = 36.00000, Total charge = -0.00000
