                              Psi4 1.0.54 Driver

  ==> Input File <==

--------------------------------------------------------------------------
set {
	reference rhf
	basis cc-pvtz
}

set_num_threads( 4 )
memory 2 gb

molecule MOL {
0 1

H	 0.949598	 -2.555056	 -2.121460
O	 0.872356	 -2.144601	 -1.273347
C	 -0.128764	 -1.270326	 -1.318327
C	 -0.318151	 -0.570512	 0.000144
O	 -0.767842	 -1.095166	 -2.297544
C	 -1.454884	 0.441630	 -0.000560
H	 -0.475032	 -1.338672	 0.750617
H	 0.627357	 -0.100901	 0.251894
C	 -2.822577	 -0.232186	 0.000063
H	 -1.359760	 1.084704	 -0.867077
H	 -1.359641	 1.085996	 0.864983
H	 -2.954352	 -0.858985	 -0.875745
H	 -3.615886	 0.505352	 0.000019
H	 -2.953878	 -0.858359	 0.876394

	symmetry c1
}
set optking {
	frozen_dihedral = ("
		7 4 6 10
	")
}

ee,wfn = optimize('scf', return_wfn=True)
oeprop( wfn, 'DIPOLE', 'QUADRUPOLE', 'MULLIKEN_CHARGES')
f=open( 'psi4out.xyz', 'w' )
f.write( "14  " )
f.write( str(ee) + "\n" )
f.write( MOL.save_string_xyz() )
f.close()
--------------------------------------------------------------------------

    Molecular point group: c1
  Charge       = 0
  Multiplicity = 1
  Basis Set: CC-PVTZ
  Basis Set:
  @DF-RHF Final Energy:  -305.99986337426026
    Total Energy =                       -305.9998633742604284
    Molecular point group: c1
  Basis Set: CC-PVTZ
  Basis Set:
  Basis Set: CC-PVTZ
  Basis Set:
  @DF-RHF Final Energy:  -306.00014677270440
    Total Energy =                       -306.0001467727043973
  Basis Set: CC-PVTZ
  Basis Set:
  Basis Set: CC-PVTZ
  Basis Set:
  @DF-RHF Final Energy:  -305.99874470442228
    Total Energy =                       -305.9987447044221653
  Basis Set: CC-PVTZ
  Basis Set:
  Basis Set: CC-PVTZ
  Basis Set:
  @DF-RHF Final Energy:  -306.00027063094393
    Total Energy =                       -306.0002706309442146
  Basis Set: CC-PVTZ
  Basis Set:
  Basis Set: CC-PVTZ
  Basis Set:
  @DF-RHF Final Energy:  -306.00030674168391
    Total Energy =                       -306.0003067416838007
  Basis Set: CC-PVTZ
  Basis Set:
  Basis Set: CC-PVTZ
  Basis Set:
  @DF-RHF Final Energy:  -306.00032303967566
    Total Energy =                       -306.0003230396757772
  Basis Set: CC-PVTZ
  Basis Set:
  Basis Set: CC-PVTZ
  Basis Set:
  @DF-RHF Final Energy:  -306.00032422621075
    Total Energy =                       -306.0003242262110348
  Basis Set: CC-PVTZ
  Basis Set:
  Charge       = 0
  Multiplicity = 1
  Basis Set: CC-PVTZ
  Basis Set:

    Orbital Energies (a.u.)
    -----------------------

    Doubly Occupied:

       1A    -20.605165     2A    -20.541542     3A    -11.374753
       4A    -11.240060     5A    -11.224147     6A    -11.209287
       7A     -1.478845     8A     -1.370183     9A     -1.082824
      10A     -0.977479    11A     -0.862581    12A     -0.789097
      13A     -0.706142    14A     -0.695253    15A     -0.662622
      16A     -0.614031    17A     -0.597615    18A     -0.567710
      19A     -0.558833    20A     -0.497095    21A     -0.491253
      22A     -0.486601    23A     -0.481547    24A     -0.446572

  @DF-RHF Final Energy:  -306.00032431403304

   => Energetics <=

    Nuclear Repulsion Energy =            244.7365546042852031
    One-Electron Energy =                -902.3512823035598558
    Two-Electron Energy =                 351.6144033852413031
    DFT Exchange-Correlation Energy =       0.0000000000000000
    Empirical Dispersion Energy =           0.0000000000000000
    PCM Polarization Energy =               0.0000000000000000
    EFP Energy =                            0.0000000000000000
    Total Energy =                       -306.0003243140333780
    Molecular point group: c1
  Basis Set: CC-PVTZ
  Basis Set:

  -Total Gradient:
     Atom            X                  Y                   Z
    ------   -----------------  -----------------  -----------------
       1        0.000003667843    -0.000003093596     0.000003142658
       2       -0.000002660887    -0.000002558430    -0.000014074031
       3        0.000005354258     0.000001919448     0.000002905740
       4        0.000411985992     0.000480828729     0.000629218784
       5        0.000004186016    -0.000008067519    -0.000004453770
       6        0.000481976299     0.000523952508     0.000417057154
       7       -0.000423032766    -0.000472512209    -0.000582696834
       8        0.000004800427    -0.000002670840     0.000003868046
       9       -0.000001868076     0.000007678238     0.000002402242
      10       -0.000484008235    -0.000530864357    -0.000459014619
      11       -0.000004050921     0.000006743697     0.000004121661
      12       -0.000000801613    -0.000000251070    -0.000002746720
      13        0.000001410319    -0.000001077424    -0.000000306398
      14        0.000003041342    -0.000000027175     0.000000576087

  **** Optimization is complete! (in 8 steps) ****
    Final optimized geometry and variables:
    Molecular point group: c1

    Geometry (in Angstrom), charge = 0, multiplicity = 1:

    H            1.623345108245    -1.795244268725    -1.255885606379
    O            1.506157946682    -1.422571280952    -0.394929769158
    C            0.638603479883    -0.419143662565    -0.485467860926
    C            0.425863688604     0.255181124111     0.845069724290
    O            0.135450342288    -0.114523941800    -1.511492812496
    C           -0.710428782275     1.271913267533     0.854553939320
    H            0.270322149816    -0.523094314714     1.583607522577
    H            1.371526366322     0.724851158614     1.096442029259
    C           -2.096852717259     0.634511525215     0.847947123771
    H           -0.609447255043     1.923160457726    -0.004221368474
    H           -0.603317554126     1.889759506091     1.739383607655
    H           -2.247241269211     0.032499907361    -0.039136706877
    H           -2.868022485913     1.395413000871     0.865797034325
    H           -2.239288224573     0.000271630691     1.717217042084

  Mulliken Charges: (a.u.)
   Center  Symbol    Alpha    Beta     Spin     Total
       1     H     0.38210  0.38210  0.00000  0.23581
       2     O     4.15968  4.15968  0.00000 -0.31936
       3     C     2.80485  2.80485  0.00000  0.39030
       4     C     3.11137  3.11137  0.00000 -0.22274
       5     O     4.19278  4.19278  0.00000 -0.38557
       6     C     3.08472  3.08472  0.00000 -0.16944
       7     H     0.43778  0.43778  0.00000  0.12444
       8     H     0.43247  0.43247  0.00000  0.13505
       9     C     3.15160  3.15160  0.00000 -0.30319
      10     H     0.44522  0.44522  0.00000  0.10955
      11     H     0.44702  0.44702  0.00000  0.10596
      12     H     0.44524  0.44524  0.00000  0.10952
      13     H     0.44752  0.44752  0.00000  0.10497
      14     H     0.45765  0.45765  0.00000  0.08469

   Total alpha = 24.00000, Total beta = 24.00000, Total charge = -0.00000

*** Psi4 exiting successfully. Buy a developer a beer!
