  ==> Input File <==

--------------------------------------------------------------------------
set {
	reference rhf
	basis 6-31G*
}

set_num_threads( 4 )
memory 2 gb

molecule MOL {
0 1

H	 -2.403923	 1.012578	 -1.077062
C	 -1.557908	 1.684742	 -1.153231
C	 -0.247496	 0.909140	 -1.216644
H	 -1.581055	 2.338332	 -0.289769
H	 -1.681231	 2.290684	 -2.044803
C	 -0.000005	 0.033229	 -0.000001
H	 0.597673	 1.587125	 -1.318730
H	 -0.217929	 0.273014	 -2.099178
C	 1.290528	 -0.768786	 0.000276
O	 -0.775686	 -0.021618	 0.904706
C	 2.545731	 0.095645	 -0.000061
H	 1.275672	 -1.427874	 -0.865626
H	 1.275566	 -1.427086	 0.866768
H	 2.577157	 0.734767	 -0.874036
H	 3.433520	 -0.528139	 0.000137
H	 2.577172	 0.735117	 0.873581

	symmetry c1
}
set optking {
	frozen_dihedral = ("
		3 6 9 12
	")
}

ee = optimize('scf')
oeprop('DIPOLE', 'QUADRUPOLE', 'MULLIKEN_CHARGES')
f=open( 'psi4out.xyz', 'w' )
f.write( "16  " )
f.write( str(ee) + "\n" )
f.write( MOL.save_string_xyz() )
f.close()
--------------------------------------------------------------------------

    Molecular point group: c1
  Charge       = 0
  Multiplicity = 1
  Basis Set: 6-31G*
  Basis Set:
  @DF-RHF Final Energy:  -270.02982957646799
    Total Energy =                       -270.0298295764680461
    Molecular point group: c1
  Basis Set: 6-31G*
  Basis Set:
  Basis Set: 6-31G*
  Basis Set:
  @DF-RHF Final Energy:  -270.03016487429818
    Total Energy =                       -270.0301648742982366
  Basis Set: 6-31G*
  Basis Set:
  Basis Set: 6-31G*
  Basis Set:
  @DF-RHF Final Energy:  -270.02886489396360
    Total Energy =                       -270.0288648939637142
  Basis Set: 6-31G*
  Basis Set:
  Basis Set: 6-31G*
  Basis Set:
  @DF-RHF Final Energy:  -270.03053055058086
    Total Energy =                       -270.0305305505808064
  Basis Set: 6-31G*
  Basis Set:
  Basis Set: 6-31G*
  Basis Set:
  @DF-RHF Final Energy:  -270.03057838689091
    Total Energy =                       -270.0305783868911931
  Basis Set: 6-31G*
  Basis Set:
  Basis Set: 6-31G*
  Basis Set:
  @DF-RHF Final Energy:  -270.03058772927511
    Total Energy =                       -270.0305877292748846
  Basis Set: 6-31G*
  Basis Set:
  Basis Set: 6-31G*
  Basis Set:
  @DF-RHF Final Energy:  -270.03058950917364
    Total Energy =                       -270.0305895091735806
  Basis Set: 6-31G*
  Basis Set:
  Charge       = 0
  Multiplicity = 1
  Basis Set: 6-31G*
  Basis Set:

    Orbital Energies (a.u.)
    -----------------------

    Doubly Occupied:

       1A    -20.549504     2A    -11.322654     3A    -11.233383
       4A    -11.232547     5A    -11.229832     6A    -11.213144
       7A     -1.394532     8A     -1.072591     9A     -1.035336
      10A     -0.909453    11A     -0.861706    12A     -0.724857
      13A     -0.661997    14A     -0.637267    15A     -0.632675
      16A     -0.606868    17A     -0.558054    18A     -0.543519
      19A     -0.533370    20A     -0.510404    21A     -0.505269
      22A     -0.494795    23A     -0.480425    24A     -0.396715

  @DF-RHF Final Energy:  -270.03058970995698

   => Energetics <=

    Nuclear Repulsion Energy =            240.4178586331942427
    One-Electron Energy =                -842.2150981865881931
    Two-Electron Energy =                 331.7666498434368805
    DFT Exchange-Correlation Energy =       0.0000000000000000
    Empirical Dispersion Energy =           0.0000000000000000
    PCM Polarization Energy =               0.0000000000000000
    EFP Energy =                            0.0000000000000000
    Total Energy =                       -270.0305897099570984
    Molecular point group: c1
  Basis Set: 6-31G*
  Basis Set:

  -Total Gradient:
     Atom            X                  Y                   Z
    ------   -----------------  -----------------  -----------------
       1       -0.000006520011     0.000001164506     0.000000727806
       2       -0.000001104410    -0.000004542253    -0.000002706578
       3        0.000032008977     0.000048548358     0.000042108406
       4        0.000000697912     0.000000050553     0.000000652398
       5        0.000000430158    -0.000001090346     0.000001377711
       6       -0.000048798307    -0.000085468516    -0.000037556885
       7        0.000005742876    -0.000001212378     0.000002357186
       8        0.000000484704    -0.000000726546     0.000000355725
       9        0.000058535713     0.000100208947    -0.000048096728
      10       -0.000010340614     0.000005082604    -0.000003632186
      11        0.000015663714     0.000003661224     0.000002860625
      12       -0.000034679753    -0.000065788037     0.000044716039
      13       -0.000001459425     0.000003460925    -0.000000813611
      14       -0.000006476848    -0.000001022092    -0.000001859802
      15       -0.000005898745    -0.000000907043     0.000000804956
      16        0.000001714061    -0.000001419905    -0.000001295065

  **** Optimization is complete! (in 8 steps) ****
    Final optimized geometry and variables:
    Molecular point group: c1

    Geometry (in Angstrom), charge = 0, multiplicity = 1:

    H           -2.606775906323     0.543137664758    -0.944038874765
    C           -1.821377090512     1.289743176539    -0.937603229884
    C           -0.444107951345     0.636274434926    -0.946581624526
    H           -1.955529771299     1.897607524194    -0.051884581454
    H           -1.944667910495     1.922114442730    -1.810672259979
    C           -0.194068086910    -0.259662461664     0.255482670218
    H            0.333626913196     1.396765546236    -0.963487785519
    H           -0.297823459100     0.048448499139    -1.850318727628
    C            1.057590570787    -1.121794162983     0.243256055712
    O           -0.951512461970    -0.292362271775     1.177434646687
    C            2.362586246582    -0.316842854400     0.196880703532
    H            1.011462899881    -1.785598978053    -0.617307851023
    H            1.026172292383    -1.734642112818     1.135192387760
    H            2.465551884063     0.239203311776    -0.728430009447
    H            3.213565941952    -0.984309887782     0.274016065664
    H            2.417628693096     0.385874614088     1.022234244437

  Mulliken Charges: (a.u.)
   Center  Symbol    Alpha    Beta     Spin     Total
       1     H     0.41268  0.41268  0.00000  0.17464
       2     C     3.23461  3.23461  0.00000 -0.46921
       3     C     3.20952  3.20952  0.00000 -0.41904
       4     H     0.40833  0.40833  0.00000  0.18334
       5     H     0.42035  0.42035  0.00000  0.15930
       6     C     2.73355  2.73355  0.00000  0.53291
       7     H     0.40562  0.40562  0.00000  0.18875
       8     H     0.41143  0.41143  0.00000  0.17715
       9     C     3.20090  3.20090  0.00000 -0.40179
      10     O     4.26319  4.26319  0.00000 -0.52638
      11     C     3.25081  3.25081  0.00000 -0.50162
      12     H     0.41194  0.41194  0.00000  0.17612
      13     H     0.39844  0.39844  0.00000  0.20312
      14     H     0.41670  0.41670  0.00000  0.16661
      15     H     0.41049  0.41049  0.00000  0.17902
      16     H     0.41146  0.41146  0.00000  0.17709

   Total alpha = 24.00000, Total beta = 24.00000, Total charge = -0.00000
