  ==> Input File <==

--------------------------------------------------------------------------
set {
	reference rhf
	basis 6-31G*
}

set_num_threads( 4 )
memory 2 gb

molecule MOL {
0 1

H	 -3.420663	 1.227371	 -1.044276
O	 -3.452007	 0.283848	 -0.965577
C	 -3.181085	 -0.079926	 0.364119
C	 -1.765924	 0.277073	 0.805136
H	 -3.327791	 -1.152017	 0.410903
H	 -3.905698	 0.375695	 1.036898
C	 -0.677594	 -0.417312	 -0.014550
H	 -1.637766	 1.358238	 0.744969
H	 -1.659588	 0.017670	 1.857098
C	 0.738335	 -0.034840	 0.421385
H	 -0.814977	 -0.178223	 -1.064632
H	 -0.802730	 -1.495410	 0.071702
C	 1.822265	 -0.738362	 -0.399735
H	 0.853533	 1.043532	 0.342250
H	 0.871597	 -0.279636	 1.474438
C	 3.258060	 -0.455774	 0.057203
H	 1.718003	 -0.459167	 -1.447053
H	 1.651028	 -1.811884	 -0.354513
C	 4.336060	 -1.189134	 -0.743111
H	 3.348332	 -0.738649	 1.103206
H	 3.444141	 0.615631	 0.016345
H	 4.168396	 -2.262851	 -0.730505
H	 5.320261	 -1.004528	 -0.323458
H	 4.360261	 -0.870199	 -1.779864

	symmetry c1
}
set optking {
	frozen_dihedral = ("
		20 16 13 17
	")
}

ee = optimize('scf')
oeprop('DIPOLE', 'QUADRUPOLE', 'MULLIKEN_CHARGES')
f=open( 'psi4out.xyz', 'w' )
f.write( "24  " )
f.write( str(ee) + "\n" )
f.write( MOL.save_string_xyz() )
f.close()
--------------------------------------------------------------------------

    Molecular point group: c1
  Charge       = 0
  Multiplicity = 1
  Basis Set: 6-31G*
  Basis Set:
  @DF-RHF Final Energy:  -349.24883474307074
    Total Energy =                       -349.2488347430705744
    Molecular point group: c1
  Basis Set: 6-31G*
  Basis Set:
  Basis Set: 6-31G*
  Basis Set:
  @DF-RHF Final Energy:  -349.24917962883308
    Total Energy =                       -349.2491796288328487
  Basis Set: 6-31G*
  Basis Set:
  Basis Set: 6-31G*
  Basis Set:
  @DF-RHF Final Energy:  -349.24922638998629
    Total Energy =                       -349.2492263899863474
  Basis Set: 6-31G*
  Basis Set:
  Basis Set: 6-31G*
  Basis Set:
  @DF-RHF Final Energy:  -349.24922872708885
    Total Energy =                       -349.2492287270893030
  Basis Set: 6-31G*
  Basis Set:
  Charge       = 0
  Multiplicity = 1
  Basis Set: 6-31G*
  Basis Set:

    Orbital Energies (a.u.)
    -----------------------

    Doubly Occupied:

       1A    -20.553594     2A    -11.267719     3A    -11.217486
       4A    -11.213699     5A    -11.212795     6A    -11.211365
       7A    -11.211132     8A    -11.207260     9A     -1.360193
      10A     -1.088655    11A     -1.049190    12A     -0.988037
      13A     -0.913784    14A     -0.842048    15A     -0.797251
      16A     -0.788160    17A     -0.678902    18A     -0.657764
      19A     -0.630868    20A     -0.614132    21A     -0.591540
      22A     -0.585386    23A     -0.546043    24A     -0.544037
      25A     -0.530166    26A     -0.499164    27A     -0.496827
      28A     -0.471201    29A     -0.468097    30A     -0.460457
      31A     -0.456826    32A     -0.456088    33A     -0.418464

  @DF-RHF Final Energy:  -349.24922880178616

   => Energetics <=

    Nuclear Repulsion Energy =            380.5565572192567174
    One-Electron Energy =               -1227.5549118927533527
    Two-Electron Energy =                 497.7491258717103619
    DFT Exchange-Correlation Energy =       0.0000000000000000
    Empirical Dispersion Energy =           0.0000000000000000
    PCM Polarization Energy =               0.0000000000000000
    EFP Energy =                            0.0000000000000000
    Total Energy =                       -349.2492288017862165
    Molecular point group: c1
  Basis Set: 6-31G*
  Basis Set:

  -Total Gradient:
     Atom            X                  Y                   Z
    ------   -----------------  -----------------  -----------------
       1       -0.000000185827     0.000000637888     0.000000667500
       2       -0.000000220616    -0.000003149624     0.000004376628
       3        0.000001148772    -0.000001483763    -0.000003809736
       4        0.000019667608    -0.000003544736     0.000007292859
       5        0.000000122927     0.000000962651    -0.000002874661
       6       -0.000000015112     0.000000202310    -0.000000249102
       7        0.000012420578    -0.000005798815    -0.000017430622
       8       -0.000000137924    -0.000002324387    -0.000001731920
       9       -0.000002610299     0.000003723766     0.000002413316
      10        0.000007507504     0.000020070677    -0.000003352752
      11        0.000000548981     0.000000396983    -0.000003438179
      12       -0.000004694267    -0.000000827524    -0.000000020940
      13       -0.000006301815    -0.000017080409     0.000000970586
      14       -0.000009640692     0.000002000448    -0.000001266586
      15        0.000013206532    -0.000004329818    -0.000000904042
      16        0.000018914000    -0.000032679335     0.000033884353
      17       -0.000015460280     0.000020766755    -0.000002481135
      18        0.000003090123    -0.000003460732     0.000002742967
      19       -0.000020448330     0.000012802782    -0.000025176256
      20       -0.000003928355     0.000016530686     0.000011205590
      21        0.000000124186    -0.000007696289    -0.000007637852
      22       -0.000005945148    -0.000004776316     0.000008129936
      23       -0.000021835787     0.000010079322     0.000006447138
      24        0.000014673243    -0.000001022521    -0.000007757086

  **** Optimization is complete! (in 5 steps) ****
    Final optimized geometry and variables:
    Molecular point group: c1

    Geometry (in Angstrom), charge = 0, multiplicity = 1:

    H           -3.461498696650     1.558669954608    -0.964552253165
    O           -3.511881799086     0.614934194233    -0.899979253351
    C           -3.260187126943     0.226807555589     0.426621429856
    C           -1.842232549649     0.549195552505     0.885000744423
    H           -3.428343365587    -0.842647362131     0.456394614495
    H           -3.981686436324     0.686884033616     1.099642999169
    C           -0.760506755866    -0.153750807073     0.063893023736
    H           -1.692416038579     1.628394216441     0.842370277016
    H           -1.750095107534     0.271928321662     1.933739389880
    C            0.658341106786     0.197341402028     0.515028598961
    H           -0.885887776197     0.101335107700    -0.983847300023
    H           -0.905282616276    -1.230521791485     0.135207059120
    C            1.742019326513    -0.511417166042    -0.299269300604
    H            0.802801042674     1.274361542692     0.443563267354
    H            0.776958610256    -0.055451592531     1.567593200094
    C            3.162586598127    -0.160137881072     0.146505066261
    H            1.623448007662    -0.259373134697    -1.351753857248
    H            1.599762952601    -1.588450680056    -0.227177586166
    C            4.239177401056    -0.873424983120    -0.670713126341
    H            3.282540933040    -0.411535343639     1.198284726641
    H            3.307471639573     0.915646866513     0.072214189793
    H            4.142724728254    -1.952444593072    -0.588961482051
    H            5.234583108843    -0.603916413072    -0.331207829363
    H            4.167675938136    -0.615280314490    -1.723562817064

  Mulliken Charges: (a.u.)
   Center  Symbol    Alpha    Beta     Spin     Total
       1     H     0.28339  0.28339  0.00000  0.43323
       2     O     4.36830  4.36830  0.00000 -0.73660
       3     C     2.99616  2.99616  0.00000  0.00768
       4     C     3.16911  3.16911  0.00000 -0.33822
       5     H     0.41633  0.41633  0.00000  0.16735
       6     H     0.42814  0.42814  0.00000  0.14372
       7     C     3.15205  3.15205  0.00000 -0.30410
       8     H     0.42823  0.42823  0.00000  0.14354
       9     H     0.42233  0.42233  0.00000  0.15533
      10     C     3.15186  3.15186  0.00000 -0.30372
      11     H     0.41203  0.41203  0.00000  0.17593
      12     H     0.42352  0.42352  0.00000  0.15296
      13     C     3.15041  3.15041  0.00000 -0.30083
      14     H     0.42509  0.42509  0.00000  0.14982
      15     H     0.42496  0.42496  0.00000  0.15008
      16     C     3.15133  3.15133  0.00000 -0.30267
      17     H     0.42333  0.42333  0.00000  0.15333
      18     H     0.42381  0.42381  0.00000  0.15238
      19     C     3.23920  3.23920  0.00000 -0.47840
      20     H     0.42355  0.42355  0.00000  0.15291
      21     H     0.42363  0.42363  0.00000  0.15273
      22     H     0.42179  0.42179  0.00000  0.15643
      23     H     0.41976  0.41976  0.00000  0.16048
      24     H     0.42169  0.42169  0.00000  0.15662

   Total alpha = 33.00000, Total beta = 33.00000, Total charge = -0.00000
