                              Psi4 1.0.54 Driver

  ==> Input File <==

--------------------------------------------------------------------------
set {
	reference rhf
	basis cc-pvtz
}

set_num_threads( 4 )
memory 2 gb

molecule MOL {
0 1

H	 1.625945	 0.067691	 -1.364703
C	 0.925135	 -0.484941	 -0.776488
C	 0.919316	 -1.865041	 -0.771630
C	 0.000000	 0.179985	 0.000046
H	 1.630653	 -2.400772	 -1.368711
C	 0.000002	 -2.552036	 -0.000008
N	 0.000000	 1.644631	 0.000076
C	 -0.925135	 -0.484972	 0.776552
H	 0.000000	 -3.625035	 -0.000032
C	 -0.919315	 -1.865072	 0.771640
O	 1.050559	 2.194174	 -0.000073
O	 -1.050559	 2.194174	 -0.000074
H	 -1.625940	 0.067635	 1.364795
H	 -1.630654	 -2.400828	 1.368696

	symmetry c1
}
set optking {
	frozen_dihedral = ("
		2 4 7 11
	")
}

ee,wfn = optimize('scf', return_wfn=True)
oeprop( wfn, 'DIPOLE', 'QUADRUPOLE', 'MULLIKEN_CHARGES')
f=open( 'psi4out.xyz', 'w' )
f.write( "14  " )
f.write( str(ee) + "\n" )
f.write( MOL.save_string_xyz() )
f.close()
--------------------------------------------------------------------------

    Molecular point group: c1
  Charge       = 0
  Multiplicity = 1
  Basis Set: CC-PVTZ
  Basis Set:
  @DF-RHF Final Energy:  -434.32674883813871
    Total Energy =                       -434.3267488381388830
    Molecular point group: c1
  Basis Set: CC-PVTZ
  Basis Set:
  Basis Set: CC-PVTZ
  Basis Set:
  @DF-RHF Final Energy:  -434.31962788959567
    Total Energy =                       -434.3196278895959495
  Basis Set: CC-PVTZ
  Basis Set:
  Basis Set: CC-PVTZ
  Basis Set:
  @DF-RHF Final Energy:  -434.32580734330793
    Total Energy =                       -434.3258073433078152
  Basis Set: CC-PVTZ
  Basis Set:
  Basis Set: CC-PVTZ
  Basis Set:
  @DF-RHF Final Energy:  -434.32699227017747
    Total Energy =                       -434.3269922701775840
  Basis Set: CC-PVTZ
  Basis Set:
  Basis Set: CC-PVTZ
  Basis Set:
  @DF-RHF Final Energy:  -434.32696644608899
    Total Energy =                       -434.3269664460890453
  Basis Set: CC-PVTZ
  Basis Set:
  Basis Set: CC-PVTZ
  Basis Set:
  @DF-RHF Final Energy:  -434.32709934153536
    Total Energy =                       -434.3270993415351313
  Basis Set: CC-PVTZ
  Basis Set:
  Charge       = 0
  Multiplicity = 1
  Basis Set: CC-PVTZ
  Basis Set:

    Orbital Energies (a.u.)
    -----------------------

    Doubly Occupied:

       1A    -20.594052     2A    -20.593969     3A    -15.847462
       4A    -11.304215     5A    -11.267930     6A    -11.267693
       7A    -11.262955     8A    -11.259311     9A    -11.259075
      10A     -1.642178    11A     -1.425079    12A     -1.205734
      13A     -1.096617    14A     -1.056124    15A     -0.959532
      16A     -0.870731    17A     -0.829707    18A     -0.787520
      19A     -0.740357    20A     -0.735851    21A     -0.714755
      22A     -0.656707    23A     -0.651514    24A     -0.626345
      25A     -0.558392    26A     -0.545811    27A     -0.532753
      28A     -0.495841    29A     -0.490009    30A     -0.456906
      31A     -0.375192    32A     -0.370108

  @DF-RHF Final Energy:  -434.32709968110493

   => Energetics <=

    Nuclear Repulsion Energy =            418.0688710479421957
    One-Electron Energy =               -1419.8310988339803771
    Two-Electron Energy =                 567.4351281049331419
    DFT Exchange-Correlation Energy =       0.0000000000000000
    Empirical Dispersion Energy =           0.0000000000000000
    PCM Polarization Energy =               0.0000000000000000
    EFP Energy =                            0.0000000000000000
    Total Energy =                       -434.3270996811050964
    Molecular point group: c1
  Basis Set: CC-PVTZ
  Basis Set:

  -Total Gradient:
     Atom            X                  Y                   Z
    ------   -----------------  -----------------  -----------------
       1       -0.000003421157    -0.000002152751    -0.000002046086
       2       -0.002683151042    -0.000015632450    -0.002993333371
       3        0.000006025570     0.000003827542    -0.000011880094
       4        0.003992760215     0.000007229326     0.006068341197
       5       -0.000001897137    -0.000000078137    -0.000002596696
       6        0.000004444903    -0.000000664519     0.000014432092
       7       -0.001386516034     0.000071184463    -0.007693544823
       8        0.000029406313     0.000027357846     0.000043915737
       9        0.000003109837    -0.000000175694     0.000001096575
      10       -0.000016891405    -0.000004299134    -0.000039826871
      11        0.000161459470    -0.000095843604     0.004621766040
      12       -0.000102379372     0.000008437451    -0.000001085544
      13        0.000000017418    -0.000005022023    -0.000003678413
      14       -0.000002967574     0.000005831686    -0.000001559745

  **** Optimization is complete! (in 7 steps) ****
    Final optimized geometry and variables:
    Molecular point group: c1

    Geometry (in Angstrom), charge = 0, multiplicity = 1:

    H            1.625281222264     0.074425489623    -1.367818864616
    C            0.917397285070    -0.480160407546    -0.787297924468
    C            0.880758458343    -1.859940408297    -0.818843365275
    C            0.019371556627     0.179323868301     0.020903996548
    H            1.565347643846    -2.395415138562    -1.446684671169
    C           -0.034907238743    -2.546484190238    -0.042799320094
    N            0.019863794540     1.640969683713     0.017689346685
    C           -0.922051133509    -0.479684998888     0.778823626603
    H           -0.053857521499    -3.618940079187    -0.064543482323
    C           -0.930396246670    -1.859910115009     0.756973770124
    O            1.073383847531     2.183854481263    -0.020849073763
    O           -1.030437690411     2.186872923807     0.084393828169
    H           -1.622209656349     0.074977505733     1.368170053239
    H           -1.640720962639    -2.396160872679     1.354870169835

  Mulliken Charges: (a.u.)
   Center  Symbol    Alpha    Beta     Spin     Total
       1     H     0.40545  0.40545  0.00000  0.18911
       2     C     3.08462  3.08462  0.00000 -0.16925
       3     C     3.07039  3.07039  0.00000 -0.14079
       4     C     2.94739  2.94739  0.00000  0.10522
       5     H     0.41710  0.41710  0.00000  0.16579
       6     C     3.06804  3.06804  0.00000 -0.13609
       7     N     3.27075  3.27075  0.00000  0.45849
       8     C     3.08350  3.08350  0.00000 -0.16700
       9     H     0.41737  0.41737  0.00000  0.16527
      10     C     3.06971  3.06971  0.00000 -0.13942
      11     O     4.17144  4.17144  0.00000 -0.34288
      12     O     4.17144  4.17144  0.00000 -0.34287
      13     H     0.40569  0.40569  0.00000  0.18861
      14     H     0.41710  0.41710  0.00000  0.16580

   Total alpha = 32.00000, Total beta = 32.00000, Total charge =  0.00000

*** Psi4 exiting successfully. Buy a developer a beer!
