  ==> Input File <==

--------------------------------------------------------------------------
set {
	reference rhf
	basis cc-pvtz
}

set_num_threads( 4 )
memory 2 gb

molecule MOL {
0 1

O	 -0.616166	 -0.033383	 0.383406
C	 0.485107	 0.171416	 -0.000134
C	 1.606966	 -0.836201	 0.000174
O	 0.881807	 1.333644	 -0.488437
C	 2.988788	 -0.202529	 -0.000115
H	 1.465110	 -1.474645	 -0.864821
H	 1.465209	 -1.474077	 0.865596
H	 3.131767	 0.419673	 -0.873407
H	 3.750876	 -0.972315	 0.000098
H	 3.131883	 0.420264	 0.872742
C	 -0.070696	 2.385762	 -0.552258
C	 0.617349	 3.596552	 -1.137979
H	 -0.444659	 2.584181	 0.442291
H	 -0.905409	 2.069873	 -1.162006
H	 1.451737	 3.902947	 -0.519683
H	 -0.083544	 4.420587	 -1.200806
H	 0.988309	 3.385756	 -2.133129

	symmetry c1
}
set optking {
	frozen_dihedral = ("
		4 2 3 6
	")
}

ee = optimize('scf')
oeprop('DIPOLE', 'QUADRUPOLE', 'MULLIKEN_CHARGES')
f=open( 'psi4out.xyz', 'w' )
f.write( "17  " )
f.write( str(ee) + "\n" )
f.write( MOL.save_string_xyz() )
f.close()
--------------------------------------------------------------------------

    Molecular point group: c1
  Charge       = 0
  Multiplicity = 1
  Basis Set: CC-PVTZ
  Basis Set:
  @DF-RHF Final Energy:  -345.03726335659610
    Total Energy =                       -345.0372633565964406
    Molecular point group: c1
  Basis Set: CC-PVTZ
  Basis Set:
  Basis Set: CC-PVTZ
  Basis Set:
  @DF-RHF Final Energy:  -345.03785974121820
    Total Energy =                       -345.0378597412178010
  Basis Set: CC-PVTZ
  Basis Set:
  Basis Set: CC-PVTZ
  Basis Set:
  @DF-RHF Final Energy:  -345.03820893922352
    Total Energy =                       -345.0382089392228977
  Basis Set: CC-PVTZ
  Basis Set:
  Basis Set: CC-PVTZ
  Basis Set:
  @DF-RHF Final Energy:  -345.03825259256058
    Total Energy =                       -345.0382525925602977
  Basis Set: CC-PVTZ
  Basis Set:
  Basis Set: CC-PVTZ
  Basis Set:
  @DF-RHF Final Energy:  -345.03828193634422
    Total Energy =                       -345.0382819363438784
  Basis Set: CC-PVTZ
  Basis Set:
  Basis Set: CC-PVTZ
  Basis Set:
  @DF-RHF Final Energy:  -345.03828768234530
    Total Energy =                       -345.0382876823451852
  Basis Set: CC-PVTZ
  Basis Set:
  Charge       = 0
  Multiplicity = 1
  Basis Set: CC-PVTZ
  Basis Set:

    Orbital Energies (a.u.)
    -----------------------

    Doubly Occupied:

       1A    -20.595937     2A    -20.528863     3A    -11.363611
       4A    -11.283361     5A    -11.235997     6A    -11.221167
       7A    -11.219347     8A     -1.471349     9A     -1.363193
      10A     -1.073073    11A     -1.031192    12A     -0.906612
      13A     -0.861417    14A     -0.780298    15A     -0.693400
      16A     -0.680027    17A     -0.675458    18A     -0.629279
      19A     -0.579556    20A     -0.573744    21A     -0.553942
      22A     -0.550033    23A     -0.523835    24A     -0.514489
      25A     -0.507438    26A     -0.491648    27A     -0.454647
      28A     -0.433985

  @DF-RHF Final Energy:  -345.03828774155716

   => Energetics <=

    Nuclear Repulsion Energy =            318.0113347683471829
    One-Electron Energy =               -1100.5054475577874200
    Two-Electron Energy =                 437.4558250478830246
    DFT Exchange-Correlation Energy =       0.0000000000000000
    Empirical Dispersion Energy =           0.0000000000000000
    PCM Polarization Energy =               0.0000000000000000
    EFP Energy =                            0.0000000000000000
    Total Energy =                       -345.0382877415572125
    Molecular point group: c1
  Basis Set: CC-PVTZ
  Basis Set:

  -Total Gradient:
     Atom            X                  Y                   Z
    ------   -----------------  -----------------  -----------------
       1        0.000039519250     0.000015569592    -0.000013927501
       2       -0.000309568285    -0.000336299602    -0.000581449654
       3        0.000472217919     0.000516968237    -0.000218572528
       4        0.000133276611     0.000199422721     0.000462042908
       5        0.000002326845    -0.000003468869    -0.000010088021
       6       -0.000347412949    -0.000370300251     0.000337291712
       7       -0.000000406151    -0.000003685205     0.000002869096
       8        0.000002348765     0.000000282954    -0.000000816775
       9       -0.000003118312    -0.000002230245     0.000001000745
      10       -0.000005662709    -0.000002516664     0.000001013441
      11        0.000034130497    -0.000013184350     0.000046335196
      12       -0.000006448850     0.000000240798    -0.000010480361
      13       -0.000007194290     0.000006832178    -0.000006010422
      14       -0.000002558580    -0.000006011513    -0.000008049588
      15       -0.000002777573    -0.000004592913     0.000001615268
      16       -0.000000669338     0.000001080065    -0.000001432313
      17        0.000001997147     0.000001893066    -0.000001341203

  **** Optimization is complete! (in 7 steps) ****
    Final optimized geometry and variables:
    Molecular point group: c1

    Geometry (in Angstrom), charge = 0, multiplicity = 1:

    O           -1.436283539514    -0.968654109467     0.631488904752
    C           -0.334535403151    -0.738425690766     0.261203886974
    C            0.772954185831    -1.766481967556     0.269346797324
    O            0.037555314615     0.431641473704    -0.221268315994
    C            2.198262164481    -1.228850362173     0.268578079686
    H            0.602606492464    -2.392116898841    -0.601631678765
    H            0.590638142014    -2.395873041464     1.129643627802
    H            2.403834786519    -0.648877713450    -0.620056998186
    H            2.899688290113    -2.053328051646     0.306210215536
    H            2.380599375153    -0.596108412642     1.128569106769
    C           -0.944139370620     1.456344007882    -0.301473654258
    C           -0.282861457178     2.685568291286    -0.879414580808
    H           -1.338035129437     1.644161720368     0.687140858770
    H           -1.759865371488     1.114346425752    -0.922444152773
    H            0.532958461516     3.017528046765    -0.249632860484
    H           -1.006737899349     3.488462573981    -0.953847458259
    H            0.108325133627     2.484762508516    -1.868904473197

  Mulliken Charges: (a.u.)
   Center  Symbol    Alpha    Beta     Spin     Total
       1     O     4.20314  4.20314  0.00000 -0.40628
       2     C     2.81153  2.81153  0.00000  0.37695
       3     C     3.08863  3.08863  0.00000 -0.17726
       4     O     4.14845  4.14845  0.00000 -0.29690
       5     C     3.14242  3.14242  0.00000 -0.28484
       6     H     0.44450  0.44450  0.00000  0.11099
       7     H     0.43598  0.43598  0.00000  0.12804
       8     H     0.44799  0.44799  0.00000  0.10401
       9     H     0.44909  0.44909  0.00000  0.10181
      10     H     0.45162  0.45162  0.00000  0.09676
      11     C     2.97917  2.97917  0.00000  0.04167
      12     C     3.13384  3.13384  0.00000 -0.26768
      13     H     0.45362  0.45362  0.00000  0.09276
      14     H     0.45351  0.45351  0.00000  0.09297
      15     H     0.45124  0.45124  0.00000  0.09752
      16     H     0.45369  0.45369  0.00000  0.09263
      17     H     0.45158  0.45158  0.00000  0.09683

   Total alpha = 28.00000, Total beta = 28.00000, Total charge =  0.00000
