  ==> Input File <==

--------------------------------------------------------------------------
set {
	reference rhf
	basis 6-31G*
}

set_num_threads( 1 )
memory 2 gb

molecule MOL {
0 1

O	 -2.439739	 -0.935931	 -0.423848
C	 -1.921153	 0.064240	 -0.045697
C	 -2.624470	 1.379923	 0.150949
O	 -0.632575	 0.154573	 0.251549
H	 -2.168117	 2.136577	 -0.476876
H	 -3.669540	 1.273223	 -0.098610
H	 -2.519365	 1.700893	 1.180846
C	 0.160891	 -1.019931	 0.106212
C	 1.589627	 -0.672828	 0.480843
H	 0.089836	 -1.367806	 -0.916050
H	 -0.238459	 -1.792301	 0.749618
C	 2.512560	 -1.886908	 0.601694
H	 1.558700	 -0.141786	 1.430037
H	 1.986239	 0.022723	 -0.254117
C	 3.935457	 -1.503588	 1.005958
H	 2.101821	 -2.577659	 1.335354
H	 2.533747	 -2.417265	 -0.344684
H	 4.569936	 -2.380738	 1.083920
H	 3.949331	 -0.998859	 1.967901
H	 4.383664	 -0.835415	 0.276071

	symmetry c1
}
set optking {
	frozen_dihedral = ("
		16 12 9 8,
		2 4 8 10,
		1 2 4 8
	")
}

ee = energy('scf')
oeprop('DIPOLE', 'QUADRUPOLE', 'MULLIKEN_CHARGES')
f=open( 'psi4out.xyz', 'w' )
f.write( "20  " )
f.write( str(ee) + "\n" )
f.write( MOL.save_string_xyz() )
f.close()
--------------------------------------------------------------------------

    Molecular point group: c1

    Geometry (in Angstrom), charge = 0, multiplicity = 1:

       Center              X                  Y                   Z               Mass
    ------------   -----------------  -----------------  -----------------  -----------------
           O         -2.503225575965    -0.388024691151    -0.689375644825    15.994914619560
           C         -1.984639575965     0.612146308849    -0.311224644825    12.000000000000
           C         -2.687956575965     1.927829308849    -0.114578644825    12.000000000000
           O         -0.696061575965     0.702479308849    -0.013978644825    15.994914619560
           H         -2.231603575965     2.684483308849    -0.742403644825     1.007825032070
           H         -3.733026575965     1.821129308849    -0.364137644825     1.007825032070
           H         -2.582851575965     2.248799308849     0.915318355175     1.007825032070
           C          0.097404424035    -0.472024691151    -0.159315644825    12.000000000000
           C          1.526140424035    -0.124921691151     0.215315355175    12.000000000000
           H          0.026349424035    -0.819899691151    -1.181577644825     1.007825032070
           H         -0.301945575965    -1.244394691151     0.484090355175     1.007825032070
           C          2.449073424035    -1.339001691151     0.336166355175    12.000000000000
           H          1.495213424035     0.406120308849     1.164509355175     1.007825032070
           H          1.922752424035     0.570629308849    -0.519644644825     1.007825032070
           C          3.871970424035    -0.955681691151     0.740430355175    12.000000000000
           H          2.038334424035    -2.029752691151     1.069826355175     1.007825032070
           H          2.470260424035    -1.869358691151    -0.610211644825     1.007825032070
           H          4.506449424035    -1.832831691151     0.818392355175     1.007825032070
           H          3.885844424035    -0.450952691151     1.702373355175     1.007825032070
           H          4.320177424035    -0.287508691151     0.010543355175     1.007825032070

  Charge       = 0
  Multiplicity = 1
  Basis Set: 6-31G*
  Basis Set:

    Orbital Energies (a.u.)
    -----------------------

    Doubly Occupied:

       1A    -20.601510     2A    -20.543589     3A    -11.374138
       4A    -11.281778     5A    -11.232980     6A    -11.226784
       7A    -11.224320     8A    -11.216528     9A     -1.467431
      10A     -1.361669    11A     -1.087772    12A     -1.029902
      13A     -0.981151    14A     -0.881669    15A     -0.807805
      16A     -0.776028    17A     -0.692147    18A     -0.686020
      19A     -0.668220    20A     -0.638263    21A     -0.594964
      22A     -0.594267    23A     -0.570335    24A     -0.559634
      25A     -0.545042    26A     -0.520024    27A     -0.507120
      28A     -0.485457    29A     -0.480545    30A     -0.476330
      31A     -0.452041    32A     -0.437282

  @DF-RHF Final Energy:  -383.94503876549425

   => Energetics <=

    Nuclear Repulsion Energy =            378.5231653940998058
    One-Electron Energy =               -1272.9308260543982669
    Two-Electron Energy =                 510.4626218948036467
    DFT Exchange-Correlation Energy =       0.0000000000000000
    Empirical Dispersion Energy =           0.0000000000000000
    PCM Polarization Energy =               0.0000000000000000
    EFP Energy =                            0.0000000000000000
    Total Energy =                       -383.9450387654948145

  Mulliken Charges: (a.u.)
   Center  Symbol    Alpha    Beta     Spin     Total
       1     O     4.28325  4.28325  0.00000 -0.56650
       2     C     2.61991  2.61991  0.00000  0.76019
       3     C     3.28152  3.28152  0.00000 -0.56305
       4     O     4.31112  4.31112  0.00000 -0.62225
       5     H     0.40046  0.40046  0.00000  0.19909
       6     H     0.39700  0.39700  0.00000  0.20600
       7     H     0.40066  0.40066  0.00000  0.19868
       8     C     2.99465  2.99465  0.00000  0.01071
       9     C     3.16448  3.16448  0.00000 -0.32896
      10     H     0.41076  0.41076  0.00000  0.17848
      11     H     0.41189  0.41189  0.00000  0.17622
      12     C     3.15947  3.15947  0.00000 -0.31895
      13     H     0.41430  0.41430  0.00000  0.17140
      14     H     0.41560  0.41560  0.00000  0.16879
      15     C     3.23965  3.23965  0.00000 -0.47930
      16     H     0.41967  0.41967  0.00000  0.16066
      17     H     0.41949  0.41949  0.00000  0.16103
      18     H     0.41671  0.41671  0.00000  0.16658
      19     H     0.41957  0.41957  0.00000  0.16086
      20     H     0.41983  0.41983  0.00000  0.16033

   Total alpha = 32.00000, Total beta = 32.00000, Total charge =  0.00000
