                              Psi4 1.0.54 Driver

  ==> Input File <==

--------------------------------------------------------------------------
set {
	reference rhf
	basis cc-pvtz
}

set_num_threads( 4 )
memory 2 gb

molecule MOL {
0 1

H	 2.455287	 0.465455	 0.558183
O	 1.568028	 0.590683	 0.838781
C	 0.700177	 0.619554	 -0.266242
C	 -0.713111	 0.588314	 0.266177
H	 0.865826	 -0.241949	 -0.906006
H	 0.848986	 1.522097	 -0.853311
O	 -1.421673	 -0.521378	 -0.196983
H	 -1.244794	 1.469161	 -0.069059
H	 -0.685100	 0.604721	 1.352683
H	 -0.933408	 -1.297830	 0.014544

	symmetry c1
}
set optking {
	frozen_dihedral = ("
		5 3 4 7
	")
}

ee,wfn = optimize('scf', return_wfn=True)
oeprop( wfn, 'DIPOLE', 'QUADRUPOLE', 'MULLIKEN_CHARGES')
f=open( 'psi4out.xyz', 'w' )
f.write( "10  " )
f.write( str(ee) + "\n" )
f.write( MOL.save_string_xyz() )
f.close()
--------------------------------------------------------------------------

    Molecular point group: c1
  Charge       = 0
  Multiplicity = 1
  Basis Set: CC-PVTZ
  Basis Set:
  @DF-RHF Final Energy:  -229.01874504058870
    Total Energy =                       -229.0187450405886693
    Molecular point group: c1
  Basis Set: CC-PVTZ
  Basis Set:
  Basis Set: CC-PVTZ
  Basis Set:
  @DF-RHF Final Energy:  -229.01990882515241
    Total Energy =                       -229.0199088251523563
  Basis Set: CC-PVTZ
  Basis Set:
  Basis Set: CC-PVTZ
  Basis Set:
  @DF-RHF Final Energy:  -229.02033963247391
    Total Energy =                       -229.0203396324738492
  Basis Set: CC-PVTZ
  Basis Set:
  Basis Set: CC-PVTZ
  Basis Set:
  @DF-RHF Final Energy:  -229.02038992875481
    Total Energy =                       -229.0203899287548950
  Basis Set: CC-PVTZ
  Basis Set:
  Basis Set: CC-PVTZ
  Basis Set:
  @DF-RHF Final Energy:  -229.02039175599504
    Total Energy =                       -229.0203917559951492
  Basis Set: CC-PVTZ
  Basis Set:
  Charge       = 0
  Multiplicity = 1
  Basis Set: CC-PVTZ
  Basis Set:

    Orbital Energies (a.u.)
    -----------------------

    Doubly Occupied:

       1A    -20.554438     2A    -20.549225     3A    -11.271164
       4A    -11.267451     5A     -1.376892     6A     -1.362005
       7A     -0.997099     8A     -0.847750     9A     -0.728864
      10A     -0.670380    11A     -0.656667    12A     -0.609565
      13A     -0.576167    14A     -0.528040    15A     -0.494703
      16A     -0.450262    17A     -0.436694

  @DF-RHF Final Energy:  -229.02039202569111

   => Energetics <=

    Nuclear Repulsion Energy =            131.5122664582438290
    One-Electron Energy =                -574.3105827608508207
    Two-Electron Energy =                 213.7779242769159112
    DFT Exchange-Correlation Energy =       0.0000000000000000
    Empirical Dispersion Energy =           0.0000000000000000
    PCM Polarization Energy =               0.0000000000000000
    EFP Energy =                            0.0000000000000000
    Total Energy =                       -229.0203920256910521
    Molecular point group: c1
  Basis Set: CC-PVTZ
  Basis Set:

  -Total Gradient:
     Atom            X                  Y                   Z
    ------   -----------------  -----------------  -----------------
       1       -0.000021332710     0.000004185217     0.000007472905
       2        0.000016657383    -0.000003168176     0.000000429851
       3       -0.000592674047     0.001081335117    -0.001566601288
       4        0.000536533266    -0.000932451022     0.001364209807
       5        0.000395853980    -0.000704016997     0.001020803292
       6        0.000001196865    -0.000006257644    -0.000003391211
       7       -0.000326163221     0.000561579889    -0.000815495601
       8        0.000001880374    -0.000011972655    -0.000002324213
       9       -0.000006497061     0.000006447253     0.000003311059
      10       -0.000005454824     0.000004319016    -0.000008414600

  **** Optimization is complete! (in 6 steps) ****
    Final optimized geometry and variables:
    Molecular point group: c1

    Geometry (in Angstrom), charge = 0, multiplicity = 1:

    H            2.437518583627     0.329063414271     0.346180729371
    O            1.551204821253     0.272870565092     0.652603288387
    C            0.660147802314     0.324740337408    -0.433432395965
    C           -0.772560315699     0.295230771001     0.105901686470
    H            0.801981355589    -0.532177022150    -1.083985368653
    H            0.831073588266     1.223855361224    -1.017072749009
    O           -1.518806843031    -0.795566509113    -0.360046340946
    H           -1.313685999911     1.174413221671    -0.212907897804
    H           -0.725669756610     0.307657553887     1.188563093480
    H           -1.206920657192    -1.589138362854     0.035983179995

  Mulliken Charges: (a.u.)
   Center  Symbol    Alpha    Beta     Spin     Total
       1     H     0.39307  0.39307  0.00000  0.21386
       2     O     4.20017  4.20017  0.00000 -0.40034
       3     C     2.97389  2.97389  0.00000  0.05223
       4     C     2.97182  2.97182  0.00000  0.05636
       5     H     0.47232  0.47232  0.00000  0.05536
       6     H     0.47336  0.47336  0.00000  0.05327
       7     O     4.20305  4.20305  0.00000 -0.40610
       8     H     0.45828  0.45828  0.00000  0.08344
       9     H     0.46199  0.46199  0.00000  0.07602
      10     H     0.39205  0.39205  0.00000  0.21591

   Total alpha = 17.00000, Total beta = 17.00000, Total charge = -0.00000

*** Psi4 exiting successfully. Buy a developer a beer!
