  ==> Input File <==

--------------------------------------------------------------------------
set {
	reference rhf
	basis 6-31G*
}

set_num_threads( 1 )
memory 2 gb

molecule MOL {
0 1

O	 -3.258604	 0.420159	 -0.991373
C	 -2.668563	 0.129746	 -0.000350
C	 -3.187552	 0.385199	 1.391290
O	 -1.481751	 -0.454642	 0.000584
H	 -4.138889	 -0.120409	 1.506097
H	 -2.496601	 0.043986	 2.147992
H	 -3.365129	 1.447747	 1.506780
C	 -0.334255	 0.388708	 0.000906
C	 0.891947	 -0.504646	 0.000751
H	 -0.365390	 1.025305	 -0.873475
H	 -0.365484	 1.024911	 0.875569
C	 2.191998	 0.301789	 0.000897
H	 0.855148	 -1.151283	 -0.871571
H	 0.855132	 -1.151660	 0.872805
C	 3.441114	 -0.581407	 0.000108
H	 2.215074	 0.954890	 -0.869742
H	 2.215465	 0.953923	 0.872248
C	 4.739576	 0.224112	 -0.001102
H	 3.419457	 -1.233487	 -0.870178
H	 3.420834	 -1.233096	 0.870717
H	 4.804918	 0.861552	 -0.878265
H	 5.606527	 -0.429058	 -0.001824
H	 4.806469	 0.861674	 0.875853

	symmetry c1
}
set optking {
	frozen_dihedral = ("
		13 9 8 10,
		2 4 8 10,
		16 12 9 13,
		19 15 12 16
	")
}

ee = energy('scf')
oeprop('DIPOLE', 'QUADRUPOLE', 'MULLIKEN_CHARGES')
f=open( 'psi4out.xyz', 'w' )
f.write( "23  " )
f.write( str(ee) + "\n" )
f.write( MOL.save_string_xyz() )
f.close()
--------------------------------------------------------------------------

    Molecular point group: c1

    Geometry (in Angstrom), charge = 0, multiplicity = 1:

       Center              X                  Y                   Z               Mass
    ------------   -----------------  -----------------  -----------------  -----------------
           O         -3.279156146407     0.378345043872    -1.037997520740    15.994914619560
           C         -2.689115146407     0.087932043872    -0.046974520740    12.000000000000
           C         -3.208104146407     0.343385043872     1.344665479260    12.000000000000
           O         -1.502303146407    -0.496455956128    -0.046040520740    15.994914619560
           H         -4.159441146407    -0.162222956128     1.459472479260     1.007825032070
           H         -2.517153146407     0.002172043872     2.101367479260     1.007825032070
           H         -3.385681146407     1.405933043872     1.460155479260     1.007825032070
           C         -0.354807146407     0.346894043872    -0.045718520740    12.000000000000
           C          0.871394853593    -0.546459956128    -0.045873520740    12.000000000000
           H         -0.385942146407     0.983491043872    -0.920099520740     1.007825032070
           H         -0.386036146407     0.983097043872     0.828944479260     1.007825032070
           C          2.171445853593     0.259975043872    -0.045727520740    12.000000000000
           H          0.834595853593    -1.193096956128    -0.918195520740     1.007825032070
           H          0.834579853593    -1.193473956128     0.826180479260     1.007825032070
           C          3.420561853593    -0.623220956128    -0.046516520740    12.000000000000
           H          2.194521853593     0.913076043872    -0.916366520740     1.007825032070
           H          2.194912853593     0.912109043872     0.825623479260     1.007825032070
           C          4.719023853593     0.182298043872    -0.047726520740    12.000000000000
           H          3.398904853593    -1.275300956128    -0.916802520740     1.007825032070
           H          3.400281853593    -1.274909956128     0.824092479260     1.007825032070
           H          4.784365853593     0.819738043872    -0.924889520740     1.007825032070
           H          5.585974853593    -0.470871956128    -0.048448520740     1.007825032070
           H          4.785916853593     0.819860043872     0.829228479260     1.007825032070

  Charge       = 0
  Multiplicity = 1
  Basis Set: 6-31G*
  Basis Set:

    Orbital Energies (a.u.)
    -----------------------

    Doubly Occupied:

       1A    -20.583103     2A    -20.550147     3A    -11.374813
       4A    -11.295903     5A    -11.232374     6A    -11.229066
       7A    -11.227931     8A    -11.224525     9A    -11.215362
      10A     -1.461339    11A     -1.364543    12A     -1.097245
      13A     -1.039018    14A     -1.007095    15A     -0.938333
      16A     -0.846043    17A     -0.807140    18A     -0.777083
      19A     -0.700105    20A     -0.684785    21A     -0.654984
      22A     -0.651077    23A     -0.618612    24A     -0.591709
      25A     -0.582949    26A     -0.576577    27A     -0.560053
      28A     -0.550171    29A     -0.518019    30A     -0.502335
      31A     -0.484481    32A     -0.479292    33A     -0.474694
      34A     -0.472524    35A     -0.453270    36A     -0.432892

  @DF-RHF Final Energy:  -422.95757652752627

   => Energetics <=

    Nuclear Repulsion Energy =            449.9413098302959497
    One-Electron Energy =               -1467.2785836558125538
    Two-Electron Energy =                 594.3796972979903330
    DFT Exchange-Correlation Energy =       0.0000000000000000
    Empirical Dispersion Energy =           0.0000000000000000
    PCM Polarization Energy =               0.0000000000000000
    EFP Energy =                            0.0000000000000000
    Total Energy =                       -422.9575765275262711

  Mulliken Charges: (a.u.)
   Center  Symbol    Alpha    Beta     Spin     Total
       1     O     4.25623  4.25623  0.00000 -0.51246
       2     C     2.62539  2.62539  0.00000  0.74923
       3     C     3.29423  3.29423  0.00000 -0.58846
       4     O     4.31715  4.31715  0.00000 -0.63430
       5     H     0.39477  0.39477  0.00000  0.21045
       6     H     0.40465  0.40465  0.00000  0.19070
       7     H     0.39925  0.39925  0.00000  0.20150
       8     C     2.99676  2.99676  0.00000  0.00648
       9     C     3.16328  3.16328  0.00000 -0.32655
      10     H     0.40946  0.40946  0.00000  0.18108
      11     H     0.42241  0.42241  0.00000  0.15518
      12     C     3.16140  3.16140  0.00000 -0.32279
      13     H     0.40772  0.40772  0.00000  0.18456
      14     H     0.41295  0.41295  0.00000  0.17409
      15     C     3.15180  3.15180  0.00000 -0.30360
      16     H     0.42009  0.42009  0.00000  0.15983
      17     H     0.42248  0.42248  0.00000  0.15504
      18     C     3.24000  3.24000  0.00000 -0.47999
      19     H     0.41985  0.41985  0.00000  0.16030
      20     H     0.42109  0.42109  0.00000  0.15782
      21     H     0.42050  0.42050  0.00000  0.15901
      22     H     0.41723  0.41723  0.00000  0.16553
      23     H     0.42132  0.42132  0.00000  0.15737

   Total alpha = 36.00000, Total beta = 36.00000, Total charge =  0.00000
