  ==> Input File <==

--------------------------------------------------------------------------
set {
	reference rhf
	basis 6-31G*
}

set_num_threads( 4 )
memory 2 gb

molecule MOL {
0 1

H	 -0.944757	 -0.000069	 1.678017
O	 -0.042387	 -0.000390	 1.388199
C	 -0.001487	 0.000018	 -0.026623
C	 1.367263	 -0.493545	 -0.499444
C	 -1.119625	 -0.890782	 -0.571496
C	 -0.221885	 1.453277	 -0.431451
H	 1.446227	 -0.465667	 -1.581519
H	 1.538642	 -1.519642	 -0.182177
H	 2.154105	 0.123511	 -0.079756
H	 -1.140680	 -0.880802	 -1.656644
H	 -0.981823	 -1.921667	 -0.253350
H	 -2.082000	 -0.551811	 -0.204331
H	 -0.207533	 1.562684	 -1.511066
H	 0.554557	 2.081494	 -0.009586
H	 -1.178256	 1.804425	 -0.060721

	symmetry c1
}
set optking {
	frozen_dihedral = ("
		4 3 2 1
	")
}

ee = optimize('scf')
oeprop('DIPOLE', 'QUADRUPOLE', 'MULLIKEN_CHARGES')
f=open( 'psi4out.xyz', 'w' )
f.write( "15  " )
f.write( str(ee) + "\n" )
f.write( MOL.save_string_xyz() )
f.close()
--------------------------------------------------------------------------

    Molecular point group: c1
  Charge       = 0
  Multiplicity = 1
  Basis Set: 6-31G*
  Basis Set:
  @DF-RHF Final Energy:  -232.15075532823440
    Total Energy =                       -232.1507553282343110
    Molecular point group: c1
  Basis Set: 6-31G*
  Basis Set:
  Basis Set: 6-31G*
  Basis Set:
  @DF-RHF Final Energy:  -232.15240252554577
    Total Energy =                       -232.1524025255457673
  Basis Set: 6-31G*
  Basis Set:
  Basis Set: 6-31G*
  Basis Set:
  @DF-RHF Final Energy:  -232.15273807566965
    Total Energy =                       -232.1527380756696175
  Basis Set: 6-31G*
  Basis Set:
  Basis Set: 6-31G*
  Basis Set:
  @DF-RHF Final Energy:  -232.15271658889353
    Total Energy =                       -232.1527165888935542
  Basis Set: 6-31G*
  Basis Set:
  Basis Set: 6-31G*
  Basis Set:
  @DF-RHF Final Energy:  -232.15274872703847
    Total Energy =                       -232.1527487270384995
  Basis Set: 6-31G*
  Basis Set:
  Basis Set: 6-31G*
  Basis Set:
  @DF-RHF Final Energy:  -232.15274750049454
    Total Energy =                       -232.1527475004946837
  Basis Set: 6-31G*
  Basis Set:
  Charge       = 0
  Multiplicity = 1
  Basis Set: 6-31G*
  Basis Set:

    Orbital Energies (a.u.)
    -----------------------

    Doubly Occupied:

       1A    -20.548526     2A    -11.281878     3A    -11.214715
       4A    -11.207764     5A    -11.205006     6A     -1.360010
       7A     -1.063403     8A     -0.942921     9A     -0.937933
      10A     -0.775615    11A     -0.669908    12A     -0.622513
      13A     -0.621171    14A     -0.574807    15A     -0.556751
      16A     -0.531793    17A     -0.516808    18A     -0.508888
      19A     -0.502777    20A     -0.456804    21A     -0.424792

  @DF-RHF Final Energy:  -232.15274950719686

   => Energetics <=

    Nuclear Repulsion Energy =            200.3313043655776937
    One-Electron Energy =                -711.9185413158177198
    Two-Electron Energy =                 279.4344874430427694
    DFT Exchange-Correlation Energy =       0.0000000000000000
    Empirical Dispersion Energy =           0.0000000000000000
    PCM Polarization Energy =               0.0000000000000000
    EFP Energy =                            0.0000000000000000
    Total Energy =                       -232.1527495071972567
    Molecular point group: c1
  Basis Set: 6-31G*
  Basis Set:

  -Total Gradient:
     Atom            X                  Y                   Z
    ------   -----------------  -----------------  -----------------
       1       -0.000032585585    -0.001910974419    -0.000077140880
       2       -0.000099398950     0.002026207433     0.000143289098
       3        0.000551453425     0.000943557908     0.000057335511
       4       -0.000398312024    -0.001067106973    -0.000066537517
       5       -0.000011817033     0.000022699556    -0.000012596832
       6       -0.000006550237    -0.000009024096    -0.000031722329
       7        0.000004532964    -0.000004166911     0.000000124512
       8       -0.000002662362     0.000006230202    -0.000002486829
       9        0.000010407402    -0.000003776296    -0.000002489457
      10       -0.000003213094    -0.000004566465    -0.000000249090
      11        0.000006449489     0.000010780447     0.000000242363
      12       -0.000013847503    -0.000004699561    -0.000002897922
      13       -0.000003363723     0.000013270030    -0.000007168179
      14       -0.000000589281    -0.000016502228     0.000000861725
      15       -0.000000503490    -0.000001928627     0.000001435828

  **** Optimization is complete! (in 7 steps) ****
    Final optimized geometry and variables:
    Molecular point group: c1

    Geometry (in Angstrom), charge = 0, multiplicity = 1:

    H           -0.865437830414    -0.067543602068     1.722259664853
    O            0.021050242609    -0.066393309650     1.388509792107
    C           -0.000642718476     0.006200008031    -0.026052970168
    C            1.365249470957    -0.498703609733    -0.479133516089
    C           -1.111244501934    -0.892947065711    -0.572898200795
    C           -0.218430675657     1.458884094013    -0.451710588106
    H            1.458669041203    -0.454719720887    -1.559584017467
    H            1.510954859122    -1.524103907310    -0.158871980117
    H            2.151747133700     0.105811426616    -0.040988368075
    H           -1.122607121092    -0.889401470575    -1.657755803631
    H           -0.971479295614    -1.914324672000    -0.234776946044
    H           -2.087851564568    -0.553483852534    -0.233786457382
    H           -0.206824471677     1.562860672306    -1.532452226649
    H            0.558783188179     2.089914083706    -0.035413123010
    H           -1.175960842690     1.824341817129    -0.090278497514

  Mulliken Charges: (a.u.)
   Center  Symbol    Alpha    Beta     Spin     Total
       1     H     0.28285  0.28285  0.00000  0.43429
       2     O     4.37780  4.37780  0.00000 -0.75561
       3     C     2.85116  2.85116  0.00000  0.29768
       4     C     3.23323  3.23323  0.00000 -0.46645
       5     C     3.24981  3.24981  0.00000 -0.49962
       6     C     3.23531  3.23531  0.00000 -0.47063
       7     H     0.42444  0.42444  0.00000  0.15112
       8     H     0.41477  0.41477  0.00000  0.17046
       9     H     0.41287  0.41287  0.00000  0.17427
      10     H     0.41779  0.41779  0.00000  0.16442
      11     H     0.41255  0.41255  0.00000  0.17489
      12     H     0.42559  0.42559  0.00000  0.14881
      13     H     0.42369  0.42369  0.00000  0.15262
      14     H     0.41265  0.41265  0.00000  0.17469
      15     H     0.42548  0.42548  0.00000  0.14904

   Total alpha = 21.00000, Total beta = 21.00000, Total charge =  0.00000
