  ==> Input File <==

--------------------------------------------------------------------------
set {
	reference rhf
	basis 6-31G*
}

set_num_threads( 4 )
memory 2 gb

molecule MOL {
0 1

O	 -1.276010	 1.052711	 -0.768302
C	 -1.204840	 0.067374	 -0.106123
C	 -2.388195	 -0.672128	 0.458071
O	 -0.067104	 -0.527208	 0.221609
H	 -2.388023	 -1.694060	 0.097175
H	 -3.300579	 -0.174919	 0.164318
H	 -2.315377	 -0.706351	 1.539059
C	 1.170111	 0.034140	 -0.238951
C	 1.554617	 -0.761141	 -1.473970
C	 2.211716	 -0.041725	 0.866466
H	 0.989164	 1.066370	 -0.500228
H	 0.779946	 -0.693707	 -2.229340
H	 2.477744	 -0.375753	 -1.894260
H	 1.700658	 -1.807105	 -1.226409
H	 3.157087	 0.360618	 0.516596
H	 1.898797	 0.532875	 1.728958
H	 2.369596	 -1.072168	 1.168571

	symmetry c1
}
set optking {
	frozen_dihedral = ("
		11 8 4 2
	")
}

ee = optimize('scf')
oeprop('DIPOLE', 'QUADRUPOLE', 'MULLIKEN_CHARGES')
f=open( 'psi4out.xyz', 'w' )
f.write( "17  " )
f.write( str(ee) + "\n" )
f.write( MOL.save_string_xyz() )
f.close()
--------------------------------------------------------------------------

    Molecular point group: c1
  Charge       = 0
  Multiplicity = 1
  Basis Set: 6-31G*
  Basis Set:
  @DF-RHF Final Energy:  -344.91323418486638
    Total Energy =                       -344.9132341848663827
    Molecular point group: c1
  Basis Set: 6-31G*
  Basis Set:
  Basis Set: 6-31G*
  Basis Set:
  @DF-RHF Final Energy:  -344.91404246423900
    Total Energy =                       -344.9140424642389462
  Basis Set: 6-31G*
  Basis Set:
  Basis Set: 6-31G*
  Basis Set:
  @DF-RHF Final Energy:  -344.91411540866170
    Total Energy =                       -344.9141154086619281
  Basis Set: 6-31G*
  Basis Set:
  Basis Set: 6-31G*
  Basis Set:
  @DF-RHF Final Energy:  -344.91380848843670
    Total Energy =                       -344.9138084884363025
  Basis Set: 6-31G*
  Basis Set:
  Basis Set: 6-31G*
  Basis Set:
  @DF-RHF Final Energy:  -344.91413414613129
    Total Energy =                       -344.9141341461312891
  Basis Set: 6-31G*
  Basis Set:
  Charge       = 0
  Multiplicity = 1
  Basis Set: 6-31G*
  Basis Set:

    Orbital Energies (a.u.)
    -----------------------

    Doubly Occupied:

       1A    -20.598486     2A    -20.542776     3A    -11.375037
       4A    -11.288943     5A    -11.232250     6A    -11.219731
       7A    -11.217539     8A     -1.464734     9A     -1.361639
      10A     -1.078744    11A     -1.004972    12A     -0.948584
      13A     -0.847914    14A     -0.767801    15A     -0.692101
      16A     -0.666376    17A     -0.659744    18A     -0.612630
      19A     -0.586655    20A     -0.578554    21A     -0.565318
      22A     -0.551401    23A     -0.535618    24A     -0.521535
      25A     -0.502259    26A     -0.482454    27A     -0.444756
      28A     -0.436576

  @DF-RHF Final Energy:  -344.91413464847886

   => Energetics <=

    Nuclear Repulsion Energy =            322.2222759591746239
    One-Electron Energy =               -1108.7025638814293416
    Two-Electron Energy =                 441.5661532737761945
    DFT Exchange-Correlation Energy =       0.0000000000000000
    Empirical Dispersion Energy =           0.0000000000000000
    PCM Polarization Energy =               0.0000000000000000
    EFP Energy =                            0.0000000000000000
    Total Energy =                       -344.9141346484785799
    Molecular point group: c1
  Basis Set: 6-31G*
  Basis Set:

  -Total Gradient:
     Atom            X                  Y                   Z
    ------   -----------------  -----------------  -----------------
       1        0.000020781428     0.000001002787     0.000000010587
       2        0.000098667161     0.000711310790     0.001042236165
       3        0.000004270269    -0.000020584456    -0.000017345809
       4       -0.000198683499    -0.001110678576    -0.001784478114
       5       -0.000002693399    -0.000001648590     0.000008818482
       6        0.000004687353     0.000002398069    -0.000003969789
       7        0.000001959676     0.000005566092     0.000003739879
       8        0.000446758083     0.000794170880     0.002060642060
       9       -0.000002233850    -0.000003783123    -0.000026691569
      10       -0.000032029010    -0.000013936901    -0.000010684945
      11       -0.000338647316    -0.000380966348    -0.001298958905
      12       -0.000004273726    -0.000002507871    -0.000005523753
      13       -0.000001234089     0.000002750364     0.000009307433
      14       -0.000002007300     0.000011577255     0.000014337720
      15        0.000003466881     0.000000891906    -0.000005165579
      16       -0.000001313980     0.000000662586     0.000004608573
      17        0.000002525322     0.000003775136     0.000009117566

  **** Optimization is complete! (in 6 steps) ****
    Final optimized geometry and variables:
    Molecular point group: c1

    Geometry (in Angstrom), charge = 0, multiplicity = 1:

    O           -1.301031388828     1.147721473745    -0.651577401106
    C           -1.208644926382     0.187421881995     0.043346150413
    C           -2.373799545423    -0.526508976469     0.674759239911
    O           -0.062313930362    -0.397398246602     0.361044759026
    H           -2.389094289841    -1.560244844370     0.349313835267
    H           -3.294348991094    -0.036273560187     0.395189710954
    H           -2.263445689655    -0.523819616676     1.753020829600
    C            1.171968681464     0.158547928638    -0.113506637429
    C            1.610070149215    -0.616714623650    -1.346185501439
    C            2.160764396992     0.067471004212     1.035169295601
    H            0.993473428652     1.187667060671    -0.382413439789
    H            0.869190215221    -0.529886702908    -2.132752537575
    H            2.550302432235    -0.226527919479    -1.722561845155
    H            1.743816960217    -1.667257046564    -1.109837392059
    H            3.119806411002     0.478885962113     0.737680981381
    H            1.802123499904     0.623658571467     1.893939206027
    H            2.307896939768    -0.964977414419     1.333747423175

  Mulliken Charges: (a.u.)
   Center  Symbol    Alpha    Beta     Spin     Total
       1     O     4.28482  4.28482  0.00000 -0.56965
       2     C     2.61803  2.61803  0.00000  0.76395
       3     C     3.28204  3.28204  0.00000 -0.56407
       4     O     4.31356  4.31356  0.00000 -0.62711
       5     H     0.40075  0.40075  0.00000  0.19851
       6     H     0.39736  0.39736  0.00000  0.20528
       7     H     0.40098  0.40098  0.00000  0.19805
       8     C     2.93350  2.93350  0.00000  0.13300
       9     C     3.24538  3.24538  0.00000 -0.49076
      10     C     3.24084  3.24084  0.00000 -0.48168
      11     H     0.39561  0.39561  0.00000  0.20878
      12     H     0.40825  0.40825  0.00000  0.18350
      13     H     0.41835  0.41835  0.00000  0.16331
      14     H     0.41587  0.41587  0.00000  0.16825
      15     H     0.41776  0.41776  0.00000  0.16448
      16     H     0.41273  0.41273  0.00000  0.17454
      17     H     0.41419  0.41419  0.00000  0.17162

   Total alpha = 28.00000, Total beta = 28.00000, Total charge = -0.00000
