  ==> Input File <==

--------------------------------------------------------------------------
set {
	reference rhf
	basis 6-31G*
}

set_num_threads( 1 )
memory 2 gb

molecule MOL {
0 1

H	 -3.261111	 -0.295142	 1.469456
C	 -3.306842	 -0.277400	 0.373456
C	 -2.660244	 0.921717	 -0.272021
O	 -3.838538	 -1.161155	 -0.216482
C	 -1.220012	 1.144545	 0.209990
H	 -2.705793	 0.797307	 -1.347733
H	 -3.263782	 1.790044	 -0.010477
C	 -0.252658	 0.041456	 -0.226725
H	 -0.873521	 2.100229	 -0.171974
H	 -1.211708	 1.231594	 1.295398
C	 1.180775	 0.282413	 0.250794
H	 -0.266029	 -0.034465	 -1.312038
H	 -0.597733	 -0.921000	 0.146291
C	 2.148627	 -0.814315	 -0.201312
H	 1.516199	 1.249228	 -0.115937
H	 1.192670	 0.346017	 1.338083
C	 3.580890	 -0.659131	 0.322722
H	 2.166869	 -0.852443	 -1.289387
H	 1.762857	 -1.776509	 0.128956
C	 4.221141	 -1.957428	 0.816808
H	 3.571127	 0.057107	 1.140558
H	 4.203654	 -0.222000	 -0.455097
H	 3.611071	 -2.425705	 1.584792
H	 4.353245	 -2.676320	 0.015112
H	 5.200163	 -1.765114	 1.245209

	symmetry c1
}
set optking {
	frozen_dihedral = ("
		6 3 5 8,
		6 3 2 4,
		3 5 8 12,
		12 8 11 14,
		8 11 14 18
	")
}

ee = energy('scf')
oeprop('DIPOLE', 'QUADRUPOLE', 'MULLIKEN_CHARGES')
f=open( 'psi4out.xyz', 'w' )
f.write( "25  " )
f.write( str(ee) + "\n" )
f.write( MOL.save_string_xyz() )
f.close()
--------------------------------------------------------------------------

    Molecular point group: c1

    Geometry (in Angstrom), charge = 0, multiplicity = 1:

       Center              X                  Y                   Z               Mass
    ------------   -----------------  -----------------  -----------------  -----------------
           H         -3.248792135506     0.000003270715     1.348383723577     1.007825032070
           C         -3.294523135506     0.017745270715     0.252383723577    12.000000000000
           C         -2.647925135506     1.216862270715    -0.393093276423    12.000000000000
           O         -3.826219135506    -0.866009729285    -0.337554276423    15.994914619560
           C         -1.207693135506     1.439690270715     0.088917723577    12.000000000000
           H         -2.693474135506     1.092452270715    -1.468805276423     1.007825032070
           H         -3.251463135506     2.085189270715    -0.131549276423     1.007825032070
           C         -0.240339135506     0.336601270715    -0.347797276423    12.000000000000
           H         -0.861202135506     2.395374270715    -0.293046276423     1.007825032070
           H         -1.199389135506     1.526739270715     1.174325723577     1.007825032070
           C          1.193093864494     0.577558270715     0.129721723577    12.000000000000
           H         -0.253710135506     0.260680270715    -1.433110276423     1.007825032070
           H         -0.585414135506    -0.625854729285     0.025218723577     1.007825032070
           C          2.160945864494    -0.519169729285    -0.322384276423    12.000000000000
           H          1.528517864494     1.544373270715    -0.237009276423     1.007825032070
           H          1.204988864494     0.641162270715     1.217010723577     1.007825032070
           C          3.593208864494    -0.363985729285     0.201649723577    12.000000000000
           H          2.179187864494    -0.557297729285    -1.410459276423     1.007825032070
           H          1.775175864494    -1.481363729285     0.007883723577     1.007825032070
           C          4.233459864494    -1.662282729285     0.695735723577    12.000000000000
           H          3.583445864494     0.352252270715     1.019485723577     1.007825032070
           H          4.215972864494     0.073145270715    -0.576169276423     1.007825032070
           H          3.623389864494    -2.130559729285     1.463719723577     1.007825032070
           H          4.365563864494    -2.381174729285    -0.105960276423     1.007825032070
           H          5.212481864494    -1.469968729285     1.124136723577     1.007825032070

  Charge       = 0
  Multiplicity = 1
  Basis Set: 6-31G*
  Basis Set:

    Orbital Energies (a.u.)
    -----------------------

    Doubly Occupied:

       1A    -20.562068     2A    -11.326187     3A    -11.235431
       4A    -11.234708     5A    -11.223837     6A    -11.220950
       7A    -11.216629     8A    -11.215683     9A    -11.210772
      10A     -1.402036    11A     -1.103797    12A     -1.069033
      13A     -1.014999    14A     -0.943464    15A     -0.869557
      16A     -0.815666    17A     -0.792838    18A     -0.786847
      19A     -0.664197    20A     -0.663926    21A     -0.636539
      22A     -0.618442    23A     -0.601334    24A     -0.596871
      25A     -0.567618    26A     -0.551196    27A     -0.540738
      28A     -0.521687    29A     -0.508409    30A     -0.497735
      31A     -0.488223    32A     -0.478565    33A     -0.463690
      34A     -0.459930    35A     -0.441105    36A     -0.409604

  @DF-RHF Final Energy:  -387.11864536535603

   => Energetics <=

    Nuclear Repulsion Energy =            436.0075585705815797
    One-Electron Energy =               -1388.3441028905249368
    Two-Electron Energy =                 565.2178989545877812
    DFT Exchange-Correlation Energy =       0.0000000000000000
    Empirical Dispersion Energy =           0.0000000000000000
    PCM Polarization Energy =               0.0000000000000000
    EFP Energy =                            0.0000000000000000
    Total Energy =                       -387.1186453653556327

  Mulliken Charges: (a.u.)
   Center  Symbol    Alpha    Beta     Spin     Total
       1     H     0.43261  0.43261  0.00000  0.13479
       2     C     2.83086  2.83086  0.00000  0.33827
       3     C     3.20806  3.20806  0.00000 -0.41613
       4     O     4.23773  4.23773  0.00000 -0.47546
       5     C     3.16664  3.16664  0.00000 -0.33327
       6     H     0.39968  0.39968  0.00000  0.20065
       7     H     0.40667  0.40667  0.00000  0.18665
       8     C     3.15574  3.15574  0.00000 -0.31149
       9     H     0.41280  0.41280  0.00000  0.17440
      10     H     0.41964  0.41964  0.00000  0.16073
      11     C     3.15425  3.15425  0.00000 -0.30850
      12     H     0.41790  0.41790  0.00000  0.16419
      13     H     0.41815  0.41815  0.00000  0.16371
      14     C     3.15419  3.15419  0.00000 -0.30838
      15     H     0.42214  0.42214  0.00000  0.15572
      16     H     0.42310  0.42310  0.00000  0.15379
      17     C     3.15425  3.15425  0.00000 -0.30849
      18     H     0.42051  0.42051  0.00000  0.15897
      19     H     0.42076  0.42076  0.00000  0.15848
      20     C     3.24006  3.24006  0.00000 -0.48013
      21     H     0.42177  0.42177  0.00000  0.15647
      22     H     0.42054  0.42054  0.00000  0.15892
      23     H     0.42176  0.42176  0.00000  0.15649
      24     H     0.42033  0.42033  0.00000  0.15933
      25     H     0.41986  0.41986  0.00000  0.16028

   Total alpha = 36.00000, Total beta = 36.00000, Total charge = -0.00000
