  ==> Input File <==

--------------------------------------------------------------------------
set {
	reference rhf
	basis 6-31G*
}

set_num_threads( 1 )
memory 2 gb

molecule MOL {
0 1

O	 -1.185657	 0.819706	 2.618208
C	 -0.544246	 1.439030	 1.824821
C	 0.719374	 0.854047	 1.218713
C	 -0.969368	 2.814098	 1.360241
C	 0.379448	 -0.143569	 0.099626
H	 1.256627	 0.341640	 2.009347
H	 1.358239	 1.642751	 0.831643
C	 1.631333	 -0.777471	 -0.511575
H	 -0.271748	 -0.905754	 0.512425
H	 -0.184601	 0.361761	 -0.682829
C	 2.915987	 -0.544314	 0.291766
H	 1.766672	 -0.399098	 -1.523130
H	 1.471257	 -1.849544	 -0.605828
C	 3.373361	 0.914346	 0.347591
H	 3.708709	 -1.142521	 -0.150311
H	 2.780642	 -0.921148	 1.303579
H	 3.506512	 1.320010	 -0.651625
H	 4.322697	 0.999599	 0.867103
H	 2.660624	 1.545032	 0.868198
H	 -0.246680	 3.552920	 1.696586
H	 -1.943443	 3.055951	 1.762074
H	 -0.995205	 2.862439	 0.275437

	symmetry c1
}
set optking {
	frozen_dihedral = ("
		6 3 2 1,
		6 3 5 8,
		12 8 11 15
	")
}

ee = energy('scf')
oeprop('DIPOLE', 'QUADRUPOLE', 'MULLIKEN_CHARGES')
f=open( 'psi4out.xyz', 'w' )
f.write( "22  " )
f.write( str(ee) + "\n" )
f.write( MOL.save_string_xyz() )
f.close()
--------------------------------------------------------------------------

    Molecular point group: c1

    Geometry (in Angstrom), charge = 0, multiplicity = 1:

       Center              X                  Y                   Z               Mass
    ------------   -----------------  -----------------  -----------------  -----------------
           O         -1.978322319374     0.133220586226     1.706623688224    15.994914619560
           C         -1.336911319374     0.752544586226     0.913236688224    12.000000000000
           C         -0.073291319374     0.167561586226     0.307128688224    12.000000000000
           C         -1.762033319374     2.127612586226     0.448656688224    12.000000000000
           C         -0.413217319374    -0.830054413774    -0.811958311776    12.000000000000
           H          0.463961680626    -0.344845413774     1.097762688224     1.007825032070
           H          0.565573680626     0.956265586226    -0.079941311776     1.007825032070
           C          0.838667680626    -1.463956413774    -1.423159311776    12.000000000000
           H         -1.064413319374    -1.592239413774    -0.399159311776     1.007825032070
           H         -0.977266319374    -0.324724413774    -1.594413311776     1.007825032070
           C          2.123321680626    -1.230799413774    -0.619818311776    12.000000000000
           H          0.974006680626    -1.085583413774    -2.434714311776     1.007825032070
           H          0.678591680626    -2.536029413774    -1.517412311776     1.007825032070
           C          2.580695680626     0.227860586226    -0.563993311776    12.000000000000
           H          2.916043680626    -1.829006413774    -1.061895311776     1.007825032070
           H          1.987976680626    -1.607633413774     0.391994688224     1.007825032070
           H          2.713846680626     0.633524586226    -1.563209311776     1.007825032070
           H          3.530031680626     0.313113586226    -0.044481311776     1.007825032070
           H          1.867958680626     0.858546586226    -0.043386311776     1.007825032070
           H         -1.039345319374     2.866434586226     0.785001688224     1.007825032070
           H         -2.736108319374     2.369465586226     0.850489688224     1.007825032070
           H         -1.787870319374     2.175953586226    -0.636147311776     1.007825032070

  Charge       = 0
  Multiplicity = 1
  Basis Set: 6-31G*
  Basis Set:

    Orbital Energies (a.u.)
    -----------------------

    Doubly Occupied:

       1A    -20.544722     2A    -11.321302     3A    -11.228895
       4A    -11.227349     5A    -11.223418     6A    -11.222413
       7A    -11.221450     8A    -11.208675     9A     -1.390783
      10A     -1.105202    11A     -1.035826    12A     -0.996945
      13A     -0.955408    14A     -0.856391    15A     -0.784436
      16A     -0.743044    17A     -0.667190    18A     -0.658289
      19A     -0.624356    20A     -0.602179    21A     -0.599808
      22A     -0.587161    23A     -0.571948    24A     -0.546468
      25A     -0.540497    26A     -0.519936    27A     -0.501778
      28A     -0.485650    29A     -0.470188    30A     -0.454453
      31A     -0.444235    32A     -0.392043

  @DF-RHF Final Energy:  -348.05628330866062

   => Energetics <=

    Nuclear Repulsion Energy =            388.6217719550224388
    One-Electron Energy =               -1241.8912300660231267
    Two-Electron Energy =                 505.2131748023397222
    DFT Exchange-Correlation Energy =       0.0000000000000000
    Empirical Dispersion Energy =           0.0000000000000000
    PCM Polarization Energy =               0.0000000000000000
    EFP Energy =                            0.0000000000000000
    Total Energy =                       -348.0562833086609089

  Mulliken Charges: (a.u.)
   Center  Symbol    Alpha    Beta     Spin     Total
       1     O     4.26370  4.26370  0.00000 -0.52740
       2     C     2.73059  2.73059  0.00000  0.53881
       3     C     3.22043  3.22043  0.00000 -0.44086
       4     C     3.29001  3.29001  0.00000 -0.58003
       5     C     3.16051  3.16051  0.00000 -0.32103
       6     H     0.39799  0.39799  0.00000  0.20401
       7     H     0.41096  0.41096  0.00000  0.17807
       8     C     3.15610  3.15610  0.00000 -0.31220
       9     H     0.40303  0.40303  0.00000  0.19394
      10     H     0.41801  0.41801  0.00000  0.16397
      11     C     3.16245  3.16245  0.00000 -0.32490
      12     H     0.42041  0.42041  0.00000  0.15919
      13     H     0.41511  0.41511  0.00000  0.16978
      14     C     3.24279  3.24279  0.00000 -0.48557
      15     H     0.41549  0.41549  0.00000  0.16902
      16     H     0.41879  0.41879  0.00000  0.16242
      17     H     0.42216  0.42216  0.00000  0.15568
      18     H     0.41802  0.41802  0.00000  0.16395
      19     H     0.41826  0.41826  0.00000  0.16347
      20     H     0.40807  0.40807  0.00000  0.18385
      21     H     0.39710  0.39710  0.00000  0.20579
      22     H     0.41000  0.41000  0.00000  0.18000

   Total alpha = 32.00000, Total beta = 32.00000, Total charge =  0.00000
