                              Psi4 1.0.54 Driver

  ==> Input File <==

--------------------------------------------------------------------------
set {
	reference rhf
	basis cc-pvtz
}

set_num_threads( 4 )
memory 2 gb

molecule MOL {
0 1

H	 2.623256	 -0.558680	 1.025102
N	 1.646984	 -0.359854	 1.041542
C	 0.873902	 -1.581147	 0.938440
C	 1.298394	 0.581105	 -0.003888
H	 1.145923	 -2.242290	 1.752226
H	 1.057256	 -2.109589	 0.001024
C	 -0.604844	 -1.250300	 1.027473
H	 1.878011	 1.486779	 0.127065
H	 1.508567	 0.189275	 -1.000841
C	 -0.180908	 0.909119	 0.086380
H	 -0.822951	 -0.863225	 2.027069
H	 -1.186404	 -2.154421	 0.891567
N	 -0.976577	 -0.298712	 -0.000000
H	 -0.455937	 1.566393	 -0.729996
H	 -0.369810	 1.444959	 1.021143
C	 -2.391156	 -0.021003	 -0.000000
H	 -2.853954	 -0.458728	 -0.875714
H	 -2.853954	 -0.458728	 0.875714
H	 -2.614037	 1.049773	 -0.000000

	symmetry c1
}
set optking {
	frozen_dihedral = ("
		7 13 16 19
	")
}

ee,wfn = optimize('scf', return_wfn=True)
oeprop( wfn, 'DIPOLE', 'QUADRUPOLE', 'MULLIKEN_CHARGES')
f=open( 'psi4out.xyz', 'w' )
f.write( "19  " )
f.write( str(ee) + "\n" )
f.write( MOL.save_string_xyz() )
f.close()
--------------------------------------------------------------------------

    Molecular point group: c1
  Charge       = 0
  Multiplicity = 1
  Basis Set: CC-PVTZ
  Basis Set:
  @DF-RHF Final Energy:  -305.30238135817439
    Total Energy =                       -305.3023813581742161
    Molecular point group: c1
  Basis Set: CC-PVTZ
  Basis Set:
  Basis Set: CC-PVTZ
  Basis Set:
  @DF-RHF Final Energy:  -305.30297705014027
    Total Energy =                       -305.3029770501404414
  Basis Set: CC-PVTZ
  Basis Set:
  Basis Set: CC-PVTZ
  Basis Set:
  @DF-RHF Final Energy:  -305.30309361725682
    Total Energy =                       -305.3030936172569909
  Basis Set: CC-PVTZ
  Basis Set:
  Charge       = 0
  Multiplicity = 1
  Basis Set: CC-PVTZ
  Basis Set:

    Orbital Energies (a.u.)
    -----------------------

    Doubly Occupied:

       1A    -15.533509     2A    -15.530600     3A    -11.236481
       4A    -11.236461     5A    -11.235630     6A    -11.235575
       7A    -11.232895     8A     -1.246167     9A     -1.185158
      10A     -1.023382    11A     -0.964844    12A     -0.860983
      13A     -0.859153    14A     -0.757033    15A     -0.691887
      16A     -0.631859    17A     -0.623970    18A     -0.606535
      19A     -0.605399    20A     -0.581693    21A     -0.543855
      22A     -0.535857    23A     -0.512154    24A     -0.488269
      25A     -0.466702    26A     -0.457192    27A     -0.365384
      28A     -0.342502

  @DF-RHF Final Energy:  -305.30309538655922

   => Energetics <=

    Nuclear Repulsion Energy =            339.7533028689551884
    One-Electron Energy =               -1086.9305448258205615
    Two-Electron Energy =                 441.8741465703062659
    DFT Exchange-Correlation Energy =       0.0000000000000000
    Empirical Dispersion Energy =           0.0000000000000000
    PCM Polarization Energy =               0.0000000000000000
    EFP Energy =                            0.0000000000000000
    Total Energy =                       -305.3030953865591073
    Molecular point group: c1
  Basis Set: CC-PVTZ
  Basis Set:

  -Total Gradient:
     Atom            X                  Y                   Z
    ------   -----------------  -----------------  -----------------
       1       -0.000026907903     0.000001479133    -0.000017025391
       2       -0.000033999023     0.000007434993     0.000006738516
       3        0.000009180560    -0.000002411455    -0.000062221630
       4        0.000027425945     0.000063686402     0.000026144953
       5        0.000017167181    -0.000001988927     0.000007977129
       6        0.000008483666    -0.000005201286     0.000003765659
       7        0.000218147172     0.000883749212     0.000902945073
       8        0.000072848433     0.000004379790     0.000005541159
       9       -0.000024819082     0.000004857120     0.000032112289
      10        0.000144234165     0.000009085751     0.000023568699
      11       -0.000020114032     0.000011925914    -0.000031562831
      12        0.000000006075     0.000036902108    -0.000030224486
      13       -0.000381528582    -0.001283593312    -0.000749918847
      14       -0.000002295910    -0.000042063609     0.000008420282
      15        0.000005125810    -0.000028324758    -0.000031125185
      16        0.000059874526     0.000416472241    -0.001657096239
      17        0.000001387232    -0.000011285768    -0.000015541963
      18       -0.000010478852    -0.000000823885     0.000010326409
      19       -0.000063737378    -0.000064279663     0.001567176405

  **** Optimization is complete! (in 4 steps) ****
    Final optimized geometry and variables:
    Molecular point group: c1

    Geometry (in Angstrom), charge = 0, multiplicity = 1:

    H            2.686188306200    -0.318099541064     0.546380729423
    N            1.713630788882    -0.103453242319     0.579459912174
    C            0.919083720934    -1.310662215529     0.477721495524
    C            1.364863440893     0.851337862509    -0.452909166461
    H            1.192471112009    -1.983871557845     1.281351338798
    H            1.079028860820    -1.833423845807    -0.467286870172
    C           -0.552486166405    -0.956687376965     0.592671192622
    H            1.962951887173     1.745692109050    -0.325395702385
    H            1.551402555578     0.462776607460    -1.455960267531
    C           -0.106826508848     1.205633608688    -0.337941698166
    H           -0.750074764404    -0.580125358364     1.600387428945
    H           -1.147341176195    -1.851848561154     0.454480095104
    N           -0.925236089008     0.012128097559    -0.417810332490
    H           -0.377764960102     1.869657312175    -1.149755552476
    H           -0.269268626297     1.744279385198     0.600157572795
    C           -2.352061251138     0.287556637720    -0.446302781472
    H           -2.816625818244    -0.127142420126    -1.334252846518
    H           -2.857527004963    -0.131612739739     0.419122194449
    H           -2.546326615726     1.353670786723    -0.429649843808

  Mulliken Charges: (a.u.)
   Center  Symbol    Alpha    Beta     Spin     Total
       1     H     0.44000  0.44000  0.00000  0.12000
       2     N     3.64276  3.64276  0.00000 -0.28552
       3     C     3.04206  3.04206  0.00000 -0.08412
       4     C     3.04204  3.04204  0.00000 -0.08409
       5     H     0.45274  0.45274  0.00000  0.09451
       6     H     0.46601  0.46601  0.00000  0.06797
       7     C     3.03525  3.03525  0.00000 -0.07050
       8     H     0.45272  0.45272  0.00000  0.09455
       9     H     0.46607  0.46607  0.00000  0.06786
      10     C     3.03488  3.03488  0.00000 -0.06976
      11     H     0.46848  0.46848  0.00000  0.06305
      12     H     0.45350  0.45350  0.00000  0.09300
      13     N     3.61739  3.61739  0.00000 -0.23479
      14     H     0.45363  0.45363  0.00000  0.09275
      15     H     0.46863  0.46863  0.00000  0.06273
      16     C     3.09130  3.09130  0.00000 -0.18261
      17     H     0.45013  0.45013  0.00000  0.09974
      18     H     0.46259  0.46259  0.00000  0.07481
      19     H     0.45980  0.45980  0.00000  0.08040

   Total alpha = 28.00000, Total beta = 28.00000, Total charge = -0.00000

*** Psi4 exiting successfully. Buy a developer a beer!
