  ==> Input File <==

--------------------------------------------------------------------------
set {
	reference rhf
	basis 6-31G*
}

set_num_threads( 1 )
memory 2 gb

molecule MOL {
0 1

H	 2.176868	 -0.646004	 -0.217325
O	 1.337496	 -0.537251	 0.205931
C	 0.702312	 0.627605	 -0.264544
C	 -0.714990	 0.596302	 0.266387
H	 0.682322	 0.642550	 -1.350929
H	 1.215941	 1.520383	 0.085680
O	 -1.405996	 -0.526611	 -0.195820
H	 -1.257453	 1.468809	 -0.075599
H	 -0.688972	 0.618407	 1.353696
H	 -2.324319	 -0.296136	 -0.255644

	symmetry c1
}
set optking {
	frozen_dihedral = ("
		5 3 4 7
	")
}

ee = energy('scf')
oeprop('DIPOLE', 'QUADRUPOLE', 'MULLIKEN_CHARGES')
f=open( 'psi4out.xyz', 'w' )
f.write( "10  " )
f.write( str(ee) + "\n" )
f.write( MOL.save_string_xyz() )
f.close()
--------------------------------------------------------------------------

    Molecular point group: c1

    Geometry (in Angstrom), charge = 0, multiplicity = 1:

       Center              X                  Y                   Z               Mass
    ------------   -----------------  -----------------  -----------------  -----------------
           H          2.200159527102    -0.662194337873    -0.212813468576     1.007825032070
           O          1.360787527102    -0.553441337873     0.210442531424    15.994914619560
           C          0.725603527102     0.611414662127    -0.260032468576    12.000000000000
           C         -0.691698472898     0.580111662127     0.270898531424    12.000000000000
           H          0.705613527102     0.626359662127    -1.346417468576     1.007825032070
           H          1.239232527102     1.504192662127     0.090191531424     1.007825032070
           O         -1.382704472898    -0.542801337873    -0.191308468576    15.994914619560
           H         -1.234161472898     1.452618662127    -0.071087468576     1.007825032070
           H         -0.665680472898     0.602216662127     1.358207531424     1.007825032070
           H         -2.301027472898    -0.312326337873    -0.251132468576     1.007825032070

  Charge       = 0
  Multiplicity = 1
  Basis Set: 6-31G*
  Basis Set:

    Orbital Energies (a.u.)
    -----------------------

    Doubly Occupied:

       1A    -20.551011     2A    -20.550919     3A    -11.271738
       4A    -11.269451     5A     -1.370269     6A     -1.347897
       7A     -0.999928     8A     -0.831670     9A     -0.721251
      10A     -0.689297    11A     -0.633929    12A     -0.594095
      13A     -0.579355    14A     -0.516791    15A     -0.483475
      16A     -0.440197    17A     -0.433061

  @DF-RHF Final Energy:  -228.91612385720691

   => Energetics <=

    Nuclear Repulsion Energy =            133.6759651467546064
    One-Electron Energy =                -578.6155217931477637
    Two-Electron Energy =                 216.0234327891863302
    DFT Exchange-Correlation Energy =       0.0000000000000000
    Empirical Dispersion Energy =           0.0000000000000000
    PCM Polarization Energy =               0.0000000000000000
    EFP Energy =                            0.0000000000000000
    Total Energy =                       -228.9161238572068271

  Mulliken Charges: (a.u.)
   Center  Symbol    Alpha    Beta     Spin     Total
       1     H     0.28028  0.28028  0.00000  0.43944
       2     O     4.36550  4.36550  0.00000 -0.73101
       3     C     2.99980  2.99980  0.00000  0.00041
       4     C     2.99895  2.99895  0.00000  0.00211
       5     H     0.42624  0.42624  0.00000  0.14752
       6     H     0.43031  0.43031  0.00000  0.13938
       7     O     4.36250  4.36250  0.00000 -0.72501
       8     H     0.43441  0.43441  0.00000  0.13118
       9     H     0.42132  0.42132  0.00000  0.15736
      10     H     0.28069  0.28069  0.00000  0.43861

   Total alpha = 17.00000, Total beta = 17.00000, Total charge =  0.00000
