  ==> Input File <==

--------------------------------------------------------------------------
set {
	reference rhf
	basis 6-31G*
}

set_num_threads( 4 )
memory 2 gb

molecule MOL {
0 1

O	 0.910565	 0.913212	 0.861198
C	 1.122059	 0.121804	 -0.000188
C	 0.259819	 -0.101441	 -1.218628
O	 2.172624	 -0.688929	 0.000216
C	 -0.965134	 0.806459	 -1.269109
H	 0.890158	 0.038946	 -2.092538
H	 -0.026439	 -1.149656	 -1.226210
C	 -1.820946	 0.559567	 -2.512491
H	 -0.644144	 1.843183	 -1.243139
H	 -1.561845	 0.653211	 -0.375267
C	 -3.051121	 1.464176	 -2.570425
H	 -1.218052	 0.713685	 -3.405152
H	 -2.137697	 -0.481220	 -2.534899
H	 -2.766109	 2.512142	 -2.584115
H	 -3.640110	 1.269214	 -3.461132
H	 -3.692617	 1.308257	 -1.707979
C	 3.452279	 -0.082609	 0.000533
H	 3.583069	 0.529321	 -0.880332
H	 4.163299	 -0.894027	 0.001117
H	 3.582335	 0.529955	 0.881077

	symmetry c1
}
set optking {
	frozen_dihedral = ("
		1 2 4 17
	")
}

ee = optimize('scf')
oeprop('DIPOLE', 'QUADRUPOLE', 'MULLIKEN_CHARGES')
f=open( 'psi4out.xyz', 'w' )
f.write( "20  " )
f.write( str(ee) + "\n" )
f.write( MOL.save_string_xyz() )
f.close()
--------------------------------------------------------------------------

    Molecular point group: c1
  Charge       = 0
  Multiplicity = 1
  Basis Set: 6-31G*
  Basis Set:
  @DF-RHF Final Energy:  -383.92649441067817
    Total Energy =                       -383.9264944106778330
    Molecular point group: c1
  Basis Set: 6-31G*
  Basis Set:
  Basis Set: 6-31G*
  Basis Set:
  @DF-RHF Final Energy:  -383.92421466503623
    Total Energy =                       -383.9242146650366294
  Basis Set: 6-31G*
  Basis Set:
  Basis Set: 6-31G*
  Basis Set:
  @DF-RHF Final Energy:  -383.92740047801982
    Total Energy =                       -383.9274004780202176
  Basis Set: 6-31G*
  Basis Set:
  Basis Set: 6-31G*
  Basis Set:
  @DF-RHF Final Energy:  -383.92750014285508
    Total Energy =                       -383.9275001428547966
  Basis Set: 6-31G*
  Basis Set:
  Basis Set: 6-31G*
  Basis Set:
  @DF-RHF Final Energy:  -383.92750549216254
    Total Energy =                       -383.9275054921624815
  Basis Set: 6-31G*
  Basis Set:
  Charge       = 0
  Multiplicity = 1
  Basis Set: 6-31G*
  Basis Set:

    Orbital Energies (a.u.)
    -----------------------

    Doubly Occupied:

       1A    -20.589633     2A    -20.553931     3A    -11.374603
       4A    -11.287336     5A    -11.237532     6A    -11.221494
       7A    -11.220565     8A    -11.211536     9A     -1.460901
      10A     -1.365499    11A     -1.089267    12A     -1.021367
      13A     -0.969183    14A     -0.891254    15A     -0.805746
      16A     -0.765479    17A     -0.695908    18A     -0.678229
      19A     -0.673010    20A     -0.643633    21A     -0.609138
      22A     -0.592519    23A     -0.584227    24A     -0.546591
      25A     -0.535847    26A     -0.513721    27A     -0.502238
      28A     -0.482673    29A     -0.477229    30A     -0.471056
      31A     -0.452019    32A     -0.433670

  @DF-RHF Final Energy:  -383.92750605417535

   => Energetics <=

    Nuclear Repulsion Energy =            380.5301747410483699
    One-Electron Energy =               -1277.0012924261532135
    Two-Electron Energy =                 512.5436116309297176
    DFT Exchange-Correlation Energy =       0.0000000000000000
    Empirical Dispersion Energy =           0.0000000000000000
    PCM Polarization Energy =               0.0000000000000000
    EFP Energy =                            0.0000000000000000
    Total Energy =                       -383.9275060541751827
    Molecular point group: c1
  Basis Set: 6-31G*
  Basis Set:

  -Total Gradient:
     Atom            X                  Y                   Z
    ------   -----------------  -----------------  -----------------
       1       -0.005107292524    -0.005852216465     0.004005873486
       2        0.007709148235     0.008647044379    -0.009195912668
       3        0.000062722017     0.000042439208     0.000003287403
       4       -0.003026620653    -0.002900065765     0.012051617288
       5       -0.000019746330    -0.000019577563    -0.000002264957
       6       -0.000008318838    -0.000021375239     0.000010924264
       7       -0.000005563299    -0.000005549774     0.000014235173
       8       -0.000019954909     0.000002700041     0.000002594993
       9       -0.000011484505     0.000005669961     0.000002353215
      10        0.000008212182    -0.000008853694    -0.000005610142
      11        0.000006007338     0.000011041027    -0.000014365403
      12        0.000003898136    -0.000009523071     0.000004237437
      13       -0.000010039422    -0.000000220539     0.000007442874
      14       -0.000002290075     0.000005096192     0.000003199794
      15        0.000003252275     0.000005498945    -0.000002650648
      16        0.000001672943    -0.000005730536    -0.000002422040
      17        0.000401039478     0.000123815978    -0.006878686284
      18       -0.000001911756    -0.000011627653    -0.000004654278
      19        0.000010056934     0.000007495841     0.000004619740
      20        0.000007212769    -0.000016061274    -0.000003819241

  **** Optimization is complete! (in 6 steps) ****
    Final optimized geometry and variables:
    Molecular point group: c1

    Geometry (in Angstrom), charge = 0, multiplicity = 1:

    O            0.648024262158     0.574761787467     1.643059111485
    C            0.859622155016    -0.205798522171     0.778330317251
    C           -0.022064188294    -0.435227456476    -0.422927822280
    O            1.887599438728    -1.074772763107     0.821869340038
    C           -1.273397377720     0.436211027034    -0.446612713868
    H            0.589676160731    -0.271733811530    -1.307837280047
    H           -0.273525315463    -1.492451669893    -0.435722261909
    C           -2.141773219431     0.176833420004    -1.678721929484
    H           -0.983194497410     1.481959351947    -0.414518411375
    H           -1.850603882951     0.255846803699     0.455059756669
    C           -3.396226991085     1.048790988497    -1.710110900854
    H           -1.557197725124     0.354222160762    -2.579305249633
    H           -2.431002700954    -0.871770489915    -1.705003076128
    H           -3.139422274640     2.104101635515    -1.718710035401
    H           -3.993302729585     0.845761350760    -2.593582908652
    H           -4.020070400202     0.868355795655    -0.839575948205
    C            3.189270565417    -0.527263860177     0.899363644289
    H            3.429904944877     0.001635760953    -0.016260045268
    H            3.865443564258    -1.359318601825     1.019519439191
    H            3.276493375489     0.142365878681     1.743440302822

  Mulliken Charges: (a.u.)
   Center  Symbol    Alpha    Beta     Spin     Total
       1     O     4.26422  4.26422  0.00000 -0.52844
       2     C     2.60771  2.60771  0.00000  0.78459
       3     C     3.21151  3.21151  0.00000 -0.42302
       4     O     4.31519  4.31519  0.00000 -0.63038
       5     C     3.15176  3.15176  0.00000 -0.30352
       6     H     0.40591  0.40591  0.00000  0.18818
       7     H     0.39796  0.39796  0.00000  0.20408
       8     C     3.15411  3.15411  0.00000 -0.30823
       9     H     0.41264  0.41264  0.00000  0.17471
      10     H     0.41114  0.41114  0.00000  0.17772
      11     C     3.23936  3.23936  0.00000 -0.47871
      12     H     0.42349  0.42349  0.00000  0.15302
      13     H     0.42237  0.42237  0.00000  0.15527
      14     H     0.42012  0.42012  0.00000  0.15977
      15     H     0.41859  0.41859  0.00000  0.16282
      16     H     0.41958  0.41958  0.00000  0.16084
      17     C     3.09474  3.09474  0.00000 -0.18947
      18     H     0.42059  0.42059  0.00000  0.15881
      19     H     0.40508  0.40508  0.00000  0.18984
      20     H     0.40394  0.40394  0.00000  0.19211

   Total alpha = 32.00000, Total beta = 32.00000, Total charge = -0.00000
