  ==> Input File <==

--------------------------------------------------------------------------
set {
	reference rhf
	basis cc-pvtz
}

set_num_threads( 4 )
memory 2 gb

molecule MOL {
0 1

O	 -2.374409	 1.338660	 -0.336961
C	 -2.104891	 0.204655	 -0.107126
C	 -0.881910	 -0.448129	 -0.720509
C	 -2.949910	 -0.638219	 0.818225
C	 0.228014	 0.582085	 -0.964578
H	 -1.183072	 -0.887766	 -1.662916
H	 -0.514985	 -1.240001	 -0.076171
C	 1.470051	 -0.042615	 -1.596717
H	 -0.168344	 1.364228	 -1.599701
H	 0.504803	 1.052412	 -0.024111
C	 2.632349	 0.928810	 -1.809562
H	 1.198283	 -0.490958	 -2.549141
H	 1.811760	 -0.856983	 -0.963753
C	 2.364488	 2.028484	 -2.834182
H	 3.498742	 0.358367	 -2.129350
H	 2.902065	 1.379403	 -0.857957
H	 2.086693	 1.606236	 -3.794456
H	 3.249726	 2.635461	 -2.984861
H	 1.566271	 2.690463	 -2.521271
H	 -3.440322	 -1.417144	 0.243099
H	 -3.694377	 -0.025850	 1.303346
H	 -2.331085	 -1.129829	 1.560495

	symmetry c1
}
set optking {
	frozen_dihedral = ("
		6 3 2 1
	")
}

ee = optimize('scf')
oeprop('DIPOLE', 'QUADRUPOLE', 'MULLIKEN_CHARGES')
f=open( 'psi4out.xyz', 'w' )
f.write( "22  " )
f.write( str(ee) + "\n" )
f.write( MOL.save_string_xyz() )
f.close()
--------------------------------------------------------------------------

    Molecular point group: c1
  Charge       = 0
  Multiplicity = 1
  Basis Set: CC-PVTZ
  Basis Set:
  @DF-RHF Final Energy:  -348.22330555281832
    Total Energy =                       -348.2233055528181467
    Molecular point group: c1
  Basis Set: CC-PVTZ
  Basis Set:
  Basis Set: CC-PVTZ
  Basis Set:
  @DF-RHF Final Energy:  -348.22249879712177
    Total Energy =                       -348.2224987971227392
  Basis Set: CC-PVTZ
  Basis Set:
  Basis Set: CC-PVTZ
  Basis Set:
  @DF-RHF Final Energy:  -348.22405085523906
    Total Energy =                       -348.2240508552389997
  Basis Set: CC-PVTZ
  Basis Set:
  Basis Set: CC-PVTZ
  Basis Set:
  @DF-RHF Final Energy:  -348.22434004307303
    Total Energy =                       -348.2243400430729707
  Basis Set: CC-PVTZ
  Basis Set:
  @DF-RHF Final Energy:  -348.22440715107069
    Total Energy =                       -348.2244071510709773
  @DF-RHF Final Energy:  -348.22445009797559
    Total Energy =                       -348.2244500979753070
  Basis Set: CC-PVTZ
  Basis Set:
  @DF-RHF Final Energy:  -348.22446264491953
    Total Energy =                       -348.2244626449192992
  Basis Set: CC-PVTZ
  Basis Set:
  Basis Set: CC-PVTZ
  Basis Set:
  @DF-RHF Final Energy:  -348.22446037924556
    Total Energy =                       -348.2244603792457838
  Basis Set: CC-PVTZ
  Basis Set:
  Basis Set: CC-PVTZ
  Basis Set:
  @DF-RHF Final Energy:  -348.22446416714911
    Total Energy =                       -348.2244641671490513
  Basis Set: CC-PVTZ
  Basis Set:
  Charge       = 0
  Multiplicity = 1
  Basis Set: CC-PVTZ
  Basis Set:

    Orbital Energies (a.u.)
    -----------------------

    Doubly Occupied:

       1A    -20.537910     2A    -11.320787     3A    -11.229816
       4A    -11.227187     5A    -11.216757     6A    -11.215998
       7A    -11.214938     8A    -11.205729     9A     -1.398466
      10A     -1.092399    11A     -1.043851    12A     -1.002047
      13A     -0.935920    14A     -0.855083    15A     -0.782460
      16A     -0.732297    17A     -0.661144    18A     -0.647671
      19A     -0.629981    20A     -0.618053    21A     -0.599491
      22A     -0.581531    23A     -0.563038    24A     -0.546894
      25A     -0.527260    26A     -0.511686    27A     -0.500182
      28A     -0.486205    29A     -0.466916    30A     -0.462165
      31A     -0.458252    32A     -0.400438

  @DF-RHF Final Energy:  -348.22446419303697

   => Energetics <=

    Nuclear Repulsion Energy =            373.0536531698083991
    One-Electron Energy =               -1211.2111253802877400
    Two-Electron Energy =                 489.9330080174421482
    DFT Exchange-Correlation Energy =       0.0000000000000000
    Empirical Dispersion Energy =           0.0000000000000000
    PCM Polarization Energy =               0.0000000000000000
    EFP Energy =                            0.0000000000000000
    Total Energy =                       -348.2244641930371927
    Molecular point group: c1
  Basis Set: CC-PVTZ
  Basis Set:

  -Total Gradient:
     Atom            X                  Y                   Z
    ------   -----------------  -----------------  -----------------
       1       -0.000751153961    -0.000446101951    -0.001107408802
       2        0.001114497544     0.000856846218     0.001422869618
       3       -0.000618592200    -0.001571670065     0.000310662944
       4        0.000020416594    -0.000001822292     0.000024909509
       5        0.000018103250     0.000000820869     0.000024091258
       6        0.000257050810     0.001166781905    -0.000649348187
       7        0.000002145888     0.000001684125    -0.000005300423
       8       -0.000010099616    -0.000006683540    -0.000009533078
       9        0.000007424948    -0.000001025972    -0.000012713925
      10       -0.000006169575     0.000009883766     0.000005528878
      11       -0.000002657071    -0.000000294507     0.000001255795
      12        0.000005852782    -0.000010019755    -0.000005244189
      13       -0.000008446476     0.000008296473     0.000006188849
      14       -0.000002932558    -0.000001155365     0.000001198204
      15       -0.000006105883    -0.000000694102    -0.000003227018
      16        0.000004705660    -0.000001679257     0.000001398447
      17        0.000001929002     0.000000234574     0.000000818108
      18        0.000000086589     0.000003046035     0.000001247625
      19       -0.000008831003    -0.000001173175     0.000002617722
      20       -0.000005760495     0.000001945860    -0.000005834281
      21       -0.000000366076    -0.000002048010    -0.000006105598
      22       -0.000011098151    -0.000005171834     0.000001928543

  **** Optimization is complete! (in 10 steps) ****
    Final optimized geometry and variables:
    Molecular point group: c1

    Geometry (in Angstrom), charge = 0, multiplicity = 1:

    O           -2.220892394792     0.838466163653     0.639274786678
    C           -1.906370482128    -0.283728924294     0.867610628903
    C           -0.662987731312    -0.906341524552     0.260535033920
    C           -2.749751174042    -1.177446346854     1.745284163501
    C            0.460123887040     0.091275202565    -0.004615987211
    H           -0.983511924925    -1.353102872054    -0.679203439937
    H           -0.320028167363    -1.723150329738     0.886653957685
    C            1.663592471215    -0.557433230256    -0.685131561844
    H            0.068229611100     0.898998576115    -0.606106893308
    H            0.772423859881     0.534718428249     0.936925295137
    C            2.851437603101     0.381275797710    -0.903192724287
    H            1.355430692961    -0.971255022510    -1.642951601421
    H            1.996956770620    -1.400051096523    -0.084826762683
    C            2.590741841018     1.519743759398    -1.886401447022
    H            3.690063792057    -0.206109003462    -1.264183874014
    H            3.160955882873     0.794410869982     0.053149840196
    H            2.274813292971     1.135934035025    -2.851225001943
    H            3.490096416993     2.104161152477    -2.043180921441
    H            1.821841404637     2.194697405409    -1.531260667570
    H           -2.952222438850    -2.117957972373     1.244537127253
    H           -3.676314774134    -0.684487597585     1.996329391915
    H           -2.203661382539    -1.408906573521     2.654077895023

  Mulliken Charges: (a.u.)
   Center  Symbol    Alpha    Beta     Spin     Total
       1     O     4.17314  4.17314  0.00000 -0.34627
       2     C     2.86027  2.86027  0.00000  0.27945
       3     C     3.11027  3.11027  0.00000 -0.22054
       4     C     3.15276  3.15276  0.00000 -0.30552
       5     C     3.09082  3.09082  0.00000 -0.18164
       6     H     0.44412  0.44412  0.00000  0.11177
       7     H     0.44450  0.44450  0.00000  0.11100
       8     C     3.09628  3.09628  0.00000 -0.19257
       9     H     0.43735  0.43735  0.00000  0.12530
      10     H     0.45195  0.45195  0.00000  0.09611
      11     C     3.09021  3.09021  0.00000 -0.18042
      12     H     0.45400  0.45400  0.00000  0.09201
      13     H     0.45068  0.45068  0.00000  0.09864
      14     C     3.15248  3.15248  0.00000 -0.30497
      15     H     0.44853  0.44853  0.00000  0.10294
      16     H     0.45434  0.45434  0.00000  0.09132
      17     H     0.45526  0.45526  0.00000  0.08948
      18     H     0.44672  0.44672  0.00000  0.10656
      19     H     0.45073  0.45073  0.00000  0.09854
      20     H     0.45024  0.45024  0.00000  0.09953
      21     H     0.43609  0.43609  0.00000  0.12782
      22     H     0.44926  0.44926  0.00000  0.10147

   Total alpha = 32.00000, Total beta = 32.00000, Total charge =  0.00000
