  ==> Input File <==

--------------------------------------------------------------------------
set {
	reference rhf
	basis 6-31G*
}

set_num_threads( 4 )
memory 2 gb

molecule MOL {
0 1

H	 1.267435	 -1.981842	 1.416824
C	 1.423004	 -0.901849	 1.527344
C	 0.178135	 -0.059888	 1.416258
O	 2.514288	 -0.472765	 1.719997
C	 -0.558097	 -0.297372	 0.091132
H	 0.460011	 0.980237	 1.531004
H	 -0.477020	 -0.324941	 2.245323
C	 -1.850991	 0.512573	 -0.019058
H	 0.100243	 -0.040921	 -0.735665
H	 -0.787177	 -1.356328	 -0.013721
C	 -3.096943	 -0.368295	 -0.099594
H	 -1.800724	 1.150330	 -0.898172
H	 -1.931651	 1.177355	 0.838044
H	 -3.060452	 -1.020287	 -0.967456
H	 -3.996858	 0.233488	 -0.175704
H	 -3.191959	 -0.995686	 0.782074

	symmetry c1
}
set optking {
	frozen_dihedral = ("
		9 5 8 12
	")
}

ee = optimize('scf')
oeprop('DIPOLE', 'QUADRUPOLE', 'MULLIKEN_CHARGES')
f=open( 'psi4out.xyz', 'w' )
f.write( "16  " )
f.write( str(ee) + "\n" )
f.write( MOL.save_string_xyz() )
f.close()
--------------------------------------------------------------------------

    Molecular point group: c1
  Charge       = 0
  Multiplicity = 1
  Basis Set: 6-31G*
  Basis Set:
  @DF-RHF Final Energy:  -270.01386400588422
    Total Energy =                       -270.0138640058839883
    Molecular point group: c1
  Basis Set: 6-31G*
  Basis Set:
  Basis Set: 6-31G*
  Basis Set:
  @DF-RHF Final Energy:  -270.01402941161047
    Total Energy =                       -270.0140294116103519
  Basis Set: 6-31G*
  Basis Set:
  Basis Set: 6-31G*
  Basis Set:
  @DF-RHF Final Energy:  -270.01130653435104
    Total Energy =                       -270.0113065343512062
  Basis Set: 6-31G*
  Basis Set:
  Basis Set: 6-31G*
  Basis Set:
  @DF-RHF Final Energy:  -270.01417452752042
    Total Energy =                       -270.0141745275204812
  Basis Set: 6-31G*
  Basis Set:
  Basis Set: 6-31G*
  Basis Set:
  @DF-RHF Final Energy:  -270.01419672023223
    Total Energy =                       -270.0141967202322348
  Basis Set: 6-31G*
  Basis Set:
  Basis Set: 6-31G*
  Basis Set:
  @DF-RHF Final Energy:  -270.01417059973562
    Total Energy =                       -270.0141705997357349
  Basis Set: 6-31G*
  Basis Set:
  Basis Set: 6-31G*
  Basis Set:
  @DF-RHF Final Energy:  -270.01420093504419
    Total Energy =                       -270.0142009350443004
  Basis Set: 6-31G*
  Basis Set:
  Charge       = 0
  Multiplicity = 1
  Basis Set: 6-31G*
  Basis Set:

    Orbital Energies (a.u.)
    -----------------------

    Doubly Occupied:

       1A    -20.562605     2A    -11.326339     3A    -11.236409
       4A    -11.235604     5A    -11.229040     6A    -11.219761
       7A     -1.402289     8A     -1.094174     9A     -1.018027
      10A     -0.906884    11A     -0.812246    12A     -0.794299
      13A     -0.678601    14A     -0.638036    15A     -0.630888
      16A     -0.611525    17A     -0.575827    18A     -0.553799
      19A     -0.531278    20A     -0.508206    21A     -0.487385
      22A     -0.483097    23A     -0.471663    24A     -0.408699

  @DF-RHF Final Energy:  -270.01420110355843

   => Energetics <=

    Nuclear Repulsion Energy =            229.4159611853129093
    One-Electron Energy =                -820.0269591869532633
    Two-Electron Energy =                 320.5967968980819478
    DFT Exchange-Correlation Energy =       0.0000000000000000
    Empirical Dispersion Energy =           0.0000000000000000
    PCM Polarization Energy =               0.0000000000000000
    EFP Energy =                            0.0000000000000000
    Total Energy =                       -270.0142011035584346
    Molecular point group: c1
  Basis Set: 6-31G*
  Basis Set:

  -Total Gradient:
     Atom            X                  Y                   Z
    ------   -----------------  -----------------  -----------------
       1        0.000014215111     0.000001383485    -0.000012010953
       2        0.000034901318     0.000033229205     0.000030103438
       3       -0.000017828141     0.000000074291    -0.000065970792
       4       -0.000012826329    -0.000030984244     0.000000881313
       5        0.000534945983     0.001051458672     0.000829831927
       6       -0.000007361400    -0.000000482065     0.000011662177
       7       -0.000004367044     0.000000068951     0.000020362644
       8       -0.000542015231    -0.001033292965    -0.000803675960
       9       -0.000389562404    -0.000691664126    -0.000534482012
      10       -0.000023582451    -0.000006714062    -0.000003100516
      11        0.000008346493    -0.000016126368     0.000003158608
      12        0.000389630172     0.000689805258     0.000513945439
      13        0.000011974485     0.000000138682     0.000008282794
      14       -0.000007451046     0.000007369735    -0.000004896011
      15        0.000007540993     0.000005063832     0.000010466553
      16        0.000003439489    -0.000009328281    -0.000004558649

  **** Optimization is complete! (in 8 steps) ****
    Final optimized geometry and variables:
    Molecular point group: c1

    Geometry (in Angstrom), charge = 0, multiplicity = 1:

    H            1.488675313454    -1.718691773376     0.657192324236
    C            1.655202856302    -0.639793805899     0.761941117911
    C            0.419873568823     0.214724835634     0.642629534878
    O            2.751014127880    -0.220993721887     0.951843302456
    C           -0.310430265377    -0.014246939114    -0.687943963545
    H            0.710261154446     1.252158837312     0.759469996485
    H           -0.244870081098    -0.044159642747     1.466291693524
    C           -1.627807759090     0.786259493170    -0.802122266924
    H            0.355235503590     0.241258069372    -1.506934573695
    H           -0.520573740921    -1.075902639135    -0.797632731440
    C           -2.871923225013    -0.099270363427    -0.871046242186
    H           -1.592373694567     1.426416112711    -1.677961723362
    H           -1.719819537642     1.457859878597     0.047231549544
    H           -2.844095867418    -0.746482774422    -1.742750865984
    H           -3.775770888594     0.498743969783    -0.930235354310
    H           -2.951072293497    -0.732871904978     0.008265317305

  Mulliken Charges: (a.u.)
   Center  Symbol    Alpha    Beta     Spin     Total
       1     H     0.43215  0.43215  0.00000  0.13571
       2     C     2.83054  2.83054  0.00000  0.33891
       3     C     3.20949  3.20949  0.00000 -0.41898
       4     O     4.23698  4.23698  0.00000 -0.47396
       5     C     3.16861  3.16861  0.00000 -0.33723
       6     H     0.39878  0.39878  0.00000  0.20243
       7     H     0.40992  0.40992  0.00000  0.18016
       8     C     3.15547  3.15547  0.00000 -0.31093
       9     H     0.40973  0.40973  0.00000  0.18054
      10     H     0.41684  0.41684  0.00000  0.16632
      11     C     3.24094  3.24094  0.00000 -0.48189
      12     H     0.41513  0.41513  0.00000  0.16973
      13     H     0.41708  0.41708  0.00000  0.16585
      14     H     0.41934  0.41934  0.00000  0.16131
      15     H     0.41712  0.41712  0.00000  0.16575
      16     H     0.42187  0.42187  0.00000  0.15626

   Total alpha = 24.00000, Total beta = 24.00000, Total charge = -0.00000
