  ==> Input File <==

--------------------------------------------------------------------------
set {
	reference rhf
	basis 6-31G*
}

set_num_threads( 4 )
memory 2 gb

molecule MOL {
0 1

H	 -3.580370	 0.605626	 1.698885
O	 -2.872731	 0.039845	 1.424946
C	 -2.306886	 0.532354	 0.237577
C	 -1.177863	 -0.397191	 -0.171080
H	 -3.055182	 0.579987	 -0.552417
H	 -1.924088	 1.541305	 0.385309
C	 0.198102	 0.111031	 0.262842
H	 -1.208843	 -0.518759	 -1.250427
H	 -1.368741	 -1.376554	 0.258909
C	 1.331804	 -0.827780	 -0.158768
H	 0.361943	 1.100838	 -0.156218
H	 0.217265	 0.229072	 1.345532
C	 2.723619	 -0.410569	 0.329459
H	 1.342964	 -0.912588	 -1.244120
H	 1.116806	 -1.824343	 0.220779
C	 3.243875	 0.895854	 -0.272975
H	 3.424222	 -1.207124	 0.091250
H	 2.714788	 -0.329854	 1.414619
H	 3.251977	 0.848779	 -1.358681
H	 2.637085	 1.747371	 0.016682
H	 4.259473	 1.094070	 0.055697

	symmetry c1
}
set optking {
	frozen_dihedral = ("
		2 3 4 8
	")
}

ee = optimize('scf')
oeprop('DIPOLE', 'QUADRUPOLE', 'MULLIKEN_CHARGES')
f=open( 'psi4out.xyz', 'w' )
f.write( "21  " )
f.write( str(ee) + "\n" )
f.write( MOL.save_string_xyz() )
f.close()
--------------------------------------------------------------------------

    Molecular point group: c1
  Charge       = 0
  Multiplicity = 1
  Basis Set: 6-31G*
  Basis Set:
  @DF-RHF Final Energy:  -310.20859390665152
    Total Energy =                       -310.2085939066513447
    Molecular point group: c1
  Basis Set: 6-31G*
  Basis Set:
  Basis Set: 6-31G*
  Basis Set:
  @DF-RHF Final Energy:  -310.20902814564454
    Total Energy =                       -310.2090281456445382
  Basis Set: 6-31G*
  Basis Set:
  Basis Set: 6-31G*
  Basis Set:
  @DF-RHF Final Energy:  -310.20914587270624
    Total Energy =                       -310.2091458727062445
  Basis Set: 6-31G*
  Basis Set:
  Basis Set: 6-31G*
  Basis Set:
  @DF-RHF Final Energy:  -310.20913641127242
    Total Energy =                       -310.2091364112724818
  Basis Set: 6-31G*
  Basis Set:
  Basis Set: 6-31G*
  Basis Set:
  @DF-RHF Final Energy:  -310.20914774718142
    Total Energy =                       -310.2091477471811913
  Basis Set: 6-31G*
  Basis Set:
  Basis Set: 6-31G*
  Basis Set:
  @DF-RHF Final Energy:  -310.20915079199921
    Total Energy =                       -310.2091507919991500
  Basis Set: 6-31G*
  Basis Set:
  Charge       = 0
  Multiplicity = 1
  Basis Set: 6-31G*
  Basis Set:

    Orbital Energies (a.u.)
    -----------------------

    Doubly Occupied:

       1A    -20.551743     2A    -11.267413     3A    -11.212892
       4A    -11.211279     5A    -11.210725     6A    -11.210394
       7A    -11.206511     8A     -1.357859     9A     -1.082781
      10A     -1.030128    11A     -0.953101    12A     -0.875701
      13A     -0.805339    14A     -0.776057    15A     -0.702861
      16A     -0.636489    17A     -0.631578    18A     -0.601678
      19A     -0.583892    20A     -0.568707    21A     -0.534287
      22A     -0.523682    23A     -0.506405    24A     -0.484850
      25A     -0.481037    26A     -0.459147    27A     -0.453673
      28A     -0.447564    29A     -0.423637

  @DF-RHF Final Energy:  -310.20915107477873

   => Energetics <=

    Nuclear Repulsion Energy =            314.5451967389014385
    One-Electron Energy =               -1043.9258732907501326
    Two-Electron Energy =                 419.1715254770693946
    DFT Exchange-Correlation Energy =       0.0000000000000000
    Empirical Dispersion Energy =           0.0000000000000000
    PCM Polarization Energy =               0.0000000000000000
    EFP Energy =                            0.0000000000000000
    Total Energy =                       -310.2091510747792427
    Molecular point group: c1
  Basis Set: 6-31G*
  Basis Set:

  -Total Gradient:
     Atom            X                  Y                   Z
    ------   -----------------  -----------------  -----------------
       1        0.000046883018     0.000005435414    -0.000086156635
       2       -0.002323170918    -0.002182024967    -0.001922493521
       3        0.002238677196     0.001834207906     0.002734809107
       4        0.002690916866     0.004232411884    -0.001229700404
       5        0.000006341109    -0.000004717792    -0.000005814221
       6        0.000029867045     0.000003677543    -0.000053251363
       7        0.000064087670    -0.000021648152     0.000049934026
       8       -0.002770438462    -0.003909738621     0.000520633006
       9        0.000012430239     0.000038840123     0.000002886995
      10        0.000029113355     0.000003575449    -0.000002319307
      11        0.000012134589    -0.000015121886    -0.000010409083
      12        0.000002086693     0.000022005907     0.000012970707
      13       -0.000017200795     0.000001621285     0.000002123373
      14        0.000003354683    -0.000004140648    -0.000009822553
      15        0.000002378437    -0.000002144934     0.000008771003
      16       -0.000002010881     0.000002349846    -0.000005692426
      17       -0.000016852816    -0.000006405268    -0.000006162870
      18       -0.000002336129    -0.000002545393     0.000001720412
      19        0.000003917973     0.000002477771    -0.000003848405
      20       -0.000010177215    -0.000000464128    -0.000000073921
      21       -0.000000001652     0.000002348661     0.000001896079

  **** Optimization is complete! (in 7 steps) ****
    Final optimized geometry and variables:
    Molecular point group: c1

    Geometry (in Angstrom), charge = 0, multiplicity = 1:

    H           -3.625125224052     0.553822502446     1.523974632155
    O           -2.951848874433    -0.018427509893     1.184162733484
    C           -2.439155441736     0.516484854684    -0.012217323026
    C           -1.279550006523    -0.364820439287    -0.475174521423
    H           -3.220766098978     0.535391265658    -0.768935919861
    H           -2.106607857018     1.542354433690     0.135563104869
    C            0.095039321878     0.128163161166    -0.022706114900
    H           -1.315788580935    -0.484025967838    -1.555367908240
    H           -1.462523086688    -1.355535398323    -0.069564077014
    C            1.224611092330    -0.829623971368    -0.408286846986
    H            0.278240264124     1.111293072544    -0.449601279003
    H            0.082022970766     0.256548047924     1.057855523425
    C            2.613360016091    -0.417206826171     0.092945560028
    H            1.252513446878    -0.937341444800    -1.491880950735
    H            0.993356416290    -1.815808672351    -0.011558273141
    C            3.158883515263     0.868792073403    -0.530804673864
    H            3.308554427276    -1.226929010272    -0.114999938741
    H            2.587106670449    -0.311011449248     1.175479730542
    H            3.185546878234     0.795891212087    -1.614878844865
    H            2.556673644101     1.733381032977    -0.272071291207
    H            4.170802315563     1.063811639015    -0.188972403512

  Mulliken Charges: (a.u.)
   Center  Symbol    Alpha    Beta     Spin     Total
       1     H     0.28167  0.28167  0.00000  0.43665
       2     O     4.37077  4.37077  0.00000 -0.74155
       3     C     2.99693  2.99693  0.00000  0.00614
       4     C     3.16353  3.16353  0.00000 -0.32707
       5     H     0.42976  0.42976  0.00000  0.14048
       6     H     0.43114  0.43114  0.00000  0.13772
       7     C     3.15820  3.15820  0.00000 -0.31640
       8     H     0.42207  0.42207  0.00000  0.15587
       9     H     0.40679  0.40679  0.00000  0.18642
      10     C     3.15329  3.15329  0.00000 -0.30659
      11     H     0.42383  0.42383  0.00000  0.15235
      12     H     0.41622  0.41622  0.00000  0.16755
      13     C     3.15230  3.15230  0.00000 -0.30460
      14     H     0.42530  0.42530  0.00000  0.14941
      15     H     0.42041  0.42041  0.00000  0.15919
      16     C     3.24101  3.24101  0.00000 -0.48201
      17     H     0.42129  0.42129  0.00000  0.15742
      18     H     0.42264  0.42264  0.00000  0.15473
      19     H     0.42277  0.42277  0.00000  0.15446
      20     H     0.42054  0.42054  0.00000  0.15893
      21     H     0.41955  0.41955  0.00000  0.16090

   Total alpha = 29.00000, Total beta = 29.00000, Total charge = -0.00000
