                              Psi4 1.0.54 Driver

  ==> Input File <==

--------------------------------------------------------------------------
set {
	reference rhf
	basis cc-pvtz
}

set_num_threads( 4 )
memory 2 gb

molecule MOL {
0 1

H	 3.721889	 -0.933108	 -0.066158
O	 2.824271	 -1.154299	 0.131461
C	 2.076458	 -0.067370	 -0.038225
C	 0.626018	 -0.337582	 0.258241
O	 2.538288	 0.965419	 -0.381593
C	 -0.267326	 0.883135	 0.076490
H	 0.325620	 -1.161483	 -0.378003
H	 0.574537	 -0.713685	 1.275261
C	 -1.726822	 0.642622	 0.463839
H	 -0.210803	 1.217591	 -0.953497
H	 0.129920	 1.693110	 0.675679
C	 -2.480891	 -0.340606	 -0.429852
H	 -2.243098	 1.597649	 0.438609
H	 -1.776542	 0.301208	 1.495542
C	 -3.955933	 -0.460128	 -0.060472
H	 -2.393755	 -0.020485	 -1.464726
H	 -2.024244	 -1.323637	 -0.374360
H	 -4.467673	 -1.160944	 -0.709827
H	 -4.458917	 0.497287	 -0.144505
H	 -4.076458	 -0.806900	 0.960497

	symmetry c1
}
set optking {
	frozen_dihedral = ("
		1 2 3 5
	")
}

ee,wfn = optimize('scf', return_wfn=True)
oeprop( wfn, 'DIPOLE', 'QUADRUPOLE', 'MULLIKEN_CHARGES')
f=open( 'psi4out.xyz', 'w' )
f.write( "20  " )
f.write( str(ee) + "\n" )
f.write( MOL.save_string_xyz() )
f.close()
--------------------------------------------------------------------------

    Molecular point group: c1
  Charge       = 0
  Multiplicity = 1
  Basis Set: CC-PVTZ
  Basis Set:
  @DF-RHF Final Energy:  -384.09502561593564
    Total Energy =                       -384.0950256159358105
    Molecular point group: c1
  Basis Set: CC-PVTZ
  Basis Set:
  Charge       = 0
  Multiplicity = 1
  Basis Set: CC-PVTZ
  Basis Set:

    Orbital Energies (a.u.)
    -----------------------

    Doubly Occupied:

       1A    -20.603862     2A    -20.540478     3A    -11.373416
       4A    -11.238650     5A    -11.221015     6A    -11.218796
       7A    -11.218185     8A    -11.210573     9A     -1.477427
      10A     -1.368949    11A     -1.097557    12A     -1.042232
      13A     -0.962535    14A     -0.870364    15A     -0.817798
      16A     -0.778035    17A     -0.703673    18A     -0.692993
      19A     -0.666665    20A     -0.637251    21A     -0.605170
      22A     -0.596407    23A     -0.576996    24A     -0.556762
      25A     -0.541311    26A     -0.513679    27A     -0.496068
      28A     -0.484516    29A     -0.471605    30A     -0.468319
      31A     -0.458223    32A     -0.446462

  @DF-RHF Final Energy:  -384.09502503018189

   => Energetics <=

    Nuclear Repulsion Energy =            376.5934605290628951
    One-Electron Energy =               -1269.4650410306373942
    Two-Electron Energy =                 508.7765554713923848
    DFT Exchange-Correlation Energy =       0.0000000000000000
    Empirical Dispersion Energy =           0.0000000000000000
    PCM Polarization Energy =               0.0000000000000000
    EFP Energy =                            0.0000000000000000
    Total Energy =                       -384.0950250301821143
    Molecular point group: c1
  Basis Set: CC-PVTZ
  Basis Set:

  -Total Gradient:
     Atom            X                  Y                   Z
    ------   -----------------  -----------------  -----------------
       1       -0.000011269587    -0.000000403338    -0.000031158939
       2       -0.000023308195    -0.000054036118    -0.000053978541
       3        0.000075916660     0.000076692990     0.000331210104
       4       -0.000020166153    -0.000033437866    -0.000135068806
       5       -0.000024198096     0.000019057247    -0.000116462372
       6        0.000017309434    -0.000007718077     0.000033788836
       7       -0.000053383295    -0.000023467284    -0.000002166891
       8        0.000023047518     0.000010689383    -0.000003728810
       9        0.000013549533    -0.000001191808     0.000020683902
      10       -0.000009790441    -0.000001406745     0.000005200755
      11        0.000008834646    -0.000003027716     0.000004912957
      12       -0.000004561512     0.000070219496    -0.000059027120
      13        0.000020216706    -0.000003445279    -0.000019322693
      14       -0.000011312112     0.000023838889     0.000017738624
      15       -0.000005543572    -0.000050405413     0.000032379772
      16       -0.000010559669     0.000016736099    -0.000039106789
      17        0.000037173394    -0.000026837886    -0.000004045202
      18       -0.000005169217    -0.000021874203     0.000012024514
      19        0.000000676789     0.000008692802    -0.000022032844
      20       -0.000017462829     0.000001324822     0.000028159544

  **** Optimization is complete! (in 2 steps) ****
    Final optimized geometry and variables:
    Molecular point group: c1

    Geometry (in Angstrom), charge = 0, multiplicity = 1:

    H            3.719721666890    -0.938137267075    -0.063813844151
    O            2.821602517171    -1.157345073609     0.133790807826
    C            2.076138851559    -0.068732818230    -0.035899581874
    C            0.624677529071    -0.337001777859     0.257522438723
    O            2.539837860155     0.963292207336    -0.379255819651
    C           -0.266433191565     0.885223051072     0.074978791816
    H            0.324079004509    -1.159976324563    -0.379893380636
    H            0.570467284602    -0.713831662094     1.274149160114
    C           -1.726886352216     0.646873351027     0.460191895988
    H           -0.207892719307     1.219896822619    -0.954822901784
    H            0.131254956049     1.694415708679     0.674978562775
    C           -2.481106255443    -0.335516212669    -0.434477414419
    H           -2.241702092363     1.602661415162     0.434060479300
    H           -1.778621588929     0.305813152788     1.491942941805
    C           -3.953587860505    -0.464451116336    -0.057525177490
    H           -2.401072038317    -0.010092417772    -1.468346569799
    H           -2.019265755890    -1.316550719672    -0.386162035995
    H           -4.463983202801    -1.169270656327    -0.703620655386
    H           -4.463346499806     0.489545566934    -0.139971377857
    H           -4.066831664249    -0.811036931238     0.964386977518

  Mulliken Charges: (a.u.)
   Center  Symbol    Alpha    Beta     Spin     Total
       1     H     0.38237  0.38237  0.00000  0.23527
       2     O     4.16026  4.16026  0.00000 -0.32052
       3     C     2.80345  2.80345  0.00000  0.39310
       4     C     3.11199  3.11199  0.00000 -0.22397
       5     O     4.19126  4.19126  0.00000 -0.38252
       6     C     3.09275  3.09275  0.00000 -0.18551
       7     H     0.43712  0.43712  0.00000  0.12575
       8     H     0.43781  0.43781  0.00000  0.12439
       9     C     3.09927  3.09927  0.00000 -0.19855
      10     H     0.44561  0.44561  0.00000  0.10878
      11     H     0.43932  0.43932  0.00000  0.12136
      12     C     3.08681  3.08681  0.00000 -0.17362
      13     H     0.44547  0.44547  0.00000  0.10906
      14     H     0.45401  0.45401  0.00000  0.09199
      15     C     3.14958  3.14958  0.00000 -0.29917
      16     H     0.45249  0.45249  0.00000  0.09503
      17     H     0.45430  0.45430  0.00000  0.09139
      18     H     0.44771  0.44771  0.00000  0.10457
      19     H     0.45357  0.45357  0.00000  0.09285
      20     H     0.45484  0.45484  0.00000  0.09031

   Total alpha = 32.00000, Total beta = 32.00000, Total charge =  0.00000

*** Psi4 exiting successfully. Buy a developer a beer!
