  ==> Input File <==

--------------------------------------------------------------------------
set {
	reference rhf
	basis cc-pvtz
}

set_num_threads( 4 )
memory 2 gb

molecule MOL {
0 1

H	 -1.793759	 -0.050215	 -2.229996
C	 -1.295030	 -0.057698	 -1.283873
C	 -1.937335	 0.400488	 -0.089443
C	 -0.039388	 -0.499941	 -1.179863
H	 -2.947106	 0.762482	 -0.139235
C	 -1.291083	 0.380364	 1.080399
H	 0.507574	 -0.858850	 -2.029073
N	 0.640204	 -0.530428	 -0.000115
H	 -1.739663	 0.714923	 1.992982
C	 0.077831	 -0.102624	 1.190074
C	 2.006991	 -1.033007	 -0.000020
O	 0.691204	 -0.136382	 2.222002
H	 2.182444	 -1.636914	 -0.880881
H	 2.678769	 -0.195442	 -0.002236
H	 2.183828	 -1.633244	 0.883082

	symmetry c1
}
set optking {
	frozen_dihedral = ("
		10 8 11 13
	")
}

ee = optimize('scf')
oeprop('DIPOLE', 'QUADRUPOLE', 'MULLIKEN_CHARGES')
f=open( 'psi4out.xyz', 'w' )
f.write( "15  " )
f.write( str(ee) + "\n" )
f.write( MOL.save_string_xyz() )
f.close()
--------------------------------------------------------------------------

    Molecular point group: c1
  Charge       = 0
  Multiplicity = 1
  Basis Set: CC-PVTZ
  Basis Set:
  @DF-RHF Final Energy:  -360.72257062824752
    Total Energy =                       -360.7225706282474107
    Molecular point group: c1
  Basis Set: CC-PVTZ
  Basis Set:
  Basis Set: CC-PVTZ
  Basis Set:
  @DF-RHF Final Energy:  -360.72321461916283
    Total Energy =                       -360.7232146191626043
  Basis Set: CC-PVTZ
  Basis Set:
  Basis Set: CC-PVTZ
  Basis Set:
  @DF-RHF Final Energy:  -360.72327742064817
    Total Energy =                       -360.7232774206483441
  Basis Set: CC-PVTZ
  Basis Set:
  Basis Set: CC-PVTZ
  Basis Set:
  @DF-RHF Final Energy:  -360.72325856731317
    Total Energy =                       -360.7232585673128256
  Basis Set: CC-PVTZ
  Basis Set:
  Charge       = 0
  Multiplicity = 1
  Basis Set: CC-PVTZ
  Basis Set:

    Orbital Energies (a.u.)
    -----------------------

    Doubly Occupied:

       1A    -20.501944     2A    -15.617545     3A    -11.338010
       4A    -11.294274     5A    -11.265472     6A    -11.258130
       7A    -11.229717     8A    -11.227889     9A     -1.391143
      10A     -1.285833    11A     -1.118801    12A     -1.029214
      13A     -0.972572    14A     -0.876366    15A     -0.838887
      16A     -0.719521    17A     -0.702170    18A     -0.663906
      19A     -0.653380    20A     -0.626053    21A     -0.611912
      22A     -0.574884    23A     -0.553707    24A     -0.550690
      25A     -0.530884    26A     -0.484406    27A     -0.420571
      28A     -0.410587    29A     -0.310251

  @DF-RHF Final Energy:  -360.72330120974243

   => Energetics <=

    Nuclear Repulsion Energy =            358.7749001436955041
    One-Electron Energy =               -1200.8789720436643620
    Two-Electron Energy =                 481.3807706902267114
    DFT Exchange-Correlation Energy =       0.0000000000000000
    Empirical Dispersion Energy =           0.0000000000000000
    PCM Polarization Energy =               0.0000000000000000
    EFP Energy =                            0.0000000000000000
    Total Energy =                       -360.7233012097421465
    Molecular point group: c1
  Basis Set: CC-PVTZ
  Basis Set:

  -Total Gradient:
     Atom            X                  Y                   Z
    ------   -----------------  -----------------  -----------------
       1       -0.000005675532     0.000000011246    -0.000001949532
       2        0.000197023739    -0.000032886604    -0.000026883454
       3       -0.000050399069     0.000027844592     0.000177431064
       4       -0.000228866039    -0.000024154711    -0.000202783807
       5        0.000008015556     0.000004344994    -0.000009195017
       6       -0.000160834175     0.000049761842    -0.000072722448
       7        0.000016071114     0.000014960862     0.000022966320
       8        0.000333346467     0.000918585968     0.000159920516
       9        0.000011956885     0.000004714039     0.000015062500
      10       -0.000061038688    -0.000860187002    -0.000083381091
      11        0.000203567173     0.000511342995    -0.000485127413
      12       -0.000031119327     0.000053851625     0.000075634238
      13       -0.000253773229    -0.000731571278     0.000447678144
      14        0.000012867118     0.000035528035     0.000012865907
      15        0.000008858006     0.000027853396    -0.000029515920

  **** Optimization is complete! (in 5 steps) ****
    Final optimized geometry and variables:
    Molecular point group: c1

    Geometry (in Angstrom), charge = 0, multiplicity = 1:

    H           -1.731333704828     0.176080112789    -2.494460778060
    C           -1.226856186472     0.163264551342    -1.551459154561
    C           -1.863286966723     0.611430565074    -0.350963821865
    C            0.029429747189    -0.283415193622    -1.459339379904
    H           -2.874225360264     0.971121614871    -0.393661177875
    C           -1.211635322181     0.584925264300     0.816615542350
    H            0.568102877847    -0.638037199425    -2.314662209160
    N            0.711295664916    -0.323224880750    -0.282775421369
    H           -1.655444543143     0.913637145225     1.733763874577
    C            0.160329735512     0.111939976106     0.908671460303
    C            2.081436950728    -0.811806806629    -0.247653168475
    O            0.801207968468     0.088378199090     1.924210014853
    H            2.259805590786    -1.425930238031    -1.117410532605
    H            2.784604756792     0.010376870830    -0.231422454484
    H            2.227539889878    -1.399871090505     0.642220260199

  Mulliken Charges: (a.u.)
   Center  Symbol    Alpha    Beta     Spin     Total
       1     H     0.41394  0.41394  0.00000  0.17213
       2     C     3.10586  3.10586  0.00000 -0.21171
       3     C     3.06017  3.06017  0.00000 -0.12034
       4     C     3.03645  3.03645  0.00000 -0.07291
       5     H     0.41842  0.41842  0.00000  0.16316
       6     C     3.11832  3.11832  0.00000 -0.23663
       7     H     0.42031  0.42031  0.00000  0.15938
       8     N     3.50952  3.50952  0.00000 -0.01904
       9     H     0.40920  0.40920  0.00000  0.18159
      10     C     2.84536  2.84536  0.00000  0.30929
      11     C     3.09480  3.09480  0.00000 -0.18960
      12     O     4.23592  4.23592  0.00000 -0.47184
      13     H     0.45527  0.45527  0.00000  0.08946
      14     H     0.44484  0.44484  0.00000  0.11032
      15     H     0.43163  0.43163  0.00000  0.13674

   Total alpha = 29.00000, Total beta = 29.00000, Total charge = -0.00000
