  ==> Input File <==

--------------------------------------------------------------------------
set {
	reference rhf
	basis 6-31G*
}

set_num_threads( 4 )
memory 2 gb

molecule MOL {
0 1

H	 3.748568	 -0.781102	 2.402768
C	 3.253323	 -0.955603	 1.453014
C	 1.946909	 -0.168347	 1.360964
H	 3.942179	 -0.666546	 0.664248
H	 3.078500	 -2.024101	 1.363598
C	 1.217350	 -0.386724	 0.039429
H	 2.140071	 0.893448	 1.477876
H	 1.294090	 -0.456972	 2.183103
N	 0.000003	 0.397874	 -0.023260
H	 1.858977	 -0.074252	 -0.780107
H	 1.031525	 -1.456438	 -0.103953
C	 -1.217365	 -0.386708	 0.039277
H	 -0.000031	 1.072115	 0.718656
C	 -2.452633	 0.504241	 -0.042481
H	 -1.215291	 -1.074557	 -0.802042
H	 -1.269739	 -1.003477	 0.942735
C	 -3.758029	 -0.289423	 -0.010781
H	 -2.394220	 1.093569	 -0.952170
H	 -2.440793	 1.210787	 0.785871
H	 -3.816659	 -0.981993	 -0.845726
H	 -4.617837	 0.370165	 -0.069296
H	 -3.847478	 -0.867502	 0.904682

	symmetry c1
}
set optking {
	frozen_dihedral = ("
		10 6 9 12
	")
}

ee = optimize('scf')
oeprop('DIPOLE', 'QUADRUPOLE', 'MULLIKEN_CHARGES')
f=open( 'psi4out.xyz', 'w' )
f.write( "22  " )
f.write( str(ee) + "\n" )
f.write( MOL.save_string_xyz() )
f.close()
--------------------------------------------------------------------------

    Molecular point group: c1
  Charge       = 0
  Multiplicity = 1
  Basis Set: 6-31G*
  Basis Set:
  @DF-RHF Final Energy:  -290.37673779381373
    Total Energy =                       -290.3767377938139589
    Molecular point group: c1
  Basis Set: 6-31G*
  Basis Set:
  Basis Set: 6-31G*
  Basis Set:
  @DF-RHF Final Energy:  -290.37778658571682
    Total Energy =                       -290.3777865857165352
  Basis Set: 6-31G*
  Basis Set:
  Basis Set: 6-31G*
  Basis Set:
  @DF-RHF Final Energy:  -290.37798264633227
    Total Energy =                       -290.3779826463317590
  Basis Set: 6-31G*
  Basis Set:
  Basis Set: 6-31G*
  Basis Set:
  @DF-RHF Final Energy:  -290.37799498927592
    Total Energy =                       -290.3779949892760897
  Basis Set: 6-31G*
  Basis Set:
  Basis Set: 6-31G*
  Basis Set:
  @DF-RHF Final Energy:  -290.37800088289367
    Total Energy =                       -290.3780008828937298
  Basis Set: 6-31G*
  Basis Set:
  Basis Set: 6-31G*
  Basis Set:
  @DF-RHF Final Energy:  -290.37800205390749
    Total Energy =                       -290.3780020539076077
  Basis Set: 6-31G*
  Basis Set:
  Charge       = 0
  Multiplicity = 1
  Basis Set: 6-31G*
  Basis Set:

    Orbital Energies (a.u.)
    -----------------------

    Doubly Occupied:

       1A    -15.529354     2A    -11.238157     3A    -11.237394
       4A    -11.217751     5A    -11.213117     6A    -11.212118
       7A    -11.209496     8A     -1.200674     9A     -1.059344
      10A     -1.026633    11A     -0.928656    12A     -0.869476
      13A     -0.811168    14A     -0.800625    15A     -0.651227
      16A     -0.643690    17A     -0.614403    18A     -0.605863
      19A     -0.575421    20A     -0.552498    21A     -0.548502
      22A     -0.518916    23A     -0.517436    24A     -0.485974
      25A     -0.484830    26A     -0.476951    27A     -0.470947
      28A     -0.455376    29A     -0.348384

  @DF-RHF Final Energy:  -290.37800208053272

   => Energetics <=

    Nuclear Repulsion Energy =            314.7402746664251936
    One-Electron Energy =               -1015.2277901654972538
    Two-Electron Energy =                 410.1095134185389952
    DFT Exchange-Correlation Energy =       0.0000000000000000
    Empirical Dispersion Energy =           0.0000000000000000
    PCM Polarization Energy =               0.0000000000000000
    EFP Energy =                            0.0000000000000000
    Total Energy =                       -290.3780020805330651
    Molecular point group: c1
  Basis Set: 6-31G*
  Basis Set:

  -Total Gradient:
     Atom            X                  Y                   Z
    ------   -----------------  -----------------  -----------------
       1       -0.000000369532    -0.000002021101    -0.000000598361
       2        0.000008541392     0.000002564852     0.000003736384
       3        0.000003357775    -0.000006897396    -0.000000777763
       4        0.000006567729     0.000000982424    -0.000000491795
       5       -0.000003563672     0.000005107646    -0.000001799593
       6        0.000932941721     0.001641158424     0.000719498076
       7        0.000002450601    -0.000001251036    -0.000001841790
       8       -0.000003956186     0.000000201381     0.000002160570
       9       -0.000208807387    -0.000092000548     0.001870876842
      10       -0.000754140918    -0.001381918085    -0.001088038020
      11        0.000004209052    -0.000000323566    -0.000002637028
      12        0.000009460588    -0.000170380505    -0.001507012969
      13       -0.000002218599     0.000003373326     0.000001681694
      14        0.000001469235     0.000004044239     0.000003116505
      15       -0.000001106882    -0.000003691756    -0.000000548603
      16        0.000001400868     0.000001354714     0.000002007954
      17        0.000003267466    -0.000002215641     0.000000196425
      18        0.000000171351    -0.000001053259    -0.000000206773
      19       -0.000000899806     0.000002492993     0.000000251285
      20       -0.000000280431    -0.000000084739     0.000000015665
      21        0.000001850771     0.000000961860     0.000000385574
      22       -0.000000345135    -0.000000404225     0.000000025724

  **** Optimization is complete! (in 7 steps) ****
    Final optimized geometry and variables:
    Molecular point group: c1

    Geometry (in Angstrom), charge = 0, multiplicity = 1:

    H            3.926717978948    -0.620065851363     1.981262723316
    C            3.423163038430    -0.770543218726     1.031778163712
    C            2.111006380886     0.010094777079     0.972244300653
    H            4.101985167716    -0.456581209938     0.244107011222
    H            3.251392501188    -1.836773415323     0.914232390268
    C            1.377092112463    -0.162939624219    -0.357829533666
    H            2.314200450789     1.067926518745     1.130080428425
    H            1.458384060369    -0.304721994055     1.783912042098
    N            0.129365826729     0.583818511983    -0.447223273479
    H            2.032846658971     0.125255762886    -1.176634048228
    H            1.163776802521    -1.218030879613    -0.507334665871
    C           -1.087334353323    -0.199763250374    -0.366661090641
    H            0.112807473472     1.322797956461     0.227030227975
    C           -2.319629363241     0.692802434072    -0.468759762919
    H           -1.089025012327    -0.903175574986    -1.194210608125
    H           -1.148060751244    -0.797736879766     0.549189375850
    C           -3.627399415745    -0.096511117256    -0.427904641206
    H           -2.255625849005     1.265445647433    -1.388808336378
    H           -2.309120097090     1.413986615485     0.347015139692
    H           -3.684469132841    -0.804271545262    -1.250062650954
    H           -4.484934036030     0.564436746222    -0.502474660851
    H           -3.722580656556    -0.657039042119     0.497835473193

  Mulliken Charges: (a.u.)
   Center  Symbol    Alpha    Beta     Spin     Total
       1     H     0.41761  0.41761  0.00000  0.16477
       2     C     3.24328  3.24328  0.00000 -0.48657
       3     C     3.16561  3.16561  0.00000 -0.33121
       4     H     0.41947  0.41947  0.00000  0.16106
       5     H     0.42064  0.42064  0.00000  0.15871
       6     C     3.04149  3.04149  0.00000 -0.08298
       7     H     0.42304  0.42304  0.00000  0.15392
       8     H     0.42179  0.42179  0.00000  0.15643
       9     N     3.86473  3.86473  0.00000 -0.72946
      10     H     0.42026  0.42026  0.00000  0.15949
      11     H     0.42476  0.42476  0.00000  0.15049
      12     C     3.04613  3.04613  0.00000 -0.09226
      13     H     0.33248  0.33248  0.00000  0.33505
      14     C     3.15707  3.15707  0.00000 -0.31415
      15     H     0.42113  0.42113  0.00000  0.15774
      16     H     0.43751  0.43751  0.00000  0.12497
      17     C     3.24306  3.24306  0.00000 -0.48613
      18     H     0.41285  0.41285  0.00000  0.17430
      19     H     0.42688  0.42688  0.00000  0.14623
      20     H     0.42066  0.42066  0.00000  0.15869
      21     H     0.41779  0.41779  0.00000  0.16443
      22     H     0.42176  0.42176  0.00000  0.15647

   Total alpha = 29.00000, Total beta = 29.00000, Total charge = -0.00000
