  ==> Input File <==

--------------------------------------------------------------------------
set {
	reference rhf
	basis cc-pvtz
}

set_num_threads( 4 )
memory 2 gb

molecule MOL {
0 1

H	 2.190573	 -0.629143	 -0.208718
O	 1.355408	 -0.529451	 0.208662
C	 0.700177	 0.619554	 -0.266242
C	 -0.713111	 0.588314	 0.266177
H	 0.678680	 0.627133	 -1.351786
H	 1.199747	 1.521489	 0.077736
O	 -1.421673	 -0.521378	 -0.196983
H	 -1.244794	 1.469161	 -0.069059
H	 -0.685100	 0.604721	 1.352683
H	 -1.090373	 -0.754715	 -1.046581

	symmetry c1
}
set optking {
	frozen_dihedral = ("
		10 7 4 3
	")
}

ee = optimize('scf')
oeprop('DIPOLE', 'QUADRUPOLE', 'MULLIKEN_CHARGES')
f=open( 'psi4out.xyz', 'w' )
f.write( "10  " )
f.write( str(ee) + "\n" )
f.write( MOL.save_string_xyz() )
f.close()
--------------------------------------------------------------------------

    Molecular point group: c1
  Charge       = 0
  Multiplicity = 1
  Basis Set: CC-PVTZ
  Basis Set:
  @DF-RHF Final Energy:  -229.02136429689489
    Total Energy =                       -229.0213642968948591
    Molecular point group: c1
  Basis Set: CC-PVTZ
  Basis Set:
  Basis Set: CC-PVTZ
  Basis Set:
  @DF-RHF Final Energy:  -229.02284888919357
    Total Energy =                       -229.0228488891936252
  Basis Set: CC-PVTZ
  Basis Set:
  Basis Set: CC-PVTZ
  Basis Set:
  @DF-RHF Final Energy:  -229.02308771417631
    Total Energy =                       -229.0230877141763131
  Basis Set: CC-PVTZ
  Basis Set:
  Basis Set: CC-PVTZ
  Basis Set:
  @DF-RHF Final Energy:  -229.02310017330652
    Total Energy =                       -229.0231001733064886
  Basis Set: CC-PVTZ
  Basis Set:
  Basis Set: CC-PVTZ
  Basis Set:
  @DF-RHF Final Energy:  -229.02310155430783
    Total Energy =                       -229.0231015543077149
  Basis Set: CC-PVTZ
  Basis Set:
  Charge       = 0
  Multiplicity = 1
  Basis Set: CC-PVTZ
  Basis Set:

    Orbital Energies (a.u.)
    -----------------------

    Doubly Occupied:

       1A    -20.556518     2A    -20.543947     3A    -11.278806
       4A    -11.268217     5A     -1.382416     6A     -1.357367
       7A     -1.005754     8A     -0.850290     9A     -0.723263
      10A     -0.676432    11A     -0.662247    12A     -0.601807
      13A     -0.575040    14A     -0.553287    15A     -0.473656
      16A     -0.453762    17A     -0.441866

  @DF-RHF Final Energy:  -229.02310162271630

   => Energetics <=

    Nuclear Repulsion Energy =            133.7776733964061009
    One-Electron Energy =                -578.7921962390232693
    Two-Electron Energy =                 215.9914212199008148
    DFT Exchange-Correlation Energy =       0.0000000000000000
    Empirical Dispersion Energy =           0.0000000000000000
    PCM Polarization Energy =               0.0000000000000000
    EFP Energy =                            0.0000000000000000
    Total Energy =                       -229.0231016227163536
    Molecular point group: c1
  Basis Set: CC-PVTZ
  Basis Set:

  -Total Gradient:
     Atom            X                  Y                   Z
    ------   -----------------  -----------------  -----------------
       1       -0.000003322747    -0.000007595822     0.000004417111
       2        0.000007708041     0.000007349188    -0.000008656047
       3       -0.000024235988     0.000047668630    -0.000123247625
       4        0.000096430758    -0.000163658448     0.000215721312
       5        0.000000492404     0.000010404479    -0.000011568195
       6       -0.000010148925     0.000010947882    -0.000004695324
       7       -0.000214517602     0.000257477904    -0.000185522217
       8       -0.000010839514    -0.000000499109     0.000003764061
       9       -0.000009527957     0.000002792925     0.000005925211
      10        0.000167961527    -0.000164887631     0.000103861713

  **** Optimization is complete! (in 6 steps) ****
    Final optimized geometry and variables:
    Molecular point group: c1

    Geometry (in Angstrom), charge = 0, multiplicity = 1:

    H            2.272068320649    -0.549134625057    -0.112720928200
    O            1.388048700048    -0.547880336223     0.204779659989
    C            0.712971134907     0.589579144635    -0.248055062674
    C           -0.705043560952     0.580559266533     0.274799072642
    H            0.698349518058     0.620742573354    -1.337966859527
    H            1.197618522098     1.499634343998     0.097471054361
    O           -1.464906315425    -0.508575371430    -0.160220813956
    H           -1.176897101649     1.515373257984    -0.020696074540
    H           -0.687791449331     0.542456089727     1.356001069826
    H           -1.177953944562    -0.794990506517    -1.007705829020

  Mulliken Charges: (a.u.)
   Center  Symbol    Alpha    Beta     Spin     Total
       1     H     0.39459  0.39459  0.00000  0.21081
       2     O     4.19314  4.19314  0.00000 -0.38629
       3     C     2.97629  2.97629  0.00000  0.04742
       4     C     2.95222  2.95222  0.00000  0.09556
       5     H     0.47920  0.47920  0.00000  0.04159
       6     H     0.47084  0.47084  0.00000  0.05833
       7     O     4.20062  4.20062  0.00000 -0.40123
       8     H     0.47733  0.47733  0.00000  0.04533
       9     H     0.46232  0.46232  0.00000  0.07535
      10     H     0.39344  0.39344  0.00000  0.21312

   Total alpha = 17.00000, Total beta = 17.00000, Total charge =  0.00000
