  ==> Input File <==

--------------------------------------------------------------------------
set {
	reference rhf
	basis cc-pvtz
}

set_num_threads( 4 )
memory 2 gb

molecule MOL {
0 1

H	 -3.268214	 -0.875720	 0.463107
C	 -2.806015	 0.000007	 0.024886
N	 -1.391133	 0.000016	 0.301321
H	 -3.029448	 0.000055	 -1.045738
H	 -3.268126	 0.875758	 0.463150
C	 -1.015845	 -1.025098	 1.250993
C	 -0.913922	 1.297344	 0.728803
H	 -1.501926	 -0.869508	 2.218653
H	 -1.339281	 -1.987963	 0.873681
C	 0.487943	 -1.046053	 1.451483
H	 -1.162942	 2.029954	 -0.029723
H	 -1.393051	 1.611251	 1.660868
C	 0.589866	 1.276389	 0.929293
H	 0.736963	 -1.778662	 2.210009
H	 0.967072	 -1.359960	 0.519418
N	 0.965154	 0.251275	 1.878965
H	 0.913302	 2.239254	 1.306605
H	 1.075947	 1.120799	 -0.038367
C	 2.380036	 0.251284	 2.155400
H	 2.608332	 -0.486502	 2.914423
H	 2.683206	 1.220759	 2.530590
H	 2.985130	 0.026277	 1.272569

	symmetry c1
}
set optking {
	frozen_dihedral = ("
		6 3 2 4
	")
}

ee = optimize('scf')
oeprop('DIPOLE', 'QUADRUPOLE', 'MULLIKEN_CHARGES')
f=open( 'psi4out.xyz', 'w' )
f.write( "22  " )
f.write( str(ee) + "\n" )
f.write( MOL.save_string_xyz() )
f.close()
--------------------------------------------------------------------------

    Molecular point group: c1
  Charge       = 0
  Multiplicity = 1
  Basis Set: CC-PVTZ
  Basis Set:
  @DF-RHF Final Energy:  -344.34452117972972
    Total Energy =                       -344.3445211797301226
    Molecular point group: c1
  Basis Set: CC-PVTZ
  Basis Set:
  Basis Set: CC-PVTZ
  Basis Set:
  @DF-RHF Final Energy:  -344.34536276408369
    Total Energy =                       -344.3453627640836885
  Basis Set: CC-PVTZ
  Basis Set:
  Basis Set: CC-PVTZ
  Basis Set:
  @DF-RHF Final Energy:  -344.34550220100954
    Total Energy =                       -344.3455022010099356
  Basis Set: CC-PVTZ
  Basis Set:
  Basis Set: CC-PVTZ
  Basis Set:
  @DF-RHF Final Energy:  -344.34551344917674
    Total Energy =                       -344.3455134491766785
  Basis Set: CC-PVTZ
  Basis Set:
  Charge       = 0
  Multiplicity = 1
  Basis Set: CC-PVTZ
  Basis Set:

    Orbital Energies (a.u.)
    -----------------------

    Doubly Occupied:

       1A    -15.537209     2A    -15.533552     3A    -11.237423
       4A    -11.237269     5A    -11.236373     6A    -11.236360
       7A    -11.234055     8A    -11.233923     9A     -1.255266
      10A     -1.203518    11A     -1.025806    12A     -0.991990
      13A     -0.912727    14A     -0.868040    15A     -0.836446
      16A     -0.753859    17A     -0.666014    18A     -0.636762
      19A     -0.631650    20A     -0.625329    21A     -0.621248
      22A     -0.580609    23A     -0.551729    24A     -0.549522
      25A     -0.542904    26A     -0.519622    27A     -0.497222
      28A     -0.488189    29A     -0.466803    30A     -0.456859
      31A     -0.351096    32A     -0.340783

  @DF-RHF Final Energy:  -344.34551433012422

   => Energetics <=

    Nuclear Repulsion Energy =            421.4248601564101477
    One-Electron Energy =               -1301.8204328338670166
    Two-Electron Energy =                 536.0500583473324241
    DFT Exchange-Correlation Energy =       0.0000000000000000
    Empirical Dispersion Energy =           0.0000000000000000
    PCM Polarization Energy =               0.0000000000000000
    EFP Energy =                            0.0000000000000000
    Total Energy =                       -344.3455143301243879
    Molecular point group: c1
  Basis Set: CC-PVTZ
  Basis Set:

  -Total Gradient:
     Atom            X                  Y                   Z
    ------   -----------------  -----------------  -----------------
       1       -0.000006752704    -0.000012954689     0.000008323758
       2        0.000078966162     0.003927632229    -0.000762637997
       3       -0.000658046926     0.001444201300     0.002974925843
       4        0.000066772179    -0.003626076764    -0.000100148395
       5        0.000026512415    -0.000026265347     0.000017264554
       6        0.000502653401    -0.001739969182    -0.002113812349
       7       -0.000011970208     0.000035746770    -0.000012712054
       8        0.000002460607     0.000007825703    -0.000016460861
       9        0.000005174819     0.000002030075     0.000003442796
      10        0.000006400821    -0.000002300106     0.000004857505
      11        0.000001089349     0.000003326599     0.000003094508
      12       -0.000000815231    -0.000011159324    -0.000005279792
      13       -0.000003934460     0.000007150884     0.000001604751
      14        0.000007012985    -0.000001251704     0.000001762550
      15       -0.000008592391    -0.000004501162    -0.000001996333
      16       -0.000018285380    -0.000006209892    -0.000013391529
      17        0.000002878816     0.000000105237    -0.000000061545
      18       -0.000005368658     0.000004323980    -0.000004077601
      19        0.000002533419    -0.000001836947     0.000016403359
      20        0.000007554996     0.000001572655    -0.000000210596
      21        0.000005256927    -0.000001591337    -0.000000206978
      22       -0.000001500938     0.000000201024    -0.000000683595

  **** Optimization is complete! (in 5 steps) ****
    Final optimized geometry and variables:
    Molecular point group: c1

    Geometry (in Angstrom), charge = 0, multiplicity = 1:

    H           -3.075283280725    -1.033109991789    -0.748413529255
    C           -2.602235145824    -0.121088690738    -1.092059444252
    N           -1.195573577254    -0.119669248652    -0.743134887876
    H           -2.738146024757    -0.085618648404    -2.167709443161
    H           -3.143027518931     0.708411845223    -0.642059222483
    C           -0.805428692069    -1.154838043586     0.186475410504
    C           -0.698641860551     1.178463123210    -0.352880755162
    H           -1.272715397489    -1.020257583616     1.166971716125
    H           -1.126317920690    -2.114067486524    -0.200456969129
    C            0.702116973585    -1.172300571840     0.360526822787
    H           -0.948772562751     1.897307208788    -1.124644754506
    H           -1.161622390041     1.521252012951     0.577520422785
    C            0.807475638199     1.146903966806    -0.172278553223
    H            0.965734154891    -1.905220463681     1.113956942436
    H            1.164725357487    -1.484765899933    -0.580574968744
    N            1.186676398354     0.125133308738     0.779331712318
    H            1.143785315245     2.109802484183     0.193852624824
    H            1.279863429568     0.980050191957    -1.145008086445
    C            2.603821870743     0.121381406796     1.043491815276
    H            2.836230388311    -0.613578186219     1.804070809688
    H            2.913899292289     1.091581262975     1.411230204136
    H            3.200624603411    -0.110098381019     0.156539369322

  Mulliken Charges: (a.u.)
   Center  Symbol    Alpha    Beta     Spin     Total
       1     H     0.45849  0.45849  0.00000  0.08302
       2     C     3.09354  3.09354  0.00000 -0.18708
       3     N     3.61484  3.61484  0.00000 -0.22967
       4     H     0.45015  0.45015  0.00000  0.09969
       5     H     0.46364  0.46364  0.00000  0.07272
       6     C     3.03443  3.03443  0.00000 -0.06886
       7     C     3.03491  3.03491  0.00000 -0.06983
       8     H     0.46914  0.46914  0.00000  0.06173
       9     H     0.45384  0.45384  0.00000  0.09231
      10     C     3.03662  3.03662  0.00000 -0.07324
      11     H     0.45357  0.45357  0.00000  0.09286
      12     H     0.46868  0.46868  0.00000  0.06264
      13     C     3.03706  3.03706  0.00000 -0.07412
      14     H     0.45409  0.45409  0.00000  0.09183
      15     H     0.46879  0.46879  0.00000  0.06242
      16     N     3.61304  3.61304  0.00000 -0.22608
      17     H     0.45410  0.45410  0.00000  0.09179
      18     H     0.46866  0.46866  0.00000  0.06268
      19     C     3.09824  3.09824  0.00000 -0.19649
      20     H     0.45197  0.45197  0.00000  0.09605
      21     H     0.45196  0.45196  0.00000  0.09608
      22     H     0.47023  0.47023  0.00000  0.05953

   Total alpha = 32.00000, Total beta = 32.00000, Total charge = -0.00000
