                              Psi4 1.0.54 Driver

  ==> Input File <==

--------------------------------------------------------------------------
set {
	reference rhf
	basis cc-pvtz
}

set_num_threads( 4 )
memory 2 gb

molecule MOL {
0 1

O	 0.555279	 1.270894	 0.433540
C	 0.485107	 0.171416	 -0.000134
C	 1.606966	 -0.836201	 0.000174
O	 -0.608238	 -0.325359	 -0.551855
C	 2.988788	 -0.202529	 -0.000115
H	 1.465110	 -1.474645	 -0.864821
H	 1.465209	 -1.474077	 0.865596
H	 3.131767	 0.419673	 -0.873407
H	 3.750876	 -0.972315	 0.000098
H	 3.131883	 0.420264	 0.872742
C	 -1.753829	 0.511777	 -0.623356
C	 -2.859077	 -0.274072	 -1.289206
H	 -1.506160	 1.401831	 -1.184436
H	 -2.030607	 0.817573	 0.375747
H	 -2.570256	 -0.575594	 -2.288225
H	 -3.750874	 0.337413	 -1.360039
H	 -3.097748	 -1.163138	 -0.719147

	symmetry c1
}
set optking {
	frozen_dihedral = ("
		4 2 3 6
	")
}

ee,wfn = optimize('scf', return_wfn=True)
oeprop( wfn, 'DIPOLE', 'QUADRUPOLE', 'MULLIKEN_CHARGES')
f=open( 'psi4out.xyz', 'w' )
f.write( "17  " )
f.write( str(ee) + "\n" )
f.write( MOL.save_string_xyz() )
f.close()
--------------------------------------------------------------------------

    Molecular point group: c1
  Charge       = 0
  Multiplicity = 1
  Basis Set: CC-PVTZ
  Basis Set:
  @DF-RHF Final Energy:  -345.03984537507699
    Total Energy =                       -345.0398453750769363
    Molecular point group: c1
  Basis Set: CC-PVTZ
  Basis Set:
  Basis Set: CC-PVTZ
  Basis Set:
  @DF-RHF Final Energy:  -345.03985842393331
    Total Energy =                       -345.0398584239334809
  Basis Set: CC-PVTZ
  Basis Set:
  Basis Set: CC-PVTZ
  Basis Set:
  @DF-RHF Final Energy:  -345.03997933786343
    Total Energy =                       -345.0399793378634286
  Basis Set: CC-PVTZ
  Basis Set:
  Basis Set: CC-PVTZ
  Basis Set:
  @DF-RHF Final Energy:  -345.04004634340117
    Total Energy =                       -345.0400463434010589
  Basis Set: CC-PVTZ
  Basis Set:
  Basis Set: CC-PVTZ
  Basis Set:
  @DF-RHF Final Energy:  -345.04006272880088
    Total Energy =                       -345.0400627288008764
  Basis Set: CC-PVTZ
  Basis Set:
  Charge       = 0
  Multiplicity = 1
  Basis Set: CC-PVTZ
  Basis Set:

    Orbital Energies (a.u.)
    -----------------------

    Doubly Occupied:

       1A    -20.594578     2A    -20.531751     3A    -11.363562
       4A    -11.282672     5A    -11.235591     6A    -11.220509
       7A    -11.215338     8A     -1.470755     9A     -1.364455
      10A     -1.070739    11A     -1.032778    12A     -0.911653
      13A     -0.848725    14A     -0.775770    15A     -0.697493
      16A     -0.691600    17A     -0.668425    18A     -0.627892
      19A     -0.586608    20A     -0.575520    21A     -0.557858
      22A     -0.526153    23A     -0.523397    24A     -0.513049
      25A     -0.505282    26A     -0.492529    27A     -0.456277
      28A     -0.438338

  @DF-RHF Final Energy:  -345.04006332771365

   => Energetics <=

    Nuclear Repulsion Energy =            315.2219030803598230
    One-Electron Energy =               -1094.9653438135185297
    Two-Electron Energy =                 434.7033774054447690
    DFT Exchange-Correlation Energy =       0.0000000000000000
    Empirical Dispersion Energy =           0.0000000000000000
    PCM Polarization Energy =               0.0000000000000000
    EFP Energy =                            0.0000000000000000
    Total Energy =                       -345.0400633277138809
    Molecular point group: c1
  Basis Set: CC-PVTZ
  Basis Set:

  -Total Gradient:
     Atom            X                  Y                   Z
    ------   -----------------  -----------------  -----------------
       1       -0.000018727003     0.000113499290     0.000055628641
       2       -0.000378225014    -0.000569460034     0.001170008418
       3        0.000841579959     0.001026482282    -0.001007663585
       4        0.000213389744     0.000260472364    -0.000980580635
       5       -0.000032607148    -0.000055717835    -0.000057825317
       6       -0.000630318586    -0.000722896214     0.000636816234
       7       -0.000007186414    -0.000078664940     0.000046715002
       8        0.000013867947     0.000039136374    -0.000048612244
       9        0.000012850895    -0.000021837433     0.000004764027
      10        0.000004631815     0.000042663401     0.000058850813
      11       -0.000035385160    -0.000138500092     0.000343873820
      12       -0.000005897385     0.000041014594    -0.000088719800
      13        0.000070874575     0.000066379199    -0.000087641311
      14       -0.000037008613     0.000050118974    -0.000007951555
      15       -0.000014216944    -0.000037383020    -0.000073903489
      16       -0.000006846048     0.000011077913    -0.000008907901
      17        0.000009223378    -0.000026384825     0.000045148883

  **** Optimization is complete! (in 6 steps) ****
    Final optimized geometry and variables:
    Molecular point group: c1

    Geometry (in Angstrom), charge = 0, multiplicity = 1:

    O            0.513775412759     1.257390086810     0.634559492198
    C            0.450212715345     0.140691504136     0.244844668297
    C            1.596110925079    -0.840484233799     0.255427770858
    O           -0.655144901526    -0.399897979891    -0.235617823306
    C            2.961192179953    -0.169296135546     0.216061403381
    H            1.461086523919    -1.538806639967    -0.559464530376
    H            1.486148786206    -1.419349422906     1.168501346666
    H            3.092767529203     0.393750719371    -0.699890461887
    H            3.744714877855    -0.915161521247     0.269046485411
    H            3.079194197935     0.514794790899     1.044428020818
    C           -1.830309988178     0.398753747233    -0.250694327545
    C           -2.944835411677    -0.431285480460    -0.843743497878
    H           -1.643624546213     1.288530776095    -0.835269438514
    H           -2.059911552416     0.709036637916     0.759022668682
    H           -2.703055452563    -0.736685766776    -1.854113632857
    H           -3.858812510285     0.150212725425    -0.870962300605
    H           -3.121666265927    -1.319902299038    -0.250772598626

  Mulliken Charges: (a.u.)
   Center  Symbol    Alpha    Beta     Spin     Total
       1     O     4.19925  4.19925  0.00000 -0.39850
       2     C     2.81202  2.81202  0.00000  0.37595
       3     C     3.09004  3.09004  0.00000 -0.18007
       4     O     4.14966  4.14966  0.00000 -0.29932
       5     C     3.14115  3.14115  0.00000 -0.28231
       6     H     0.43906  0.43906  0.00000  0.12188
       7     H     0.44551  0.44551  0.00000  0.10898
       8     H     0.45243  0.45243  0.00000  0.09513
       9     H     0.45025  0.45025  0.00000  0.09949
      10     H     0.44329  0.44329  0.00000  0.11343
      11     C     2.97869  2.97869  0.00000  0.04262
      12     C     3.13315  3.13315  0.00000 -0.26630
      13     H     0.45395  0.45395  0.00000  0.09211
      14     H     0.45439  0.45439  0.00000  0.09123
      15     H     0.45133  0.45133  0.00000  0.09735
      16     H     0.45434  0.45434  0.00000  0.09132
      17     H     0.45149  0.45149  0.00000  0.09702

   Total alpha = 28.00000, Total beta = 28.00000, Total charge = -0.00000

*** Psi4 exiting successfully. Buy a developer a beer!
