  ==> Input File <==

--------------------------------------------------------------------------
set {
	reference rhf
	basis cc-pvtz
}

set_num_threads( 4 )
memory 2 gb

molecule MOL {
0 1

H	 2.023377	 -5.042120	 -2.720749
C	 1.988191	 -4.124748	 -2.166399
C	 0.886834	 -3.818825	 -1.379471
C	 3.033167	 -3.232192	 -2.223357
H	 0.061720	 -4.503291	 -1.322663
C	 0.837600	 -2.644593	 -0.667587
H	 3.893747	 -3.451432	 -2.826701
C	 2.999773	 -2.041636	 -1.510706
H	 -0.008581	 -2.398743	 -0.056683
C	 1.897691	 -1.746255	 -0.729525
H	 3.829008	 -1.368183	 -1.576214
O	 1.760432	 -0.625184	 0.000000
C	 2.773565	 0.334879	 0.000000
H	 2.728295	 0.960928	 -0.884150
H	 3.706387	 -0.206610	 0.000000
H	 2.728295	 0.960928	 0.884150

	symmetry c1
}
set optking {
	frozen_dihedral = ("
		10 12 13 14
	")
}

ee = optimize('scf')
oeprop('DIPOLE', 'QUADRUPOLE', 'MULLIKEN_CHARGES')
f=open( 'psi4out.xyz', 'w' )
f.write( "16  " )
f.write( str(ee) + "\n" )
f.write( MOL.save_string_xyz() )
f.close()
--------------------------------------------------------------------------

    Molecular point group: c1
  Charge       = 0
  Multiplicity = 1
  Basis Set: CC-PVTZ
  Basis Set:
  @DF-RHF Final Energy:  -344.69959320793879
    Total Energy =                       -344.6995932079385057
    Molecular point group: c1
  Basis Set: CC-PVTZ
  Basis Set:
  Basis Set: CC-PVTZ
  Basis Set:
  @DF-RHF Final Energy:  -344.70160236799217
    Total Energy =                       -344.7016023679921091
  Basis Set: CC-PVTZ
  Basis Set:
  Basis Set: CC-PVTZ
  Basis Set:
  @DF-RHF Final Energy:  -344.70289274471088
    Total Energy =                       -344.7028927447109936
  Basis Set: CC-PVTZ
  Basis Set:
  Basis Set: CC-PVTZ
  Basis Set:
  @DF-RHF Final Energy:  -344.70295590171497
    Total Energy =                       -344.7029559017150859
  Basis Set: CC-PVTZ
  Basis Set:
  Basis Set: CC-PVTZ
  Basis Set:
  @DF-RHF Final Energy:  -344.70296410719669
    Total Energy =                       -344.7029641071968626
  Basis Set: CC-PVTZ
  Basis Set:
  Charge       = 0
  Multiplicity = 1
  Basis Set: CC-PVTZ
  Basis Set:

    Orbital Energies (a.u.)
    -----------------------

    Doubly Occupied:

       1A    -20.579451     2A    -11.293424     3A    -11.278277
       4A    -11.231270     5A    -11.229997     6A    -11.221880
       7A    -11.218032     8A    -11.217076     9A     -1.418724
      10A     -1.150958    11A     -1.025461    12A     -1.016710
      13A     -0.943935    14A     -0.834764    15A     -0.808308
      16A     -0.725599    17A     -0.667480    18A     -0.666531
      19A     -0.660240    20A     -0.618921    21A     -0.590388
      22A     -0.580031    23A     -0.528814    24A     -0.522488
      25A     -0.512123    26A     -0.480395    27A     -0.465206
      28A     -0.339702    29A     -0.310362

  @DF-RHF Final Energy:  -344.70296450066957

   => Energetics <=

    Nuclear Repulsion Energy =            348.8024320902372324
    One-Electron Energy =               -1158.7376985968121517
    Two-Electron Energy =                 465.2323020059054670
    DFT Exchange-Correlation Energy =       0.0000000000000000
    Empirical Dispersion Energy =           0.0000000000000000
    PCM Polarization Energy =               0.0000000000000000
    EFP Energy =                            0.0000000000000000
    Total Energy =                       -344.7029645006693954
    Molecular point group: c1
  Basis Set: CC-PVTZ
  Basis Set:

  -Total Gradient:
     Atom            X                  Y                   Z
    ------   -----------------  -----------------  -----------------
       1       -0.000012974535    -0.000003439606     0.000003838831
       2        0.000122623079     0.000026932948    -0.000032231182
       3       -0.000076451318     0.000085849951     0.000073808159
       4       -0.000075321351    -0.000099489881    -0.000047143572
       5        0.000003505569    -0.000010749622    -0.000003517340
       6       -0.000078475727    -0.000120898515    -0.000085368282
       7        0.000002754471     0.000010031110     0.000007223161
       8       -0.000070415759     0.000090883238     0.000058805620
       9        0.000006758123     0.000002735509     0.000004455732
      10        0.000687504585    -0.000965541395     0.001851736871
      11        0.000004940804     0.000004881827    -0.000003064852
      12       -0.001191238911     0.001872873345    -0.002428755537
      13        0.002097146001    -0.002603995205    -0.000250210110
      14       -0.001431351807     0.001706689778     0.000859561600
      15       -0.000001285949     0.000001623587    -0.000007052999
      16        0.000012282723     0.000001612939    -0.000002086097

  **** Optimization is complete! (in 6 steps) ****
    Final optimized geometry and variables:
    Molecular point group: c1

    Geometry (in Angstrom), charge = 0, multiplicity = 1:

    H            0.007045008106    -2.940227785156    -1.592128046523
    C           -0.038704383941    -2.002461507137    -1.073784543078
    C           -1.125927643700    -1.695541678453    -0.268555177139
    C            0.977852001373    -1.083630199854    -1.198361271257
    H           -1.928819964110    -2.400000757605    -0.160604412198
    C           -1.187888259114    -0.495907681218     0.399713778134
    H            1.824704225089    -1.301337238985    -1.821352078023
    C            0.929260041951     0.132961275267    -0.533203119430
    H           -2.022779893229    -0.249477964380     1.025726563328
    C           -0.155359216469     0.426395250170     0.272828618258
    H            1.729063673403     0.833563033253    -0.658988294549
    O           -0.307331129122     1.580310052384     0.947315307786
    C            0.778756607343     2.443816955466     1.112525124475
    H            0.948101742186     3.040380759943     0.222622036137
    H            1.682295533042     1.907807805625     1.374321640662
    H            0.518671433226     3.109130020611     1.921777685651

  Mulliken Charges: (a.u.)
   Center  Symbol    Alpha    Beta     Spin     Total
       1     H     0.42440  0.42440  0.00000  0.15120
       2     C     3.10048  3.10048  0.00000 -0.20096
       3     C     3.05831  3.05831  0.00000 -0.11661
       4     C     3.06196  3.06196  0.00000 -0.12391
       5     H     0.42297  0.42297  0.00000  0.15406
       6     C     3.11076  3.11076  0.00000 -0.22153
       7     H     0.42341  0.42341  0.00000  0.15317
       8     C     3.14128  3.14128  0.00000 -0.28256
       9     H     0.42064  0.42064  0.00000  0.15871
      10     C     2.85239  2.85239  0.00000  0.29522
      11     H     0.42272  0.42272  0.00000  0.15457
      12     O     4.15286  4.15286  0.00000 -0.30572
      13     C     3.04411  3.04411  0.00000 -0.08822
      14     H     0.46019  0.46019  0.00000  0.07963
      15     H     0.46323  0.46323  0.00000  0.07354
      16     H     0.44029  0.44029  0.00000  0.11941

   Total alpha = 29.00000, Total beta = 29.00000, Total charge =  0.00000
