  ==> Input File <==

--------------------------------------------------------------------------
set {
	reference rhf
	basis cc-pvtz
}

set_num_threads( 4 )
memory 2 gb

molecule MOL {
0 1

H	 -2.444000	 -2.356000	 -0.001000
C	 -1.889000	 -1.437000	 -0.001000
C	 -2.539000	 -0.214000	 -0.000000
C	 -0.511000	 -1.462000	 -0.001000
H	 -3.614000	 -0.173000	 -0.000000
C	 -1.812000	 0.962000	 0.000000
H	 0.021000	 -2.390000	 -0.001000
C	 0.206000	 -0.273000	 -0.000000
H	 -2.335000	 1.900000	 0.001000
C	 -0.419000	 0.979000	 0.000000
N	 1.662000	 -0.407000	 -0.000000
C	 0.274000	 2.324000	 0.001000
O	 2.325000	 0.586000	 -0.003000
O	 2.119000	 -1.511000	 0.002000
H	 0.904000	 2.447000	 -0.869000
H	 -0.474000	 3.107000	 0.002000
H	 0.905000	 2.445000	 0.870000

	symmetry c1
}
ee = optimize('scf')
oeprop('DIPOLE', 'QUADRUPOLE', 'MULLIKEN_CHARGES')
f=open( 'psi4out.xyz', 'w' )
f.write( "17  " )
f.write( str(ee) + "\n" )
f.write( MOL.save_string_xyz() )
f.close()
--------------------------------------------------------------------------

    Molecular point group: c1
  Charge       = 0
  Multiplicity = 1
  Basis Set: CC-PVTZ
  Basis Set:
  @DF-RHF Final Energy:  -473.37434544686221
    Total Energy =                       -473.3743454468624350
    Molecular point group: c1
  Basis Set: CC-PVTZ
  Basis Set:
  Basis Set: CC-PVTZ
  Basis Set:
  @DF-RHF Final Energy:  -473.37459185539291
    Total Energy =                       -473.3745918553933052
  Basis Set: CC-PVTZ
  Basis Set:
  Basis Set: CC-PVTZ
  Basis Set:
  @DF-RHF Final Energy:  -473.35479715528913
    Total Energy =                       -473.3547971552892477
  Basis Set: CC-PVTZ
  Basis Set:
  Basis Set: CC-PVTZ
  Basis Set:
  @DF-RHF Final Energy:  -473.37414090243306
    Total Energy =                       -473.3741409024330551
  Basis Set: CC-PVTZ
  Basis Set:
  @DF-RHF Final Energy:  -473.37469257494325
    Total Energy =                       -473.3746925749435377
  @DF-RHF Final Energy:  -473.37469335794168
    Total Energy =                       -473.3746933579415099
  @DF-RHF Final Energy:  -473.37469593532188
    Total Energy =                       -473.3746959353225066
  @DF-RHF Final Energy:  -473.37469719488320
    Total Energy =                       -473.3746971948836517
  @DF-RHF Final Energy:  -473.37469695266435
    Total Energy =                       -473.3746969526640669
  @DF-RHF Final Energy:  -473.37470032268845
    Total Energy =                       -473.3747003226881134
  @DF-RHF Final Energy:  -473.37470154477194
    Total Energy =                       -473.3747015447720514
  @DF-RHF Final Energy:  -473.37470149088398
    Total Energy =                       -473.3747014908836945
  @DF-RHF Final Energy:  -473.37470157385195
    Total Energy =                       -473.3747015738516666
  @DF-RHF Final Energy:  -473.37470133487705
    Total Energy =                       -473.3747013348769315
  @DF-RHF Final Energy:  -473.37470151304984
    Total Energy =                       -473.3747015130500131
  @DF-RHF Final Energy:  -473.37470139438409
    Total Energy =                       -473.3747013943844877
  @DF-RHF Final Energy:  -473.37470151236028
    Total Energy =                       -473.3747015123603887
  @DF-RHF Final Energy:  -473.37470132047167
    Total Energy =                       -473.3747013204718996
  @DF-RHF Final Energy:  -473.37470110237729
    Total Energy =                       -473.3747011023776849
  @DF-RHF Final Energy:  -473.37470105599061
    Total Energy =                       -473.3747010559902719
  @DF-RHF Final Energy:  -473.37467457624228
    Total Energy =                       -473.3746745762424553
  @DF-RHF Final Energy:  -473.37469933769103
    Total Energy =                       -473.3746993376912542
  @DF-RHF Final Energy:  -473.37469360285337
    Total Energy =                       -473.3746936028533128
  @DF-RHF Final Energy:  -473.37469476163488
    Total Energy =                       -473.3746947616346006
  @DF-RHF Final Energy:  -473.37469518469186
    Total Energy =                       -473.3746951846917455
  @DF-RHF Final Energy:  -473.37469218067980
    Total Energy =                       -473.3746921806799719
  @DF-RHF Final Energy:  -473.37469291328512
    Total Energy =                       -473.3746929132852301
  @DF-RHF Final Energy:  -473.37469058406197
    Total Energy =                       -473.3746905840619092
  @DF-RHF Final Energy:  -473.37469339384376
    Total Energy =                       -473.3746933938436996
  @DF-RHF Final Energy:  -473.37469130960460
    Total Energy =                       -473.3746913096044864
  @DF-RHF Final Energy:  -473.37469751324136
    Total Energy =                       -473.3746975132412445
  @DF-RHF Final Energy:  -473.37469964527821
    Total Energy =                       -473.3746996452784970
  @DF-RHF Final Energy:  -473.37469918729221
    Total Energy =                       -473.3746991872924355
  @DF-RHF Final Energy:  -473.37470024731709
    Total Energy =                       -473.3747002473173779
  @DF-RHF Final Energy:  -473.37470006079388
    Total Energy =                       -473.3747000607935433
  @DF-RHF Final Energy:  -473.37469976287235
    Total Energy =                       -473.3746997628722966
  Basis Set: CC-PVTZ
  Basis Set:
  @DF-RHF Final Energy:  -473.37469158714885
    Total Energy =                       -473.3746915871486181
  Basis Set: CC-PVTZ
  Basis Set:
  Basis Set: CC-PVTZ
  Basis Set:
  @DF-RHF Final Energy:  -473.37469990420385
    Total Energy =                       -473.3746999042039079
  Basis Set: CC-PVTZ
  Basis Set:
  Basis Set: CC-PVTZ
  Basis Set:
  @DF-RHF Final Energy:  -473.37469937175615
    Total Energy =                       -473.3746993717563782
  Basis Set: CC-PVTZ
  Basis Set:
  Charge       = 0
  Multiplicity = 1
  Basis Set: CC-PVTZ
  Basis Set:

    Orbital Energies (a.u.)
    -----------------------

    Doubly Occupied:

       1A    -20.588411     2A    -20.586055     3A    -15.844889
       4A    -11.299066     5A    -11.280511     6A    -11.261791
       7A    -11.260863     8A    -11.249875     9A    -11.249108
      10A    -11.231075    11A     -1.638395    12A     -1.419135
      13A     -1.202014    14A     -1.092650    15A     -1.073703
      16A     -0.981247    17A     -0.932069    18A     -0.848296
      19A     -0.826862    20A     -0.772824    21A     -0.738432
      22A     -0.731183    23A     -0.695390    24A     -0.668591
      25A     -0.639188    26A     -0.599235    27A     -0.590653
      28A     -0.563003    29A     -0.543014    30A     -0.522628
      31A     -0.521262    32A     -0.488186    33A     -0.479830
      34A     -0.453869    35A     -0.373255    36A     -0.356597

  @DF-RHF Final Energy:  -473.37469986343200

   => Energetics <=

    Nuclear Repulsion Energy =            511.0093972454351956
    One-Electron Energy =               -1657.5618833595569868
    Two-Electron Energy =                 673.1777862506902466
    DFT Exchange-Correlation Energy =       0.0000000000000000
    Empirical Dispersion Energy =           0.0000000000000000
    PCM Polarization Energy =               0.0000000000000000
    EFP Energy =                            0.0000000000000000
    Total Energy =                       -473.3746998634316014
    Molecular point group: c1
  Basis Set: CC-PVTZ
  Basis Set:

  -Total Gradient:
     Atom            X                  Y                   Z
    ------   -----------------  -----------------  -----------------
       1        0.000132086081     0.000218754083     0.000045156959
       2        0.000141754459    -0.000199433973    -0.000056864800
       3       -0.000021968826    -0.000258281064    -0.000039927401
       4       -0.000671096416    -0.000222903911     0.000174960202
       5        0.000002597103     0.000111266081    -0.000083083930
       6        0.000222754196     0.000328755209     0.000472835120
       7        0.000017602514     0.000089942791     0.000080139938
       8        0.002309796745    -0.000321943157    -0.000665577925
       9        0.000101039830    -0.000179403910    -0.000019424980
      10       -0.000572773835     0.000409220578    -0.000435978536
      11       -0.000994584283     0.000669742338     0.001076345322
      12       -0.000533755981     0.000362506974    -0.000139846086
      13       -0.000394851049    -0.000603971053    -0.000228807783
      14       -0.000113982570     0.000063619882    -0.000470484185
      15        0.000004289882    -0.000143516607     0.000158326579
      16        0.000307820964    -0.000399767718    -0.000025870145
      17        0.000063271179     0.000075413451     0.000158101651

    Molecular point group: c1

    Geometry (in Angstrom), charge = 0, multiplicity = 1:

    H           -2.490296545040    -2.313272241508    -0.006519455902
    C           -1.936851754296    -1.395793733188    -0.004300533681
    C           -2.584696249644    -0.176681889520    -0.003193078637
    C           -0.562385895183    -1.420674281892    -0.000475955063
    H           -3.657085838417    -0.134312321139    -0.005560000518
    C           -1.859076996926     0.995575143215     0.001588177727
    H           -0.031056787526    -2.346895502526     0.003482226686
    C            0.153830118192    -0.235728281683    -0.002286638660
    H           -2.380870877875     1.931972655755     0.005471691435
    C           -0.469192398692     1.013062452184    -0.000776311181
    N            1.612991833707    -0.372125776223     0.001006804603
    C            0.218703409686     2.356563156532     0.008603930700
    O            2.270883309784     0.611584049392    -0.070665970501
    O            2.064075016367    -1.467822135739     0.068466948734
    H            0.836808383214     2.489652877625    -0.866218985482
    H           -0.529033418932     3.135504073875     0.030412111119
    H            0.861269033136     2.466918005044     0.869850191628

  Mulliken Charges: (a.u.)
   Center  Symbol    Alpha    Beta     Spin     Total
       1     H     0.41658  0.41658  0.00000  0.16684
       2     C     3.08196  3.08196  0.00000 -0.16392
       3     C     3.05981  3.05981  0.00000 -0.11962
       4     C     3.07559  3.07559  0.00000 -0.15118
       5     H     0.41820  0.41820  0.00000  0.16360
       6     C     3.09068  3.09068  0.00000 -0.18135
       7     H     0.39933  0.39933  0.00000  0.20134
       8     C     2.99960  2.99960  0.00000  0.00081
       9     H     0.41952  0.41952  0.00000  0.16096
      10     C     2.96899  2.96899  0.00000  0.06202
      11     N     3.24394  3.24394  0.00000  0.51213
      12     C     3.13453  3.13453  0.00000 -0.26906
      13     O     4.17879  4.17879  0.00000 -0.35757
      14     O     4.18177  4.18177  0.00000 -0.36355
      15     H     0.43761  0.43761  0.00000  0.12478
      16     H     0.45418  0.45418  0.00000  0.09164
      17     H     0.43894  0.43894  0.00000  0.12211

   Total alpha = 36.00000, Total beta = 36.00000, Total charge = -0.00000
