  ==> Input File <==

--------------------------------------------------------------------------
set {
	reference rhf
	basis cc-pvtz
}

set_num_threads( 4 )
memory 2 gb

molecule MOL {
0 1

H	 2.700095	 -0.969776	 0.176687
N	 2.326826	 -0.066186	 0.000000
C	 0.934676	 -0.005420	 0.000000
H	 2.769606	 0.622728	 0.562464
C	 0.226436	 -0.001077	 -1.195129
C	 0.226436	 -0.001077	 1.195129
H	 0.759091	 -0.011439	 -2.128123
C	 -1.153391	 0.009141	 -1.189028
H	 0.759091	 -0.011439	 2.128123
C	 -1.153391	 0.009141	 1.189028
H	 -1.680905	 0.012964	 -2.124348
C	 -1.857876	 0.014675	 0.000000
H	 -1.680905	 0.012964	 2.124348
H	 -2.930222	 0.022904	 0.000000

	symmetry c1
}
set optking {
	frozen_dihedral = ("
		1 2 3 5
	")
}

ee = optimize('scf')
oeprop('DIPOLE', 'QUADRUPOLE', 'MULLIKEN_CHARGES')
f=open( 'psi4out.xyz', 'w' )
f.write( "14  " )
f.write( str(ee) + "\n" )
f.write( MOL.save_string_xyz() )
f.close()
--------------------------------------------------------------------------

    Molecular point group: c1
  Charge       = 0
  Multiplicity = 1
  Basis Set: CC-PVTZ
  Basis Set:
  @DF-RHF Final Energy:  -285.82550996175047
    Total Energy =                       -285.8255099617504129
    Molecular point group: c1
  Basis Set: CC-PVTZ
  Basis Set:
  Basis Set: CC-PVTZ
  Basis Set:
  @DF-RHF Final Energy:  -285.82742381071387
    Total Energy =                       -285.8274238107137535
  Basis Set: CC-PVTZ
  Basis Set:
  Basis Set: CC-PVTZ
  Basis Set:
  @DF-RHF Final Energy:  -285.82782082410034
    Total Energy =                       -285.8278208241005132
  Basis Set: CC-PVTZ
  Basis Set:
  Basis Set: CC-PVTZ
  Basis Set:
  @DF-RHF Final Energy:  -285.82784474455843
    Total Energy =                       -285.8278447445582628
  Basis Set: CC-PVTZ
  Basis Set:
  Charge       = 0
  Multiplicity = 1
  Basis Set: CC-PVTZ
  Basis Set:

    Orbital Energies (a.u.)
    -----------------------

    Doubly Occupied:

       1A    -15.544481     2A    -11.260818     3A    -11.228687
       4A    -11.227158     5A    -11.223719     6A    -11.222994
       7A    -11.219306     8A     -1.211742     9A     -1.132106
      10A     -1.016004    11A     -0.990387    12A     -0.831207
      13A     -0.811080    14A     -0.706081    15A     -0.666327
      16A     -0.648730    17A     -0.627594    18A     -0.594106
      19A     -0.585776    20A     -0.510204    21A     -0.501886
      22A     -0.495348    23A     -0.419646    24A     -0.336592
      25A     -0.324540

  @DF-RHF Final Energy:  -285.82784685700472

   => Energetics <=

    Nuclear Repulsion Energy =            273.0168669711565599
    One-Electron Energy =                -927.0163881548273821
    Two-Electron Energy =                 368.1716743266663912
    DFT Exchange-Correlation Energy =       0.0000000000000000
    Empirical Dispersion Energy =           0.0000000000000000
    PCM Polarization Energy =               0.0000000000000000
    EFP Energy =                            0.0000000000000000
    Total Energy =                       -285.8278468570044311
    Molecular point group: c1
  Basis Set: CC-PVTZ
  Basis Set:

  -Total Gradient:
     Atom            X                  Y                   Z
    ------   -----------------  -----------------  -----------------
       1        0.000087874335     0.000340634902     0.002269859492
       2       -0.000004296634     0.000360518283    -0.002877060824
       3       -0.000140201695    -0.002384639030     0.000373405425
       4       -0.000008118283    -0.000007131865     0.000040883766
       5        0.000175343195     0.001717048294     0.000051303187
       6       -0.000070688702    -0.000038305007     0.000103066858
       7        0.000011932123     0.000012269498     0.000001079451
       8       -0.000118695121    -0.000057666015     0.000100223407
       9       -0.000002988220     0.000007925926    -0.000017711261
      10        0.000100787231    -0.000015323167     0.000047328770
      11        0.000009693581     0.000008666726     0.000012537595
      12       -0.000002392228     0.000066057304    -0.000120121815
      13       -0.000028594255     0.000000313085    -0.000011510842
      14       -0.000009655326    -0.000010368936     0.000026716791

  **** Optimization is complete! (in 5 steps) ****
    Final optimized geometry and variables:
    Molecular point group: c1

    Geometry (in Angstrom), charge = 0, multiplicity = 1:

    H            2.722049640101    -0.931034705294     0.092129685440
    N            2.353625286561    -0.013266399994    -0.049748482015
    C            0.926082528331    -0.016551986835    -0.002338681617
    H            2.732059143156     0.565863007032     0.669315806325
    C            0.223193824997    -0.007871540815    -1.194452552219
    C            0.222283618737     0.007389518890     1.191859760989
    H            0.771192971831    -0.003033485889    -2.116336503692
    C           -1.159154888942     0.000354788221    -1.193433401972
    H            0.758755552626     0.006583146137     2.122808851743
    C           -1.159295092756     0.031695666777     1.192668463786
    H           -1.690615504483     0.002358074867    -2.126126751226
    C           -1.856222165612     0.022965090978    -0.000668328702
    H           -1.690189342493     0.053194205154     2.125501093646
    H           -2.929170140806     0.038158109530    -0.000285482154

  Mulliken Charges: (a.u.)
   Center  Symbol    Alpha    Beta     Spin     Total
       1     H     0.42349  0.42349  0.00000  0.15302
       2     N     3.69730  3.69730  0.00000 -0.39459
       3     C     2.90351  2.90351  0.00000  0.19299
       4     H     0.42295  0.42295  0.00000  0.15410
       5     C     3.09917  3.09917  0.00000 -0.19834
       6     C     3.11342  3.11342  0.00000 -0.22683
       7     H     0.41814  0.41814  0.00000  0.16372
       8     C     3.06536  3.06536  0.00000 -0.13072
       9     H     0.42756  0.42756  0.00000  0.14487
      10     C     3.07221  3.07221  0.00000 -0.14443
      11     H     0.42314  0.42314  0.00000  0.15372
      12     C     3.08640  3.08640  0.00000 -0.17280
      13     H     0.42360  0.42360  0.00000  0.15281
      14     H     0.42376  0.42376  0.00000  0.15247

   Total alpha = 25.00000, Total beta = 25.00000, Total charge =  0.00000
