  ==> Input File <==

--------------------------------------------------------------------------
set {
	reference rhf
	basis 6-31G*
}

set_num_threads( 1 )
memory 2 gb

molecule MOL {
0 1

H	 -0.621181	 0.407159	 -2.575544
O	 -1.085131	 1.182626	 -2.290492
C	 -0.577066	 1.588746	 -1.053197
C	 -0.793441	 0.596080	 0.058728
H	 -1.076646	 2.520152	 -0.812146
H	 0.485884	 1.816125	 -1.127098
C	 -1.530462	 -0.493172	 -0.025500
H	 -0.290793	 0.832352	 0.983932
H	 -1.092586	 -1.461565	 -0.186463
H	 -2.602122	 -0.450675	 0.050101

	symmetry c1
}
set optking {
	frozen_dihedral = ("
		5 3 2 1,
		5 3 4 7
	")
}

ee = energy('scf')
oeprop('DIPOLE', 'QUADRUPOLE', 'MULLIKEN_CHARGES')
f=open( 'psi4out.xyz', 'w' )
f.write( "10  " )
f.write( str(ee) + "\n" )
f.write( MOL.save_string_xyz() )
f.close()
--------------------------------------------------------------------------

    Molecular point group: c1

    Geometry (in Angstrom), charge = 0, multiplicity = 1:

       Center              X                  Y                   Z               Mass
    ------------   -----------------  -----------------  -----------------  -----------------
           H          0.367869232069    -0.332101625351    -1.669788021181     1.007825032070
           O         -0.096080767931     0.443365374649    -1.384736021181    15.994914619560
           C          0.411984232069     0.849485374649    -0.147441021181    12.000000000000
           C          0.195609232069    -0.143180625351     0.964483978819    12.000000000000
           H         -0.087595767931     1.780891374649     0.093609978819     1.007825032070
           H          1.474934232069     1.076864374649    -0.221342021181     1.007825032070
           C         -0.541411767931    -1.232432625351     0.880255978819    12.000000000000
           H          0.698257232069     0.093091374649     1.889687978819     1.007825032070
           H         -0.103535767931    -2.200825625351     0.719292978819     1.007825032070
           H         -1.613071767931    -1.189935625351     0.955856978819     1.007825032070

  Charge       = 0
  Multiplicity = 1
  Basis Set: 6-31G*
  Basis Set:

    Orbital Energies (a.u.)
    -----------------------

    Doubly Occupied:

       1A    -20.558065     2A    -11.280934     3A    -11.244240
       4A    -11.213843     5A     -1.367138     6A     -1.061484
       7A     -0.929502     8A     -0.770116     9A     -0.687941
      10A     -0.640097    11A     -0.618034    12A     -0.582270
      13A     -0.563734    14A     -0.504784    15A     -0.450888
      16A     -0.264909

  @DF-RHF Final Energy:  -191.77290500755782

   => Energetics <=

    Nuclear Repulsion Energy =            119.1477537301709191
    One-Electron Energy =                -496.3653553184977341
    Two-Electron Energy =                 185.4446965807692607
    DFT Exchange-Correlation Energy =       0.0000000000000000
    Empirical Dispersion Energy =           0.0000000000000000
    PCM Polarization Energy =               0.0000000000000000
    EFP Energy =                            0.0000000000000000
    Total Energy =                       -191.7729050075575685

  Mulliken Charges: (a.u.)
   Center  Symbol    Alpha    Beta     Spin     Total
       1     H     0.28452  0.28452  0.00000  0.43096
       2     O     4.36081  4.36081  0.00000 -0.72162
       3     C     2.99870  2.99870  0.00000  0.00260
       4     C     3.08868  3.08868  0.00000 -0.17735
       5     H     0.41372  0.41372  0.00000  0.17255
       6     H     0.41662  0.41662  0.00000  0.16677
       7     C     3.22023  3.22023  0.00000 -0.44046
       8     H     0.40645  0.40645  0.00000  0.18710
       9     H     0.40651  0.40651  0.00000  0.18698
      10     H     0.40376  0.40376  0.00000  0.19248

   Total alpha = 16.00000, Total beta = 16.00000, Total charge =  0.00000
