  ==> Input File <==

--------------------------------------------------------------------------
set {
	reference rhf
	basis cc-pvtz
}

set_num_threads( 4 )
memory 2 gb

molecule MOL {
0 1

H	 -0.090124	 -3.721106	 0.262002
O	 0.248256	 -2.844530	 0.157842
C	 -0.774910	 -1.994980	 0.162114
C	 -0.318151	 -0.570512	 0.000144
O	 -1.893819	 -2.357952	 0.281542
C	 -1.454884	 0.441630	 -0.000560
H	 0.388896	 -0.368365	 0.798337
H	 0.254267	 -0.520732	 -0.920594
C	 -2.822577	 -0.232186	 0.000063
H	 -1.359760	 1.084704	 -0.867077
H	 -1.359641	 1.085996	 0.864983
H	 -2.954352	 -0.858985	 -0.875745
H	 -3.615886	 0.505352	 0.000019
H	 -2.953878	 -0.858359	 0.876394

	symmetry c1
}
set optking {
	frozen_dihedral = ("
		7 4 6 10
	")
}

ee = optimize('scf')
oeprop('DIPOLE', 'QUADRUPOLE', 'MULLIKEN_CHARGES')
f=open( 'psi4out.xyz', 'w' )
f.write( "14  " )
f.write( str(ee) + "\n" )
f.write( MOL.save_string_xyz() )
f.close()
--------------------------------------------------------------------------

    Molecular point group: c1
  Charge       = 0
  Multiplicity = 1
  Basis Set: CC-PVTZ
  Basis Set:
  @DF-RHF Final Energy:  -305.96463672171626
    Total Energy =                       -305.9646367217163743
    Molecular point group: c1
  Basis Set: CC-PVTZ
  Basis Set:
  Basis Set: CC-PVTZ
  Basis Set:
  @DF-RHF Final Energy:  -305.98339658495360
    Total Energy =                       -305.9833965849537094
  Basis Set: CC-PVTZ
  Basis Set:
  Basis Set: CC-PVTZ
  Basis Set:
  @DF-RHF Final Energy:  -305.98666413563097
    Total Energy =                       -305.9866641356308605
  Basis Set: CC-PVTZ
  Basis Set:
  Basis Set: CC-PVTZ
  Basis Set:
  @DF-RHF Final Energy:  -305.98248780417066
    Total Energy =                       -305.9824878041705460
  Basis Set: CC-PVTZ
  Basis Set:
  @DF-RHF Final Energy:  -305.98829145902488
    Total Energy =                       -305.9882914590247083
  @DF-RHF Final Energy:  -305.98849424866859
    Total Energy =                       -305.9884942486685304
  @DF-RHF Final Energy:  -305.98856291267072
    Total Energy =                       -305.9885629126707727
  @DF-RHF Final Energy:  -305.98884631560844
    Total Energy =                       -305.9888463156082707
  @DF-RHF Final Energy:  -305.98908832773122
    Total Energy =                       -305.9890883277308831
  @DF-RHF Final Energy:  -305.98959790363426
    Total Energy =                       -305.9895979036344897
  @DF-RHF Final Energy:  -305.99002526147410
    Total Energy =                       -305.9900252614740452
  @DF-RHF Final Energy:  -305.99034407380589
    Total Energy =                       -305.9903440738057157
  @DF-RHF Final Energy:  -305.99041614642721
    Total Energy =                       -305.9904161464271510
  @DF-RHF Final Energy:  -305.99094645860839
    Total Energy =                       -305.9909464586080503
  @DF-RHF Final Energy:  -305.99115764855662
    Total Energy =                       -305.9911576485566798
  @DF-RHF Final Energy:  -305.99142921227860
    Total Energy =                       -305.9914292122784332
  @DF-RHF Final Energy:  -305.99148454426256
    Total Energy =                       -305.9914845442626188
  Basis Set: CC-PVTZ
  Basis Set:
  @DF-RHF Final Energy:  -305.99155057748106
    Total Energy =                       -305.9915505774810072
  Basis Set: CC-PVTZ
  Basis Set:
  Basis Set: CC-PVTZ
  Basis Set:
  @DF-RHF Final Energy:  -305.99156575552740
    Total Energy =                       -305.9915657555274606
  Basis Set: CC-PVTZ
  Basis Set:
  Basis Set: CC-PVTZ
  Basis Set:
  @DF-RHF Final Energy:  -305.99156746714959
    Total Energy =                       -305.9915674671497641
  Basis Set: CC-PVTZ
  Basis Set:
  Charge       = 0
  Multiplicity = 1
  Basis Set: CC-PVTZ
  Basis Set:

    Orbital Energies (a.u.)
    -----------------------

    Doubly Occupied:

       1A    -20.605392     2A    -20.538321     3A    -11.372933
       4A    -11.238052     5A    -11.235062     6A    -11.214625
       7A     -1.477602     8A     -1.367883     9A     -1.081110
      10A     -0.978103    11A     -0.865663    12A     -0.798322
      13A     -0.706015    14A     -0.679826    15A     -0.653443
      16A     -0.635502    17A     -0.588529    18A     -0.573981
      19A     -0.560181    20A     -0.509040    21A     -0.498418
      22A     -0.483390    23A     -0.474931    24A     -0.441016

  @DF-RHF Final Energy:  -305.99156757910225

   => Energetics <=

    Nuclear Repulsion Energy =            247.2995594300642495
    One-Electron Energy =                -907.4275768472364234
    Two-Electron Energy =                 354.1364498380700070
    DFT Exchange-Correlation Energy =       0.0000000000000000
    Empirical Dispersion Energy =           0.0000000000000000
    PCM Polarization Energy =               0.0000000000000000
    EFP Energy =                            0.0000000000000000
    Total Energy =                       -305.9915675791021386
    Molecular point group: c1
  Basis Set: CC-PVTZ
  Basis Set:

  -Total Gradient:
     Atom            X                  Y                   Z
    ------   -----------------  -----------------  -----------------
       1        0.000001652815     0.000001276318     0.000001478668
       2        0.000000656702    -0.000012427060    -0.000024865441
       3       -0.000001586627     0.000017167432     0.000031558883
       4        0.001214088725     0.001215859223    -0.001641874726
       5        0.000003230431     0.000004209213    -0.000012667643
       6        0.000710350704     0.001424241168     0.001665294399
       7       -0.001127389375    -0.001239620598     0.001128744882
       8        0.000002568479    -0.000008023414     0.000006218823
       9        0.000011613952     0.000015178784     0.000001941973
      10       -0.000814343879    -0.001417154659    -0.001153977700
      11       -0.000007342252     0.000001435220    -0.000004687092
      12        0.000002974340     0.000000880863     0.000001864285
      13        0.000000935687    -0.000001137791     0.000001486038
      14        0.000002590298    -0.000001884705    -0.000000515349

  **** Optimization is complete! (in 21 steps) ****
    Final optimized geometry and variables:
    Molecular point group: c1

    Geometry (in Angstrom), charge = 0, multiplicity = 1:

    H            0.283753529991    -2.276991401356    -0.631043805184
    O            0.516838473250    -1.388389877850    -0.855732605971
    C            0.516746496273    -0.661445746284     0.257589831584
    C            0.852957442532     0.786168332061     0.013266014122
    O            0.270915477064    -1.133810321149     1.314278017998
    C           -0.387778213314     1.692703117124    -0.232911804883
    H            1.373597029235     1.115433482810     0.900073698122
    H            1.529070271838     0.839691493738    -0.827401724455
    C           -1.722272634009     0.976630440532    -0.436034766459
    H           -0.191780536494     2.293948435101    -1.111703363823
    H           -0.483632942991     2.376346396787     0.600160466203
    H           -1.693898061603     0.315700341289    -1.293954917534
    H           -2.505936741776     1.704925219800    -0.606311327446
    H           -1.998215592404     0.391745673046     0.432730597746

  Mulliken Charges: (a.u.)
   Center  Symbol    Alpha    Beta     Spin     Total
       1     H     0.38002  0.38002  0.00000  0.23996
       2     O     4.16648  4.16648  0.00000 -0.33295
       3     C     2.79271  2.79271  0.00000  0.41457
       4     C     3.09938  3.09938  0.00000 -0.19877
       5     O     4.20120  4.20120  0.00000 -0.40239
       6     C     3.08620  3.08620  0.00000 -0.17241
       7     H     0.43650  0.43650  0.00000  0.12701
       8     H     0.44036  0.44036  0.00000  0.11928
       9     C     3.16041  3.16041  0.00000 -0.32081
      10     H     0.44905  0.44905  0.00000  0.10189
      11     H     0.44703  0.44703  0.00000  0.10595
      12     H     0.44894  0.44894  0.00000  0.10211
      13     H     0.44623  0.44623  0.00000  0.10753
      14     H     0.44549  0.44549  0.00000  0.10903

   Total alpha = 24.00000, Total beta = 24.00000, Total charge =  0.00000
