  ==> Input File <==

--------------------------------------------------------------------------
set {
	reference rhf
	basis 6-31G*
}

set_num_threads( 4 )
memory 2 gb

molecule MOL {
0 1

H	 1.484914	 -1.622797	 1.504222
C	 1.655684	 -0.566010	 1.265810
C	 0.409747	 0.271825	 1.136927
O	 2.762762	 -0.156639	 1.128247
C	 -0.558097	 -0.297372	 0.091132
H	 0.705523	 1.285165	 0.891694
H	 -0.080311	 0.289867	 2.109731
C	 -1.850991	 0.512573	 -0.019058
H	 -0.064469	 -0.323157	 -0.877599
H	 -0.800115	 -1.328614	 0.341784
C	 -3.096943	 -0.368295	 -0.099594
H	 -1.800724	 1.150330	 -0.898172
H	 -1.931651	 1.177355	 0.838044
H	 -3.060452	 -1.020287	 -0.967456
H	 -3.996858	 0.233488	 -0.175704
H	 -3.191959	 -0.995686	 0.782074

	symmetry c1
}
set optking {
	frozen_dihedral = ("
		9 5 8 12
	")
}

ee = optimize('scf')
oeprop('DIPOLE', 'QUADRUPOLE', 'MULLIKEN_CHARGES')
f=open( 'psi4out.xyz', 'w' )
f.write( "16  " )
f.write( str(ee) + "\n" )
f.write( MOL.save_string_xyz() )
f.close()
--------------------------------------------------------------------------

    Molecular point group: c1
  Charge       = 0
  Multiplicity = 1
  Basis Set: 6-31G*
  Basis Set:
  @DF-RHF Final Energy:  -270.01487179127992
    Total Energy =                       -270.0148717912799725
    Molecular point group: c1
  Basis Set: 6-31G*
  Basis Set:
  Basis Set: 6-31G*
  Basis Set:
  @DF-RHF Final Energy:  -270.01506918049665
    Total Energy =                       -270.0150691804965390
  Basis Set: 6-31G*
  Basis Set:
  Basis Set: 6-31G*
  Basis Set:
  @DF-RHF Final Energy:  -270.01499014922507
    Total Energy =                       -270.0149901492247864
  Basis Set: 6-31G*
  Basis Set:
  Basis Set: 6-31G*
  Basis Set:
  @DF-RHF Final Energy:  -270.01522255516954
    Total Energy =                       -270.0152225551694301
  Basis Set: 6-31G*
  Basis Set:
  Basis Set: 6-31G*
  Basis Set:
  @DF-RHF Final Energy:  -270.01520735652934
    Total Energy =                       -270.0152073565292312
  Basis Set: 6-31G*
  Basis Set:
  Basis Set: 6-31G*
  Basis Set:
  @DF-RHF Final Energy:  -270.01522333630032
    Total Energy =                       -270.0152233363003234
  Basis Set: 6-31G*
  Basis Set:
  Basis Set: 6-31G*
  Basis Set:
  @DF-RHF Final Energy:  -270.01522903094263
    Total Energy =                       -270.0152290309423506
  Basis Set: 6-31G*
  Basis Set:
  Charge       = 0
  Multiplicity = 1
  Basis Set: 6-31G*
  Basis Set:

    Orbital Energies (a.u.)
    -----------------------

    Doubly Occupied:

       1A    -20.562438     2A    -11.326188     3A    -11.236590
       4A    -11.235196     5A    -11.229197     6A    -11.218954
       7A     -1.402096     8A     -1.094390     9A     -1.018421
      10A     -0.905452    11A     -0.812331    12A     -0.793542
      13A     -0.679462    14A     -0.639495    15A     -0.630646
      16A     -0.610985    17A     -0.578223    18A     -0.548540
      19A     -0.532786    20A     -0.506661    21A     -0.487642
      22A     -0.482042    23A     -0.474471    24A     -0.408456

  @DF-RHF Final Energy:  -270.01522914915120

   => Energetics <=

    Nuclear Repulsion Energy =            228.8611183468474337
    One-Electron Energy =                -818.9242930599195915
    Two-Electron Energy =                 320.0479455639210187
    DFT Exchange-Correlation Energy =       0.0000000000000000
    Empirical Dispersion Energy =           0.0000000000000000
    PCM Polarization Energy =               0.0000000000000000
    EFP Energy =                            0.0000000000000000
    Total Energy =                       -270.0152291491511392
    Molecular point group: c1
  Basis Set: 6-31G*
  Basis Set:

  -Total Gradient:
     Atom            X                  Y                   Z
    ------   -----------------  -----------------  -----------------
       1        0.000004113421    -0.000001902663    -0.000009812552
       2        0.000016123111     0.000007405725     0.000020352638
       3       -0.000018233181    -0.000061992999    -0.000078650159
       4        0.000008246433    -0.000002021166     0.000015743941
       5       -0.002624228021    -0.004282090940    -0.001435699014
       6        0.000000875238     0.000002216804    -0.000001983303
       7        0.000004246309    -0.000001449311    -0.000007830763
       8        0.002260348403     0.003895210782     0.002663122134
       9        0.001867478735     0.002995095270     0.000864104027
      10        0.000029246556    -0.000021960919    -0.000004271324
      11       -0.000001025236     0.000052403066    -0.000006919579
      12       -0.001526698480    -0.002620724518    -0.002006235051
      13       -0.000030087611     0.000030398758    -0.000010172609
      14        0.000001236270     0.000013932827    -0.000008566318
      15       -0.000017972291    -0.000010841833     0.000011585408
      16        0.000026330330     0.000006321117    -0.000004767479

  **** Optimization is complete! (in 8 steps) ****
    Final optimized geometry and variables:
    Molecular point group: c1

    Geometry (in Angstrom), charge = 0, multiplicity = 1:

    H            1.635180997569    -1.509729392564     0.932018854702
    C            1.790079302907    -0.454947660823     0.674601417004
    C            0.534121968357     0.370614995364     0.569250325955
    O            2.889332129804    -0.039797981291     0.496526451852
    C           -0.451666334566    -0.213332055608    -0.454555804543
    H            0.814050360282     1.385523584406     0.311530502581
    H            0.063986025398     0.389508073835     1.551669467870
    C           -1.747425238952     0.615493534564    -0.571714808246
    H            0.049158608489    -0.246517260515    -1.417908654859
    H           -0.686249745618    -1.238721695253    -0.180446374043
    C           -2.999925622094    -0.253938976081    -0.698238731302
    H           -1.688677241212     1.252324623009    -1.449113070665
    H           -1.853174785353     1.270139368597     0.288425921953
    H           -2.935351345725    -0.909155329233    -1.562304594135
    H           -3.890631286112     0.355961570304    -0.811470618013
    H           -3.134148515991    -0.878436047565     0.180471165541

  Mulliken Charges: (a.u.)
   Center  Symbol    Alpha    Beta     Spin     Total
       1     H     0.43227  0.43227  0.00000  0.13546
       2     C     2.83058  2.83058  0.00000  0.33883
       3     C     3.20972  3.20972  0.00000 -0.41944
       4     O     4.23702  4.23702  0.00000 -0.47403
       5     C     3.16701  3.16701  0.00000 -0.33403
       6     H     0.39910  0.39910  0.00000  0.20180
       7     H     0.41009  0.41009  0.00000  0.17983
       8     C     3.15384  3.15384  0.00000 -0.30768
       9     H     0.41052  0.41052  0.00000  0.17897
      10     H     0.41695  0.41695  0.00000  0.16610
      11     C     3.24128  3.24128  0.00000 -0.48256
      12     H     0.41559  0.41559  0.00000  0.16881
      13     H     0.41777  0.41777  0.00000  0.16446
      14     H     0.41952  0.41952  0.00000  0.16095
      15     H     0.41740  0.41740  0.00000  0.16520
      16     H     0.42133  0.42133  0.00000  0.15734

   Total alpha = 24.00000, Total beta = 24.00000, Total charge =  0.00000
