  ==> Input File <==

--------------------------------------------------------------------------
set {
	reference rhf
	basis 6-31G*
}

set_num_threads( 4 )
memory 2 gb

molecule MOL {
0 1

H	 -2.153054	 -2.250733	 0.000000
O	 -2.462445	 -1.355403	 0.000000
C	 -1.434260	 -0.483044	 0.000000
C	 -1.735254	 0.857869	 -0.214627
C	 -0.124261	 -0.874194	 0.202032
H	 -2.760142	 1.138314	 -0.369249
C	 -0.725006	 1.797429	 -0.225708
H	 0.122075	 -1.907620	 0.369080
C	 0.884166	 0.086171	 0.187945
H	 -0.965814	 2.831288	 -0.392185
C	 0.596462	 1.423775	 -0.024721
C	 2.252161	 -0.331057	 0.400099
H	 1.384354	 2.152294	 -0.032793
N	 3.326365	 -0.661384	 0.567054

	symmetry c1
}
set optking {
	frozen_dihedral = ("
		5 3 2 1
	")
}

ee = optimize('scf')
oeprop('DIPOLE', 'QUADRUPOLE', 'MULLIKEN_CHARGES')
f=open( 'psi4out.xyz', 'w' )
f.write( "14  " )
f.write( str(ee) + "\n" )
f.write( MOL.save_string_xyz() )
f.close()
--------------------------------------------------------------------------

    Molecular point group: c1
  Charge       = 0
  Multiplicity = 1
  Basis Set: 6-31G*
  Basis Set:
  @DF-RHF Final Energy:  -397.29180932623325
    Total Energy =                       -397.2918093262335333
    Molecular point group: c1
  Basis Set: 6-31G*
  Basis Set:
  Basis Set: 6-31G*
  Basis Set:
  @DF-RHF Final Energy:  -396.89927660873366
    Total Energy =                       -396.8992766087334303
  Basis Set: 6-31G*
  Basis Set:
  Basis Set: 6-31G*
  Basis Set:
  @DF-RHF Final Energy:  -396.91891358327263
    Total Energy =                       -396.9189135832720581
  Basis Set: 6-31G*
  Basis Set:
  Basis Set: 6-31G*
  Basis Set:
  @DF-RHF Final Energy:  -397.02070801455767
    Total Energy =                       -397.0207080145584086
  Basis Set: 6-31G*
  Basis Set:
  @DF-RHF Final Energy:  -397.14459981440041
    Total Energy =                       -397.1445998144002942
  @DF-RHF Final Energy:  -397.10151665464548
    Total Energy =                       -397.1015166546451383
  @DF-RHF Final Energy:  -397.16959630126411
    Total Energy =                       -397.1695963012639936
  @DF-RHF Final Energy:  -397.20701949896045
    Total Energy =                       -397.2070194989605625
  @DF-RHF Final Energy:  -397.02088385922201
    Total Energy =                       -397.0208838592220104
  @DF-RHF Final Energy:  -397.02748787708629
    Total Energy =                       -397.0274878770864007
  @DF-RHF Final Energy:  -397.07525340877106
    Total Energy =                       -397.0752534087708341
  @DF-RHF Final Energy:  -397.01324960325547
    Total Energy =                       -397.0132496032553036
  @DF-RHF Final Energy:  -397.17476819092008
    Total Energy =                       -397.1747681909201901
  @DF-RHF Final Energy:  -397.13767708976519
    Total Energy =                       -397.1376770897654751
  @DF-RHF Final Energy:  -397.25171103104532
    Total Energy =                       -397.2517110310452608
  @DF-RHF Final Energy:  -397.23575822205407
    Total Energy =                       -397.2357582220543009
  @DF-RHF Final Energy:  -397.28403804573639
    Total Energy =                       -397.2840380457366791
  @DF-RHF Final Energy:  -397.28907894044551
    Total Energy =                       -397.2890789404452789
  @DF-RHF Final Energy:  -397.29139090417982
    Total Energy =                       -397.2913909041795932
  @DF-RHF Final Energy:  -397.29140348807920
    Total Energy =                       -397.2914034880789131
  @DF-RHF Final Energy:  -397.29008632330488
    Total Energy =                       -397.2900863233046493
  @DF-RHF Final Energy:  -397.29121979755809
    Total Energy =                       -397.2912197975578010
  @DF-RHF Final Energy:  -397.28886163527710
    Total Energy =                       -397.2888616352772715
  @DF-RHF Final Energy:  -397.29120054565936
    Total Energy =                       -397.2912005456594216
  @DF-RHF Final Energy:  -397.29178636064137
    Total Energy =                       -397.2917863606413675
  @DF-RHF Final Energy:  -397.29176295171720
    Total Energy =                       -397.2917629517172600
  @DF-RHF Final Energy:  -397.28129295120272
    Total Energy =                       -397.2812929512027722
  @DF-RHF Final Energy:  -397.28994670841325
    Total Energy =                       -397.2899467084131402
  @DF-RHF Final Energy:  -397.29140635450165
    Total Energy =                       -397.2914063545015324
  @DF-RHF Final Energy:  -397.28620613019945
    Total Energy =                       -397.2862061301996164
  @DF-RHF Final Energy:  -397.29038982830332
    Total Energy =                       -397.2903898283032049
  @DF-RHF Final Energy:  -397.29095590154333
    Total Energy =                       -397.2909559015436116
  @DF-RHF Final Energy:  -397.29159136946612
    Total Energy =                       -397.2915913694660048
  @DF-RHF Final Energy:  -397.29167400069031
    Total Energy =                       -397.2916740006902501
  @DF-RHF Final Energy:  -397.29134320667049
    Total Energy =                       -397.2913432066707173
  @DF-RHF Final Energy:  -397.29164123517796
    Total Energy =                       -397.2916412351775080
  Basis Set: 6-31G*
  Basis Set:
  @DF-RHF Final Energy:  -397.29175602680760
    Total Energy =                       -397.2917560268078887
  Basis Set: 6-31G*
  Basis Set:
  Basis Set: 6-31G*
  Basis Set:
  @DF-RHF Final Energy:  -397.29057656589163
    Total Energy =                       -397.2905765658916835
  Basis Set: 6-31G*
  Basis Set:
  Basis Set: 6-31G*
  Basis Set:
  @DF-RHF Final Energy:  -397.29118103111966
    Total Energy =                       -397.2911810311194358
  Basis Set: 6-31G*
  Basis Set:
  Charge       = 0
  Multiplicity = 1
  Basis Set: 6-31G*
  Basis Set:

    Orbital Energies (a.u.)
    -----------------------

    Doubly Occupied:

       1A    -20.613246     2A    -15.578377     3A    -11.326643
       4A    -11.296008     5A    -11.279798     6A    -11.264479
       7A    -11.262527     8A    -11.259500     9A    -11.254343
      10A     -1.432823    11A     -1.230650    12A     -1.181808
      13A     -1.062851    14A     -1.039057    15A     -0.895764
      16A     -0.867161    17A     -0.777597    18A     -0.726501
      19A     -0.700150    20A     -0.663980    21A     -0.627121
      22A     -0.615311    23A     -0.590834    24A     -0.562606
      25A     -0.550645    26A     -0.538221    27A     -0.526233
      28A     -0.472151    29A     -0.471198    30A     -0.363594
      31A     -0.336913

  @DF-RHF Final Energy:  -397.29136532229217

   => Energetics <=

    Nuclear Repulsion Energy =            378.9919153707476767
    One-Electron Energy =               -1289.8303732264264454
    Two-Electron Energy =                 513.5470925333863761
    DFT Exchange-Correlation Energy =       0.0000000000000000
    Empirical Dispersion Energy =           0.0000000000000000
    PCM Polarization Energy =               0.0000000000000000
    EFP Energy =                            0.0000000000000000
    Total Energy =                       -397.2913653222924495
    Molecular point group: c1
  Basis Set: 6-31G*
  Basis Set:

  -Total Gradient:
     Atom            X                  Y                   Z
    ------   -----------------  -----------------  -----------------
       1        0.000644759807    -0.001674919832    -0.000883072566
       2       -0.001205053659     0.001655941025     0.001562821498
       3        0.000306451207    -0.001082000484    -0.001371408955
       4       -0.000662093267     0.000897380374     0.000221695493
       5        0.000077160505     0.000785520867    -0.000010172968
       6       -0.000234976651     0.000228228500    -0.000151233256
       7        0.000642697677    -0.000341958255     0.000204176007
       8        0.000114601710    -0.000622874898    -0.000003891526
       9       -0.002283939002    -0.001396644780    -0.001809672267
      10       -0.000073263085     0.000155255689    -0.000078913039
      11       -0.000538827160     0.000339035135    -0.000547575534
      12       -0.016799974438     0.007759576615     0.005288249245
      13        0.000477062679     0.000282546110    -0.000189182858
      14        0.019535393682    -0.006985086067    -0.002231819277

    Molecular point group: c1

    Geometry (in Angstrom), charge = 0, multiplicity = 1:

    H           -2.148788793299    -2.259902729175    -0.066958026188
    O           -2.459053542304    -1.364365673680    -0.075360965630
    C           -1.430388911069    -0.491675024863    -0.088375909233
    C           -1.733939502491     0.850092613651    -0.293520016105
    C           -0.119535257759    -0.882016253451     0.113260739769
    H           -2.759225068843     1.130905818290    -0.445738337966
    C           -0.723755461123     1.790422433385    -0.304564273627
    H            0.126475839718    -1.915818444992     0.280487606731
    C            0.887521276510     0.078900884583     0.099928727316
    H           -0.965694483361     2.824493989263    -0.468754056891
    C            0.598170794056     1.417196170824    -0.110401325752
    C            2.261300331914    -0.333500021818     0.296156955287
    H            1.386680201148     2.145534983619    -0.122857080532
    N            3.346018593053    -0.662027183424     0.391759677133

  Mulliken Charges: (a.u.)
   Center  Symbol    Alpha    Beta     Spin     Total
       1     H     0.26836  0.26836  0.00000  0.46328
       2     O     4.37621  4.37621  0.00000 -0.75242
       3     C     2.79252  2.79252  0.00000  0.41495
       4     C     3.11380  3.11380  0.00000 -0.22760
       5     C     3.13327  3.13327  0.00000 -0.26655
       6     H     0.38283  0.38283  0.00000  0.23434
       7     C     3.09582  3.09582  0.00000 -0.19165
       8     H     0.38500  0.38500  0.00000  0.23001
       9     C     2.99259  2.99259  0.00000  0.01481
      10     H     0.38862  0.38862  0.00000  0.22277
      11     C     3.09901  3.09901  0.00000 -0.19803
      12     C     2.86613  2.86613  0.00000  0.26774
      13     H     0.38116  0.38116  0.00000  0.23768
      14     N     3.72467  3.72467  0.00000 -0.44935

   Total alpha = 31.00000, Total beta = 31.00000, Total charge = -0.00000
