                              Psi4 1.0.54 Driver

  ==> Input File <==

--------------------------------------------------------------------------
set {
	reference rhf
	basis cc-pvtz
}

set_num_threads( 4 )
memory 2 gb

molecule MOL {
0 1

O	 -2.071745	 -1.227631	 -0.223482
C	 -1.652276	 -0.152493	 0.058063
C	 -0.327923	 0.006256	 0.778277
C	 -2.402627	 1.108561	 -0.298943
C	 0.843119	 -0.001643	 -0.211684
H	 -0.319596	 0.928105	 1.350335
H	 -0.227916	 -0.823159	 1.466686
C	 2.197581	 0.137962	 0.476918
H	 0.722832	 0.805134	 -0.930249
H	 0.813864	 -0.927046	 -0.776607
C	 3.366000	 0.117964	 -0.502653
H	 2.218947	 1.063289	 1.045985
H	 2.315847	 -0.666581	 1.196823
H	 3.294413	 0.933172	 -1.214935
H	 3.389325	 -0.809663	 -1.064198
H	 4.312535	 0.214731	 0.016104
H	 -3.241022	 0.874348	 -0.936730
H	 -1.747666	 1.818755	 -0.791003
H	 -2.760531	 1.579640	 0.610979

	symmetry c1
}
ee,wfn = energy('scf', return_wfn=True)
oeprop( wfn, 'DIPOLE', 'QUADRUPOLE', 'MULLIKEN_CHARGES')
oeprop( wfn, 'GRID_ESP')
f=open( 'psi4out.xyz', 'w' )
f.write( "19  " )
f.write( str(ee) + "\n" )
f.write( MOL.save_string_xyz() )
f.close()
--------------------------------------------------------------------------

    Molecular point group: c1

    Geometry (in Angstrom), charge = 0, multiplicity = 1:

       Center              X                  Y                   Z               Mass
    ------------   -----------------  -----------------  -----------------  -----------------
           O         -2.071632791840    -1.227563145803    -0.223463423518    15.994914619560
           C         -1.652163791840    -0.152425145803     0.058081576482    12.000000000000
           C         -0.327810791840     0.006323854197     0.778295576482    12.000000000000
           C         -2.402514791840     1.108628854197    -0.298924423518    12.000000000000
           C          0.843231208160    -0.001575145803    -0.211665423518    12.000000000000
           H         -0.319483791840     0.928172854197     1.350353576482     1.007825032070
           H         -0.227803791840    -0.823091145803     1.466704576482     1.007825032070
           C          2.197693208160     0.138029854197     0.476936576482    12.000000000000
           H          0.722944208160     0.805201854197    -0.930230423518     1.007825032070
           H          0.813976208160    -0.926978145803    -0.776588423518     1.007825032070
           C          3.366112208160     0.118031854197    -0.502634423518    12.000000000000
           H          2.219059208160     1.063356854197     1.046003576482     1.007825032070
           H          2.315959208160    -0.666513145803     1.196841576482     1.007825032070
           H          3.294525208160     0.933239854197    -1.214916423518     1.007825032070
           H          3.389437208160    -0.809595145803    -1.064179423518     1.007825032070
           H          4.312647208160     0.214798854197     0.016122576482     1.007825032070
           H         -3.240909791840     0.874415854197    -0.936711423518     1.007825032070
           H         -1.747553791840     1.818822854197    -0.790984423518     1.007825032070
           H         -2.760418791840     1.579707854197     0.610997576482     1.007825032070

  Charge       = 0
  Multiplicity = 1
  Basis Set: CC-PVTZ
  Basis Set:

    Orbital Energies (a.u.)
    -----------------------

    Doubly Occupied:

       1A    -20.536983     2A    -11.319500     3A    -11.228814
       4A    -11.227877     5A    -11.227044     6A    -11.223093
       7A    -11.213185     8A     -1.397112     9A     -1.092966
      10A     -1.030547    11A     -0.984731    12A     -0.890960
      13A     -0.807368    14A     -0.734616    15A     -0.665131
      16A     -0.648095    17A     -0.625152    18A     -0.615146
      19A     -0.583059    20A     -0.574793    21A     -0.553867
      22A     -0.538047    23A     -0.514210    24A     -0.501346
      25A     -0.483003    26A     -0.476757    27A     -0.470347
      28A     -0.399274

  @DF-RHF Final Energy:  -309.17736378452122

   => Energetics <=

    Nuclear Repulsion Energy =            301.8602775679140109
    One-Electron Energy =               -1016.9490593085986347
    Two-Electron Energy =                 405.9114179561631204
    DFT Exchange-Correlation Energy =       0.0000000000000000
    Empirical Dispersion Energy =           0.0000000000000000
    PCM Polarization Energy =               0.0000000000000000
    EFP Energy =                            0.0000000000000000
    Total Energy =                       -309.1773637845215603

  Mulliken Charges: (a.u.)
   Center  Symbol    Alpha    Beta     Spin     Total
       1     O     4.17771  4.17771  0.00000 -0.35542
       2     C     2.85808  2.85808  0.00000  0.28383
       3     C     3.09803  3.09803  0.00000 -0.19605
       4     C     3.15515  3.15515  0.00000 -0.31030
       5     C     3.09732  3.09732  0.00000 -0.19464
       6     H     0.44948  0.44948  0.00000  0.10105
       7     H     0.43911  0.43911  0.00000  0.12177
       8     C     3.08573  3.08573  0.00000 -0.17147
       9     H     0.45294  0.45294  0.00000  0.09412
      10     H     0.44118  0.44118  0.00000  0.11765
      11     C     3.14935  3.14935  0.00000 -0.29869
      12     H     0.45408  0.45408  0.00000  0.09185
      13     H     0.45135  0.45135  0.00000  0.09730
      14     H     0.45516  0.45516  0.00000  0.08967
      15     H     0.45276  0.45276  0.00000  0.09449
      16     H     0.44733  0.44733  0.00000  0.10533
      17     H     0.43602  0.43602  0.00000  0.12796
      18     H     0.45088  0.45088  0.00000  0.09824
      19     H     0.44834  0.44834  0.00000  0.10331

   Total alpha = 28.00000, Total beta = 28.00000, Total charge = -0.00000

*** Psi4 exiting successfully. Buy a developer a beer!
