  ==> Input File <==

--------------------------------------------------------------------------
set {
	reference rhf
	basis 6-31G*
}

set_num_threads( 1 )
memory 2 gb

molecule MOL {
0 1

H	 -3.301617	 0.570527	 0.000000
C	 -2.250981	 0.344174	 0.000000
C	 -1.813665	 -0.976045	 0.000000
C	 -1.315303	 1.358057	 0.000000
H	 -2.528860	 -1.779366	 0.000000
C	 -0.467298	 -1.270142	 0.000000
H	 -1.635074	 2.385107	 0.000000
C	 0.047081	 1.078114	 0.000000
H	 -0.115948	 -2.285222	 0.000000
C	 0.472063	 -0.241155	 0.000000
H	 0.749976	 1.888426	 0.000000
O	 1.765256	 -0.628444	 0.000000
C	 2.311091	 -1.225268	 1.140586
H	 2.276838	 -0.556202	 1.994113
H	 3.341542	 -1.443767	 0.903435
H	 1.799674	 -2.149496	 1.388754

	symmetry c1
}
set optking {
	frozen_dihedral = ("
		10 12 13 14
	")
}

ee = energy('scf')
oeprop('DIPOLE', 'QUADRUPOLE', 'MULLIKEN_CHARGES')
f=open( 'psi4out.xyz', 'w' )
f.write( "16  " )
f.write( str(ee) + "\n" )
f.write( MOL.save_string_xyz() )
f.close()
--------------------------------------------------------------------------

    Molecular point group: c1

    Geometry (in Angstrom), charge = 0, multiplicity = 1:

       Center              X                  Y                   Z               Mass
    ------------   -----------------  -----------------  -----------------  -----------------
           H         -3.233339431495     0.798511619623    -0.166641574825     1.007825032070
           C         -2.182703431495     0.572158619623    -0.166641574825    12.000000000000
           C         -1.745387431495    -0.748060380377    -0.166641574825    12.000000000000
           C         -1.247025431495     1.586041619623    -0.166641574825    12.000000000000
           H         -2.460582431495    -1.551381380377    -0.166641574825     1.007825032070
           C         -0.399020431495    -1.042157380377    -0.166641574825    12.000000000000
           H         -1.566796431495     2.613091619623    -0.166641574825     1.007825032070
           C          0.115358568505     1.306098619623    -0.166641574825    12.000000000000
           H         -0.047670431495    -2.057237380377    -0.166641574825     1.007825032070
           C          0.540340568505    -0.013170380377    -0.166641574825    12.000000000000
           H          0.818253568505     2.116410619623    -0.166641574825     1.007825032070
           O          1.833533568505    -0.400459380377    -0.166641574825    15.994914619560
           C          2.379368568505    -0.997283380377     0.973944425175    12.000000000000
           H          2.345115568505    -0.328217380377     1.827471425175     1.007825032070
           H          3.409819568505    -1.215782380377     0.736793425175     1.007825032070
           H          1.867951568505    -1.921511380377     1.222112425175     1.007825032070

  Charge       = 0
  Multiplicity = 1
  Basis Set: 6-31G*
  Basis Set:

    Orbital Energies (a.u.)
    -----------------------

    Doubly Occupied:

       1A    -20.570947     2A    -11.288106     3A    -11.277078
       4A    -11.232642     5A    -11.231886     6A    -11.226170
       7A    -11.224722     8A    -11.222301     9A     -1.405637
      10A     -1.146584    11A     -1.017588    12A     -1.015428
      13A     -0.936079    14A     -0.833545    15A     -0.805758
      16A     -0.715892    17A     -0.669739    18A     -0.662129
      19A     -0.639570    20A     -0.611578    21A     -0.598555
      22A     -0.583036    23A     -0.529919    24A     -0.508019
      25A     -0.506237    26A     -0.479012    27A     -0.435768
      28A     -0.334602    29A     -0.317159

  @DF-RHF Final Energy:  -344.57715779750691

   => Energetics <=

    Nuclear Repulsion Energy =            348.1113768564045472
    One-Electron Energy =               -1157.3255267515378364
    Two-Electron Energy =                 464.6369920976262051
    DFT Exchange-Correlation Energy =       0.0000000000000000
    Empirical Dispersion Energy =           0.0000000000000000
    PCM Polarization Energy =               0.0000000000000000
    EFP Energy =                            0.0000000000000000
    Total Energy =                       -344.5771577975070272

  Mulliken Charges: (a.u.)
   Center  Symbol    Alpha    Beta     Spin     Total
       1     H     0.39967  0.39967  0.00000  0.20066
       2     C     3.10643  3.10643  0.00000 -0.21286
       3     C     3.09561  3.09561  0.00000 -0.19122
       4     C     3.09659  3.09659  0.00000 -0.19318
       5     H     0.39975  0.39975  0.00000  0.20049
       6     C     3.12480  3.12480  0.00000 -0.24960
       7     H     0.39883  0.39883  0.00000  0.20234
       8     C     3.12421  3.12421  0.00000 -0.24842
       9     H     0.39656  0.39656  0.00000  0.20687
      10     C     2.79392  2.79392  0.00000  0.41215
      11     H     0.39434  0.39434  0.00000  0.21133
      12     O     4.33283  4.33283  0.00000 -0.66567
      13     C     3.08010  3.08010  0.00000 -0.16020
      14     H     0.42174  0.42174  0.00000  0.15651
      15     H     0.40951  0.40951  0.00000  0.18099
      16     H     0.42510  0.42510  0.00000  0.14981

   Total alpha = 29.00000, Total beta = 29.00000, Total charge = -0.00000
