  ==> Input File <==

--------------------------------------------------------------------------
set {
	reference rhf
	basis cc-pvtz
}

set_num_threads( 4 )
memory 2 gb

molecule MOL {
0 1

H	 1.505922	 -1.320267	 0.687151
O	 1.583947	 -0.677544	 -0.001533
C	 0.489979	 0.078084	 0.002623
C	 -0.763662	 -0.754014	 0.000816
O	 0.539051	 1.259395	 -0.000088
C	 -2.038001	 0.074705	 -0.000833
H	 -0.712945	 -1.405886	 -0.864342
H	 -0.715137	 -1.405770	 0.866182
H	 -2.087267	 0.710831	 -0.874232
H	 -2.903419	 -0.576199	 -0.001922
H	 -2.089467	 0.710909	 0.872389

	symmetry c1
}
set optking {
	frozen_dihedral = ("
		1 2 3 5
	")
}

ee = optimize('scf')
oeprop('DIPOLE', 'QUADRUPOLE', 'MULLIKEN_CHARGES')
f=open( 'psi4out.xyz', 'w' )
f.write( "11  " )
f.write( str(ee) + "\n" )
f.write( MOL.save_string_xyz() )
f.close()
--------------------------------------------------------------------------

    Molecular point group: c1
  Charge       = 0
  Multiplicity = 1
  Basis Set: CC-PVTZ
  Basis Set:
  @DF-RHF Final Energy:  -266.93573936063132
    Total Energy =                       -266.9357393606314872
    Molecular point group: c1
  Basis Set: CC-PVTZ
  Basis Set:
  Basis Set: CC-PVTZ
  Basis Set:
  @DF-RHF Final Energy:  -266.93701864588166
    Total Energy =                       -266.9370186458818353
  Basis Set: CC-PVTZ
  Basis Set:
  Basis Set: CC-PVTZ
  Basis Set:
  @DF-RHF Final Energy:  -266.93650793602467
    Total Energy =                       -266.9365079360250093
  Basis Set: CC-PVTZ
  Basis Set:
  Basis Set: CC-PVTZ
  Basis Set:
  @DF-RHF Final Energy:  -266.93720549230477
    Total Energy =                       -266.9372054923047699
  Basis Set: CC-PVTZ
  Basis Set:
  Basis Set: CC-PVTZ
  Basis Set:
  @DF-RHF Final Energy:  -266.93721249852462
    Total Energy =                       -266.9372124985247297
  Basis Set: CC-PVTZ
  Basis Set:
  Charge       = 0
  Multiplicity = 1
  Basis Set: CC-PVTZ
  Basis Set:

    Orbital Energies (a.u.)
    -----------------------

    Doubly Occupied:

       1A    -20.594980     2A    -20.545852     3A    -11.374431
       4A    -11.250374     5A    -11.222912     6A     -1.467321
       7A     -1.374155     8A     -1.067934     9A     -0.909609
      10A     -0.822459    11A     -0.718394    12A     -0.672416
      13A     -0.662347    14A     -0.617872    15A     -0.581215
      16A     -0.533608    17A     -0.524290    18A     -0.509972
      19A     -0.489912    20A     -0.448041

  @DF-RHF Final Energy:  -266.93721327056949

   => Energetics <=

    Nuclear Repulsion Energy =            179.6934582144496346
    One-Electron Energy =                -720.4851553385956322
    Two-Electron Energy =                 273.8544838535766530
    DFT Exchange-Correlation Energy =       0.0000000000000000
    Empirical Dispersion Energy =           0.0000000000000000
    PCM Polarization Energy =               0.0000000000000000
    EFP Energy =                            0.0000000000000000
    Total Energy =                       -266.9372132705693730
    Molecular point group: c1
  Basis Set: CC-PVTZ
  Basis Set:

  -Total Gradient:
     Atom            X                  Y                   Z
    ------   -----------------  -----------------  -----------------
       1        0.002763447398     0.004439442402     0.004255121407
       2       -0.003584144045    -0.005558167695    -0.002755393460
       3        0.000854936073     0.000999769160    -0.007373890207
       4        0.000054565953     0.000010427779    -0.000036960201
       5       -0.000093240325     0.000107317817     0.005876897342
       6        0.000000606197     0.000019351786     0.000009698746
       7       -0.000015979423    -0.000015739458     0.000016009665
       8        0.000016397267     0.000000922995     0.000022796329
       9       -0.000005850942     0.000003635779    -0.000002472634
      10        0.000003445110    -0.000003148911    -0.000004915798
      11        0.000005816737    -0.000003811651    -0.000006891188

  **** Optimization is complete! (in 6 steps) ****
    Final optimized geometry and variables:
    Molecular point group: c1

    Geometry (in Angstrom), charge = 0, multiplicity = 1:

    H            1.619742950553    -1.294735859111     0.696134581306
    O            1.632404064246    -0.645102651810     0.014149747476
    C            0.497360672454     0.083452024853    -0.008966828995
    C           -0.770733745420    -0.736503725855    -0.013640954388
    O            0.538576287258     1.256550664809    -0.031391546069
    C           -2.038806383859     0.101737023606    -0.008007167070
    H           -0.727755777226    -1.382137700335    -0.884426196222
    H           -0.742207426151    -1.399066347008     0.847990632513
    H           -2.079241954356     0.744707032400    -0.876425338937
    H           -2.910722470950    -0.540610459268    -0.014934825614
    H           -2.084124263493     0.732129064697     0.869827972900

  Mulliken Charges: (a.u.)
   Center  Symbol    Alpha    Beta     Spin     Total
       1     H     0.38854  0.38854  0.00000  0.22291
       2     O     4.15982  4.15982  0.00000 -0.31964
       3     C     2.80605  2.80605  0.00000  0.38789
       4     C     3.10861  3.10861  0.00000 -0.21722
       5     O     4.16468  4.16468  0.00000 -0.32936
       6     C     3.13973  3.13973  0.00000 -0.27946
       7     H     0.43688  0.43688  0.00000  0.12623
       8     H     0.45325  0.45325  0.00000  0.09350
       9     H     0.44460  0.44460  0.00000  0.11080
      10     H     0.45026  0.45026  0.00000  0.09948
      11     H     0.44757  0.44757  0.00000  0.10486

   Total alpha = 20.00000, Total beta = 20.00000, Total charge =  0.00000
