  ==> Input File <==

--------------------------------------------------------------------------
set {
	reference rhf
	basis 6-31G*
}

set_num_threads( 1 )
memory 2 gb

molecule MOL {
0 1

O	 0.074228	 1.262779	 -0.000085
C	 0.028650	 0.075053	 -0.000277
C	 -1.233602	 -0.752807	 0.000328
O	 1.109162	 -0.694619	 -0.000298
C	 -2.501530	 0.091881	 0.000126
H	 -1.193807	 -1.406641	 -0.865785
H	 -1.193516	 -1.405779	 0.867015
H	 -2.545121	 0.729328	 -0.874513
H	 -3.377167	 -0.548497	 0.000561
H	 -2.544818	 0.730135	 0.874258
C	 1.266181	 -1.581755	 -1.092966
H	 0.438849	 -2.275018	 -1.141156
H	 2.188323	 -2.111789	 -0.912462
H	 1.324917	 -1.033412	 -2.022127

	symmetry c1
}
set optking {
	frozen_dihedral = ("
		4 2 3 6
	")
}

ee = energy('scf')
oeprop('DIPOLE', 'QUADRUPOLE', 'MULLIKEN_CHARGES')
f=open( 'psi4out.xyz', 'w' )
f.write( "14  " )
f.write( str(ee) + "\n" )
f.write( MOL.save_string_xyz() )
f.close()
--------------------------------------------------------------------------

    Molecular point group: c1

    Geometry (in Angstrom), charge = 0, multiplicity = 1:

       Center              X                  Y                   Z               Mass
    ------------   -----------------  -----------------  -----------------  -----------------
           O          0.270835193230     1.538783089552     0.195544853339    15.994914619560
           C          0.225257193230     0.351057089552     0.195352853339    12.000000000000
           C         -1.036994806770    -0.476802910448     0.195957853339    12.000000000000
           O          1.305769193230    -0.418614910448     0.195331853339    15.994914619560
           C         -2.304922806770     0.367885089552     0.195755853339    12.000000000000
           H         -0.997199806770    -1.130636910448    -0.670155146661     1.007825032070
           H         -0.996908806770    -1.129774910448     1.062644853339     1.007825032070
           H         -2.348513806770     1.005332089552    -0.678883146661     1.007825032070
           H         -3.180559806770    -0.272492910448     0.196190853339     1.007825032070
           H         -2.348210806770     1.006139089552     1.069887853339     1.007825032070
           C          1.462788193230    -1.305750910448    -0.897336146661    12.000000000000
           H          0.635456193230    -1.999013910448    -0.945526146661     1.007825032070
           H          2.384930193230    -1.835784910448    -0.716832146661     1.007825032070
           H          1.521524193230    -0.757407910448    -1.826497146661     1.007825032070

  Charge       = 0
  Multiplicity = 1
  Basis Set: 6-31G*
  Basis Set:

    Orbital Energies (a.u.)
    -----------------------

    Doubly Occupied:

       1A    -20.593804     2A    -20.554039     3A    -11.374854
       4A    -11.298003     5A    -11.241784     6A    -11.219042
       7A     -1.465897     8A     -1.370300     9A     -1.062517
      10A     -0.986341    11A     -0.899319    12A     -0.769263
      13A     -0.702303    14A     -0.681148    15A     -0.680181
      16A     -0.632268    17A     -0.610252    18A     -0.563378
      19A     -0.547753    20A     -0.524521    21A     -0.513216
      22A     -0.487509    23A     -0.459204    24A     -0.435106

  @DF-RHF Final Energy:  -305.84667873405238

   => Energetics <=

    Nuclear Repulsion Energy =            248.8144900990195936
    One-Electron Energy =                -909.9782615996564346
    Two-Electron Energy =                 355.3170927665847785
    DFT Exchange-Correlation Energy =       0.0000000000000000
    Empirical Dispersion Energy =           0.0000000000000000
    PCM Polarization Energy =               0.0000000000000000
    EFP Energy =                            0.0000000000000000
    Total Energy =                       -305.8466787340520341

  Mulliken Charges: (a.u.)
   Center  Symbol    Alpha    Beta     Spin     Total
       1     O     4.25927  4.25927  0.00000 -0.51854
       2     C     2.61091  2.61091  0.00000  0.77818
       3     C     3.22154  3.22154  0.00000 -0.44309
       4     O     4.30393  4.30393  0.00000 -0.60785
       5     C     3.23743  3.23743  0.00000 -0.47485
       6     H     0.40680  0.40680  0.00000  0.18639
       7     H     0.39827  0.39827  0.00000  0.20346
       8     H     0.41039  0.41039  0.00000  0.17922
       9     H     0.41900  0.41900  0.00000  0.16200
      10     H     0.40791  0.40791  0.00000  0.18419
      11     C     3.09798  3.09798  0.00000 -0.19596
      12     H     0.41751  0.41751  0.00000  0.16498
      13     H     0.39853  0.39853  0.00000  0.20293
      14     H     0.41054  0.41054  0.00000  0.17893

   Total alpha = 24.00000, Total beta = 24.00000, Total charge =  0.00000
