  ==> Input File <==

--------------------------------------------------------------------------
set {
	reference rhf
	basis 6-31G*
}

set_num_threads( 1 )
memory 2 gb

molecule MOL {
0 1

H	 2.672229	 -0.791644	 -0.146885
O	 1.985843	 -0.217557	 -0.455086
C	 1.135793	 0.118896	 0.612333
C	 0.031547	 1.023609	 0.088541
H	 1.689565	 0.642451	 1.389582
H	 0.715790	 -0.777625	 1.062831
C	 -1.134819	 0.293262	 -0.585751
H	 0.474374	 1.714721	 -0.623187
H	 -0.338529	 1.620940	 0.920081
C	 -1.917817	 -0.639439	 0.339494
H	 -0.758119	 -0.268455	 -1.433105
H	 -1.813832	 1.041889	 -0.986690
H	 -2.777680	 -1.057197	 -0.174994
H	 -1.310268	 -1.471279	 0.680599
H	 -2.283753	 -0.111424	 1.216626

	symmetry c1
}
set optking {
	frozen_dihedral = ("
		8 4 7 11,
		1 2 3 4
	")
}

ee = energy('scf')
oeprop('DIPOLE', 'QUADRUPOLE', 'MULLIKEN_CHARGES')
f=open( 'psi4out.xyz', 'w' )
f.write( "15  " )
f.write( str(ee) + "\n" )
f.write( MOL.save_string_xyz() )
f.close()
--------------------------------------------------------------------------

    Molecular point group: c1

    Geometry (in Angstrom), charge = 0, multiplicity = 1:

       Center              X                  Y                   Z               Mass
    ------------   -----------------  -----------------  -----------------  -----------------
           H          2.599592369412    -0.881052242281    -0.148182445039     1.007825032070
           O          1.913206369412    -0.306965242281    -0.456383445039    15.994914619560
           C          1.063156369412     0.029487757719     0.611035554961    12.000000000000
           C         -0.041089630588     0.934200757719     0.087243554961    12.000000000000
           H          1.616928369412     0.553042757719     1.388284554961     1.007825032070
           H          0.643153369412    -0.867033242281     1.061533554961     1.007825032070
           C         -1.207455630588     0.203853757719    -0.587048445039    12.000000000000
           H          0.401737369412     1.625312757719    -0.624484445039     1.007825032070
           H         -0.411165630588     1.531531757719     0.918783554961     1.007825032070
           C         -1.990453630588    -0.728847242281     0.338196554961    12.000000000000
           H         -0.830755630588    -0.357863242281    -1.434402445039     1.007825032070
           H         -1.886468630588     0.952480757719    -0.987987445039     1.007825032070
           H         -2.850316630588    -1.146605242281    -0.176291445039     1.007825032070
           H         -1.382904630588    -1.560687242281     0.679301554961     1.007825032070
           H         -2.356389630588    -0.200832242281     1.215328554961     1.007825032070

  Charge       = 0
  Multiplicity = 1
  Basis Set: 6-31G*
  Basis Set:

    Orbital Energies (a.u.)
    -----------------------

    Doubly Occupied:

       1A    -20.552042     2A    -11.266458     3A    -11.212032
       4A    -11.211446     5A    -11.207667     6A     -1.358705
       7A     -1.066192     8A     -0.970328     9A     -0.869890
      10A     -0.776574    11A     -0.703955    12A     -0.647665
      13A     -0.607562    14A     -0.577927    15A     -0.561451
      16A     -0.532915    17A     -0.511764    18A     -0.474714
      19A     -0.470062    20A     -0.452549    21A     -0.429042

  @DF-RHF Final Energy:  -232.14154646311991

   => Energetics <=

    Nuclear Repulsion Energy =            190.4309054341156582
    One-Electron Energy =                -692.2227933097597088
    Two-Electron Energy =                 269.6503414125236873
    DFT Exchange-Correlation Energy =       0.0000000000000000
    Empirical Dispersion Energy =           0.0000000000000000
    PCM Polarization Energy =               0.0000000000000000
    EFP Energy =                            0.0000000000000000
    Total Energy =                       -232.1415464631203918

  Mulliken Charges: (a.u.)
   Center  Symbol    Alpha    Beta     Spin     Total
       1     H     0.28126  0.28126  0.00000  0.43749
       2     O     4.37047  4.37047  0.00000 -0.74093
       3     C     2.99788  2.99788  0.00000  0.00423
       4     C     3.16169  3.16169  0.00000 -0.32339
       5     H     0.43012  0.43012  0.00000  0.13976
       6     H     0.43017  0.43017  0.00000  0.13966
       7     C     3.15570  3.15570  0.00000 -0.31139
       8     H     0.40885  0.40885  0.00000  0.18230
       9     H     0.42450  0.42450  0.00000  0.15100
      10     C     3.24321  3.24321  0.00000 -0.48643
      11     H     0.41226  0.41226  0.00000  0.17548
      12     H     0.42111  0.42111  0.00000  0.15779
      13     H     0.41814  0.41814  0.00000  0.16371
      14     H     0.42121  0.42121  0.00000  0.15758
      15     H     0.42343  0.42343  0.00000  0.15313

   Total alpha = 21.00000, Total beta = 21.00000, Total charge = -0.00000
