                              Psi4 1.0.54 Driver

  ==> Input File <==

--------------------------------------------------------------------------
set {
	reference rhf
	basis cc-pvtz
}

set_num_threads( 4 )
memory 2 gb

molecule MOL {
0 1

H	 1.618984	 -1.708864	 0.156078
O	 2.012307	 -0.863440	 0.000222
C	 1.050374	 0.054877	 0.000135
C	 -0.318151	 -0.570512	 0.000144
O	 1.286319	 1.213453	 -0.000040
C	 -1.454884	 0.441630	 -0.000560
H	 -0.371613	 -1.223646	 -0.864985
H	 -0.371920	 -1.222758	 0.865929
C	 -2.822577	 -0.232186	 0.000063
H	 -1.359760	 1.084704	 -0.867077
H	 -1.359641	 1.085996	 0.864983
H	 -2.954352	 -0.858985	 -0.875745
H	 -3.615886	 0.505352	 0.000019
H	 -2.953878	 -0.858359	 0.876394

	symmetry c1
}
set optking {
	frozen_dihedral = ("
		1 2 3 5
	")
}

ee,wfn = optimize('scf', return_wfn=True)
oeprop( wfn, 'DIPOLE', 'QUADRUPOLE', 'MULLIKEN_CHARGES')
f=open( 'psi4out.xyz', 'w' )
f.write( "14  " )
f.write( str(ee) + "\n" )
f.write( MOL.save_string_xyz() )
f.close()
--------------------------------------------------------------------------

    Molecular point group: c1
  Charge       = 0
  Multiplicity = 1
  Basis Set: CC-PVTZ
  Basis Set:
  @DF-RHF Final Energy:  -305.98996969810560
    Total Energy =                       -305.9899696981055968
    Molecular point group: c1
  Basis Set: CC-PVTZ
  Basis Set:
  Basis Set: CC-PVTZ
  Basis Set:
  @DF-RHF Final Energy:  -305.99116788782999
    Total Energy =                       -305.9911678878300449
  Basis Set: CC-PVTZ
  Basis Set:
  Basis Set: CC-PVTZ
  Basis Set:
  @DF-RHF Final Energy:  -305.99138695273086
    Total Energy =                       -305.9913869527306360
  Basis Set: CC-PVTZ
  Basis Set:
  Basis Set: CC-PVTZ
  Basis Set:
  @DF-RHF Final Energy:  -305.99116570804983
    Total Energy =                       -305.9911657080499481
  Basis Set: CC-PVTZ
  Basis Set:
  Basis Set: CC-PVTZ
  Basis Set:
  @DF-RHF Final Energy:  -305.99141460560622
    Total Energy =                       -305.9914146056061099
  Basis Set: CC-PVTZ
  Basis Set:
  Charge       = 0
  Multiplicity = 1
  Basis Set: CC-PVTZ
  Basis Set:

    Orbital Energies (a.u.)
    -----------------------

    Doubly Occupied:

       1A    -20.604440     2A    -20.536864     3A    -11.373155
       4A    -11.250968     5A    -11.229478     6A    -11.220673
       7A     -1.471629     8A     -1.373727     9A     -1.089139
      10A     -0.979424    11A     -0.854821    12A     -0.820752
      13A     -0.722154    14A     -0.674616    15A     -0.662976
      16A     -0.620822    17A     -0.595507    18A     -0.583665
      19A     -0.553601    20A     -0.510958    21A     -0.496783
      22A     -0.489564    23A     -0.481283    24A     -0.443850

  @DF-RHF Final Energy:  -305.99141528271855

   => Energetics <=

    Nuclear Repulsion Energy =            240.4167715030636430
    One-Electron Energy =                -893.5346701094728132
    Two-Electron Energy =                 347.1264833236905361
    DFT Exchange-Correlation Energy =       0.0000000000000000
    Empirical Dispersion Energy =           0.0000000000000000
    PCM Polarization Energy =               0.0000000000000000
    EFP Energy =                            0.0000000000000000
    Total Energy =                       -305.9914152827186626
    Molecular point group: c1
  Basis Set: CC-PVTZ
  Basis Set:

  -Total Gradient:
     Atom            X                  Y                   Z
    ------   -----------------  -----------------  -----------------
       1        0.000339437475     0.000276869461     0.002361562996
       2       -0.000362565559    -0.000558788472    -0.002064547127
       3        0.000040078959     0.000180940673    -0.002372293687
       4        0.000032604510     0.000003780946    -0.000012292041
       5       -0.000054501841     0.000098048624     0.002073452759
       6        0.000024371047     0.000007284676     0.000005769455
       7       -0.000001976639    -0.000001161650     0.000009043102
       8       -0.000000841843     0.000001721300     0.000004551666
       9       -0.000018218712    -0.000003497499    -0.000000375243
      10        0.000002304360    -0.000002297577     0.000001802298
      11        0.000001504530    -0.000003101375    -0.000006231147
      12       -0.000000148168     0.000001157464     0.000001362672
      13       -0.000003011449    -0.000001681390     0.000000044259
      14        0.000000963329     0.000000724818    -0.000001849962

  **** Optimization is complete! (in 6 steps) ****
    Final optimized geometry and variables:
    Molecular point group: c1

    Geometry (in Angstrom), charge = 0, multiplicity = 1:

    H            1.787565167168    -1.691074169106     0.134637790074
    O            2.076355679366    -0.809228063268    -0.022203006551
    C            1.061359819585     0.059702255427    -0.014951824489
    C           -0.315074378032    -0.566690380268     0.001834233043
    O            1.273197377889     1.216379413568    -0.020377849945
    C           -1.450247666846     0.447359290256     0.015094962482
    H           -0.390197008483    -1.216860735523    -0.866014093912
    H           -0.373769106763    -1.215387668015     0.873185073169
    C           -2.820312086153    -0.221271350952     0.031584819845
    H           -1.359906530807     1.088994709060    -0.852322789029
    H           -1.339745358126     1.090473206948     0.879150600376
    H           -2.965666112077    -0.847398453529    -0.842639278082
    H           -3.609716981760     0.520116392247     0.040187587517
    H           -2.945471337821    -0.846020287388     0.909984945557

  Mulliken Charges: (a.u.)
   Center  Symbol    Alpha    Beta     Spin     Total
       1     H     0.38815  0.38815  0.00000  0.22371
       2     O     4.14552  4.14552  0.00000 -0.29104
       3     C     2.80351  2.80351  0.00000  0.39298
       4     C     3.12402  3.12402  0.00000 -0.24804
       5     O     4.17570  4.17570  0.00000 -0.35139
       6     C     3.08339  3.08339  0.00000 -0.16678
       7     H     0.44074  0.44074  0.00000  0.11852
       8     H     0.44678  0.44678  0.00000  0.10644
       9     C     3.15043  3.15043  0.00000 -0.30087
      10     H     0.44284  0.44284  0.00000  0.11432
      11     H     0.44340  0.44340  0.00000  0.11321
      12     H     0.45573  0.45573  0.00000  0.08854
      13     H     0.44373  0.44373  0.00000  0.11253
      14     H     0.45607  0.45607  0.00000  0.08786

   Total alpha = 24.00000, Total beta = 24.00000, Total charge =  0.00000

*** Psi4 exiting successfully. Buy a developer a beer!
