                              Psi4 1.0.54 Driver

  ==> Input File <==

--------------------------------------------------------------------------
set {
	reference rhf
	basis cc-pvtz
}

set_num_threads( 4 )
memory 2 gb

molecule MOL {
0 1

H	 2.342730	 0.877684	 -1.045694
C	 2.360424	 0.000000	 -0.411793
C	 1.173749	 0.000000	 0.526870
H	 3.286567	 0.000000	 0.151574
H	 2.342730	 -0.877684	 -1.045694
O	 0.000000	 0.000000	 -0.223739
H	 1.203779	 0.876757	 1.172538
H	 1.203779	 -0.876757	 1.172538
C	 -1.173749	 0.000000	 0.526870
C	 -1.866641	 1.334712	 0.360349
H	 -0.945161	 -0.177703	 1.576946
H	 -1.826851	 -0.807428	 0.198222
H	 -1.226537	 2.139424	 0.699728
H	 -2.784378	 1.357434	 0.936861
H	 -2.109160	 1.509033	 -0.680454

	symmetry c1
}
set optking {
	frozen_dihedral = ("
		11 9 6 3
	")
}

ee,wfn = optimize('scf', return_wfn=True)
oeprop( wfn, 'DIPOLE', 'QUADRUPOLE', 'MULLIKEN_CHARGES')
f=open( 'psi4out.xyz', 'w' )
f.write( "15  " )
f.write( str(ee) + "\n" )
f.write( MOL.save_string_xyz() )
f.close()
--------------------------------------------------------------------------

    Molecular point group: c1
  Charge       = 0
  Multiplicity = 1
  Basis Set: CC-PVTZ
  Basis Set:
  @DF-RHF Final Energy:  -232.22923841714984
    Total Energy =                       -232.2292384171497588
    Molecular point group: c1
  Basis Set: CC-PVTZ
  Basis Set:
  Basis Set: CC-PVTZ
  Basis Set:
  @DF-RHF Final Energy:  -232.22814764732721
    Total Energy =                       -232.2281476473273187
  Basis Set: CC-PVTZ
  Basis Set:
  Basis Set: CC-PVTZ
  Basis Set:
  @DF-RHF Final Energy:  -232.22981068009776
    Total Energy =                       -232.2298106800976711
  Basis Set: CC-PVTZ
  Basis Set:
  Basis Set: CC-PVTZ
  Basis Set:
  @DF-RHF Final Energy:  -232.22984266564481
    Total Energy =                       -232.2298426656446964
  Basis Set: CC-PVTZ
  Basis Set:
  Charge       = 0
  Multiplicity = 1
  Basis Set: CC-PVTZ
  Basis Set:

    Orbital Energies (a.u.)
    -----------------------

    Doubly Occupied:

       1A    -20.542089     2A    -11.266991     3A    -11.265837
       4A    -11.207484     5A    -11.206829     6A     -1.376556
       7A     -1.042993     8A     -0.984686     9A     -0.854686
      10A     -0.820965    11A     -0.672355    12A     -0.659195
      13A     -0.634185    14A     -0.574871    15A     -0.553283
      16A     -0.540050    17A     -0.523013    18A     -0.500775
      19A     -0.486867    20A     -0.463119    21A     -0.407263

  @DF-RHF Final Energy:  -232.22984367777653

   => Energetics <=

    Nuclear Repulsion Energy =            191.8672769245751226
    One-Electron Energy =                -695.0260632631267299
    Two-Electron Energy =                 270.9289426607750215
    DFT Exchange-Correlation Energy =       0.0000000000000000
    Empirical Dispersion Energy =           0.0000000000000000
    PCM Polarization Energy =               0.0000000000000000
    EFP Energy =                            0.0000000000000000
    Total Energy =                       -232.2298436777766142
    Molecular point group: c1
  Basis Set: CC-PVTZ
  Basis Set:

  -Total Gradient:
     Atom            X                  Y                   Z
    ------   -----------------  -----------------  -----------------
       1        0.000007723069     0.000015802240    -0.000013888973
       2       -0.000030759483     0.000014166034    -0.000021358088
       3        0.000027381668    -0.000454146304     0.000016055994
       4        0.000016491122    -0.000006741461     0.000012065773
       5        0.000003843414    -0.000009390110    -0.000010106889
       6        0.000037641420     0.000830440747     0.000074456439
       7       -0.000042456250     0.000009892890    -0.000023188355
       8       -0.000036580898    -0.000009768400     0.000005168525
       9       -0.000046818688    -0.000852542213    -0.000172390479
      10       -0.000000166447    -0.000041175532    -0.000029968866
      11        0.000088445918     0.000495506477     0.000193661058
      12       -0.000048467721     0.000021634120    -0.000004790127
      13        0.000017937132    -0.000016818656     0.000007299427
      14        0.000010452525    -0.000019387025    -0.000004334389
      15       -0.000004666779     0.000022527193    -0.000028681051

  **** Optimization is complete! (in 5 steps) ****
    Final optimized geometry and variables:
    Molecular point group: c1

    Geometry (in Angstrom), charge = 0, multiplicity = 1:

    H            2.318958275502     0.494584124009    -1.104590151619
    C            2.237323626471    -0.451928555019    -0.584855627178
    C            1.050956437658    -0.441547053618     0.353896071746
    H            3.154009389710    -0.622472805226    -0.031490982093
    H            2.129072782595    -1.236642306875    -1.323207573436
    O           -0.109964323029    -0.228423324819    -0.389383149913
    H            1.171697679623     0.341997093878     1.100435119060
    H            0.985978661241    -1.388858843354     0.886453290143
    C           -1.305064872061    -0.149011539602     0.334719041290
    C           -1.881161177718     1.253964793694     0.281109476602
    H           -1.144462461059    -0.444737911899     1.367670445253
    H           -2.006043433928    -0.854924103766    -0.097162601954
    H           -1.202247457956     1.968418048641     0.732381433194
    H           -2.825815459869     1.297892624821     0.812817681235
    H           -2.051074035601     1.551959912511    -0.746082303951

  Mulliken Charges: (a.u.)
   Center  Symbol    Alpha    Beta     Spin     Total
       1     H     0.45178  0.45178  0.00000  0.09644
       2     C     3.13738  3.13738  0.00000 -0.27476
       3     C     2.96553  2.96553  0.00000  0.06894
       4     H     0.45929  0.45929  0.00000  0.08143
       5     H     0.45138  0.45138  0.00000  0.09724
       6     O     4.18588  4.18588  0.00000 -0.37177
       7     H     0.47439  0.47439  0.00000  0.05123
       8     H     0.47067  0.47067  0.00000  0.05866
       9     C     2.97769  2.97769  0.00000  0.04462
      10     C     3.13522  3.13522  0.00000 -0.27044
      11     H     0.47117  0.47117  0.00000  0.05765
      12     H     0.45514  0.45514  0.00000  0.08972
      13     H     0.45631  0.45631  0.00000  0.08739
      14     H     0.45723  0.45723  0.00000  0.08554
      15     H     0.45094  0.45094  0.00000  0.09811

   Total alpha = 21.00000, Total beta = 21.00000, Total charge = -0.00000

*** Psi4 exiting successfully. Buy a developer a beer!
