                              Psi4 1.0.54 Driver

  ==> Input File <==

--------------------------------------------------------------------------
set {
	reference rhf
	basis cc-pvtz
}

set_num_threads( 4 )
memory 2 gb

molecule MOL {
0 1

O	 -2.374409	 1.338660	 -0.336961
C	 -2.104891	 0.204655	 -0.107126
C	 -0.881910	 -0.448129	 -0.720509
C	 -2.949910	 -0.638219	 0.818225
C	 0.390035	 -0.063804	 0.045842
H	 -0.806461	 -0.105362	 -1.744681
H	 -0.995611	 -1.526954	 -0.729070
C	 1.643289	 -0.694524	 -0.557527
H	 0.472051	 1.015778	 0.047971
H	 0.299823	 -0.373154	 1.084333
C	 2.936208	 -0.391968	 0.201900
H	 1.747320	 -0.365121	 -1.588376
H	 1.508414	 -1.772033	 -0.594744
C	 3.363614	 1.073447	 0.174289
H	 3.731296	 -0.994763	 -0.225629
H	 2.831165	 -0.718430	 1.233269
H	 3.470724	 1.428330	 -0.845601
H	 4.318534	 1.203308	 0.670307
H	 2.648282	 1.715371	 0.673802
H	 -3.440322	 -1.417144	 0.243099
H	 -3.694377	 -0.025850	 1.303346
H	 -2.331085	 -1.129829	 1.560495

	symmetry c1
}
set optking {
	frozen_dihedral = ("
		6 3 2 1
	")
}

ee,wfn = optimize('scf', return_wfn=True)
oeprop( wfn, 'DIPOLE', 'QUADRUPOLE', 'MULLIKEN_CHARGES')
f=open( 'psi4out.xyz', 'w' )
f.write( "22  " )
f.write( str(ee) + "\n" )
f.write( MOL.save_string_xyz() )
f.close()
--------------------------------------------------------------------------

    Molecular point group: c1
  Charge       = 0
  Multiplicity = 1
  Basis Set: CC-PVTZ
  Basis Set:
  @DF-RHF Final Energy:  -348.22349586761487
    Total Energy =                       -348.2234958676154974
    Molecular point group: c1
  Basis Set: CC-PVTZ
  Basis Set:
  Basis Set: CC-PVTZ
  Basis Set:
  @DF-RHF Final Energy:  -348.22349746439914
    Total Energy =                       -348.2234974643990881
  Basis Set: CC-PVTZ
  Basis Set:
  Basis Set: CC-PVTZ
  Basis Set:
  @DF-RHF Final Energy:  -348.22348919014439
    Total Energy =                       -348.2234891901440506
  Basis Set: CC-PVTZ
  Basis Set:
  Basis Set: CC-PVTZ
  Basis Set:
  @DF-RHF Final Energy:  -348.22349867615009
    Total Energy =                       -348.2234986761499158
  Basis Set: CC-PVTZ
  Basis Set:
  Basis Set: CC-PVTZ
  Basis Set:
  @DF-RHF Final Energy:  -348.22349743917874
    Total Energy =                       -348.2234974391786295
  Basis Set: CC-PVTZ
  Basis Set:
  Basis Set: CC-PVTZ
  Basis Set:
  @DF-RHF Final Energy:  -348.22349899374115
    Total Energy =                       -348.2234989937414298
  Basis Set: CC-PVTZ
  Basis Set:
  Charge       = 0
  Multiplicity = 1
  Basis Set: CC-PVTZ
  Basis Set:

    Orbital Energies (a.u.)
    -----------------------

    Doubly Occupied:

       1A    -20.536710     2A    -11.319369     3A    -11.227794
       4A    -11.227020     5A    -11.226943     6A    -11.220268
       7A    -11.218736     8A    -11.209126     9A     -1.396921
      10A     -1.096942    11A     -1.045473    12A     -1.000540
      13A     -0.938639    14A     -0.858236    15A     -0.786842
      16A     -0.734201    17A     -0.664208    18A     -0.646455
      19A     -0.627425    20A     -0.622774    21A     -0.598126
      22A     -0.584045    23A     -0.564364    24A     -0.541877
      25A     -0.535701    26A     -0.519818    27A     -0.499624
      28A     -0.490074    29A     -0.471340    30A     -0.464500
      31A     -0.461770    32A     -0.398528

  @DF-RHF Final Energy:  -348.22349938771885

   => Energetics <=

    Nuclear Repulsion Energy =            373.6309927289663051
    One-Electron Energy =               -1212.2402034580104555
    Two-Electron Energy =                 490.3857113413254183
    DFT Exchange-Correlation Energy =       0.0000000000000000
    Empirical Dispersion Energy =           0.0000000000000000
    PCM Polarization Energy =               0.0000000000000000
    EFP Energy =                            0.0000000000000000
    Total Energy =                       -348.2234993877187890
    Molecular point group: c1
  Basis Set: CC-PVTZ
  Basis Set:

  -Total Gradient:
     Atom            X                  Y                   Z
    ------   -----------------  -----------------  -----------------
       1        0.000078181069     0.000052206501     0.000115410403
       2       -0.000132578385    -0.000088056844    -0.000178928261
       3        0.000139000825     0.000160305670     0.000092687770
       4        0.000005781920    -0.000003112018     0.000010257703
       5       -0.000002793525     0.000001653683    -0.000007933257
       6       -0.000078122173    -0.000114338088    -0.000032332100
       7       -0.000004643565    -0.000011154434     0.000009301787
       8       -0.000001667484    -0.000004466729     0.000005707378
       9       -0.000003955976     0.000007789447     0.000006369245
      10        0.000005200419     0.000000835792    -0.000010615342
      11       -0.000002360069    -0.000006462451    -0.000006931285
      12        0.000004899214     0.000001659026     0.000003630975
      13       -0.000000615930    -0.000002383424    -0.000003512571
      14       -0.000001738966     0.000009426458     0.000001770397
      15       -0.000003065786    -0.000006038262    -0.000004361582
      16        0.000001231197    -0.000002215476     0.000003740815
      17        0.000004317748    -0.000001173844     0.000002002118
      18       -0.000004900289     0.000001747937     0.000000850416
      19       -0.000000214092     0.000004744729    -0.000001152658
      20        0.000000350114     0.000006331296     0.000002499645
      21        0.000007700391    -0.000006174305    -0.000004116519
      22       -0.000010006655    -0.000001124667    -0.000004345078

  **** Optimization is complete! (in 7 steps) ****
    Final optimized geometry and variables:
    Molecular point group: c1

    Geometry (in Angstrom), charge = 0, multiplicity = 1:

    O           -2.378582889035     1.278187539063    -0.286213084142
    C           -2.110258494026     0.144309972448    -0.054607764969
    C           -0.887806450314    -0.509725001467    -0.668519213246
    C           -2.953818371434    -0.695865634532     0.873861175744
    C            0.384151637151    -0.124322932340     0.096632497281
    H           -0.813592555448    -0.167787091129    -1.693331383164
    H           -1.001250936888    -1.588402799046    -0.678047927438
    C            1.638119269726    -0.751765128223    -0.508415912051
    H            0.463231649758     0.955247060836     0.100923810511
    H            0.294541868806    -0.435908694698     1.134667299189
    C            2.929999435885    -0.452372444744     0.253915716046
    H            1.743298945787    -0.417152965940    -1.537506669123
    H            1.503941465326    -1.829169200835    -0.551199231645
    C            3.356776297558     1.013353190535     0.233700479124
    H            3.725819575132    -1.052956679338    -0.175378438851
    H            2.823672094154    -0.783631662552     1.283620044217
    H            3.467249839583     1.372395325718    -0.784375482675
    H            4.309921003515     1.141641136799     0.733508937433
    H            2.639395822022     1.652890978375     0.733294216136
    H           -3.431501291328    -1.487552692141     0.305589256833
    H           -3.707519057614    -0.085594167843     1.347146519275
    H           -2.333711763610    -1.171366490789     1.625804202768

  Mulliken Charges: (a.u.)
   Center  Symbol    Alpha    Beta     Spin     Total
       1     O     4.17794  4.17794  0.00000 -0.35589
       2     C     2.85846  2.85846  0.00000  0.28308
       3     C     3.09789  3.09789  0.00000 -0.19579
       4     C     3.15502  3.15502  0.00000 -0.31005
       5     C     3.10310  3.10310  0.00000 -0.20621
       6     H     0.43929  0.43929  0.00000  0.12141
       7     H     0.44852  0.44852  0.00000  0.10296
       8     C     3.09669  3.09669  0.00000 -0.19338
       9     H     0.43813  0.43813  0.00000  0.12374
      10     H     0.45259  0.45259  0.00000  0.09483
      11     C     3.09077  3.09077  0.00000 -0.18155
      12     H     0.45106  0.45106  0.00000  0.09788
      13     H     0.44892  0.44892  0.00000  0.10216
      14     C     3.15173  3.15173  0.00000 -0.30346
      15     H     0.44770  0.44770  0.00000  0.10460
      16     H     0.45467  0.45467  0.00000  0.09066
      17     H     0.45385  0.45385  0.00000  0.09230
      18     H     0.44626  0.44626  0.00000  0.10748
      19     H     0.45225  0.45225  0.00000  0.09551
      20     H     0.44834  0.44834  0.00000  0.10331
      21     H     0.43615  0.43615  0.00000  0.12770
      22     H     0.45065  0.45065  0.00000  0.09869

   Total alpha = 32.00000, Total beta = 32.00000, Total charge =  0.00000

*** Psi4 exiting successfully. Buy a developer a beer!
