  ==> Input File <==

--------------------------------------------------------------------------
set {
	reference rhf
	basis 6-31G*
}

set_num_threads( 4 )
memory 2 gb

molecule MOL {
0 1

H	 -2.798360	 -0.862255	 -0.071053
N	 -1.863561	 -0.715187	 0.256814
C	 -1.344686	 0.554728	 -0.219830
H	 -1.300452	 -1.461917	 -0.101532
C	 0.081427	 0.741154	 0.254071
H	 -1.362155	 0.656231	 -1.305829
H	 -1.952773	 1.354456	 0.191809
O	 0.771795	 -0.458325	 0.049796
H	 0.560213	 1.547797	 -0.300663
H	 0.084665	 1.003268	 1.309780
C	 2.081049	 -0.455029	 0.522464
H	 2.509314	 -1.424949	 0.309059
H	 2.679900	 0.309343	 0.030433
H	 2.115672	 -0.282447	 1.596161

	symmetry c1
}
set optking {
	frozen_dihedral = ("
		8 5 3 6
	")
}

ee = optimize('scf')
oeprop('DIPOLE', 'QUADRUPOLE', 'MULLIKEN_CHARGES')
f=open( 'psi4out.xyz', 'w' )
f.write( "14  " )
f.write( str(ee) + "\n" )
f.write( MOL.save_string_xyz() )
f.close()
--------------------------------------------------------------------------

    Molecular point group: c1
  Charge       = 0
  Multiplicity = 1
  Basis Set: 6-31G*
  Basis Set:
  @DF-RHF Final Energy:  -248.12232315679185
    Total Energy =                       -248.1223231567918219
    Molecular point group: c1
  Basis Set: 6-31G*
  Basis Set:
  Basis Set: 6-31G*
  Basis Set:
  @DF-RHF Final Energy:  -248.12278392569101
    Total Energy =                       -248.1227839256910102
  Basis Set: 6-31G*
  Basis Set:
  Basis Set: 6-31G*
  Basis Set:
  @DF-RHF Final Energy:  -248.12297399239014
    Total Energy =                       -248.1229739923901434
  Basis Set: 6-31G*
  Basis Set:
  Basis Set: 6-31G*
  Basis Set:
  @DF-RHF Final Energy:  -248.12298035441268
    Total Energy =                       -248.1229803544126753
  Basis Set: 6-31G*
  Basis Set:
  Charge       = 0
  Multiplicity = 1
  Basis Set: 6-31G*
  Basis Set:

    Orbital Energies (a.u.)
    -----------------------

    Doubly Occupied:

       1A    -20.557358     2A    -15.526814     3A    -11.266987
       4A    -11.266332     5A    -11.241262     6A     -1.381983
       7A     -1.172513     8A     -0.998234     9A     -0.909144
      10A     -0.813657    11A     -0.683851    12A     -0.675130
      13A     -0.645766    14A     -0.609726    15A     -0.604306
      16A     -0.544141    17A     -0.527642    18A     -0.494626
      19A     -0.472939    20A     -0.418159    21A     -0.376582

  @DF-RHF Final Energy:  -248.12298068255978

   => Energetics <=

    Nuclear Repulsion Energy =            195.1022384721859453
    One-Electron Energy =                -724.0761343906006005
    Two-Electron Energy =                 280.8509152358546999
    DFT Exchange-Correlation Energy =       0.0000000000000000
    Empirical Dispersion Energy =           0.0000000000000000
    PCM Polarization Energy =               0.0000000000000000
    EFP Energy =                            0.0000000000000000
    Total Energy =                       -248.1229806825599553
    Molecular point group: c1
  Basis Set: 6-31G*
  Basis Set:

  -Total Gradient:
     Atom            X                  Y                   Z
    ------   -----------------  -----------------  -----------------
       1       -0.000007773710    -0.000013128310    -0.000000396823
       2       -0.000013961370    -0.000010309619     0.000018718743
       3        0.000972922867    -0.008488474770     0.000451408703
       4        0.000003064392    -0.000009334544    -0.000005552321
       5        0.001531021025     0.003730710253    -0.005872684813
       6       -0.001083729465     0.006460380033     0.000752412341
       7       -0.000000860620     0.000007229669     0.000006554551
       8       -0.001390727886    -0.001683304821     0.004647019009
       9        0.000011486137    -0.000007626904     0.000000116905
      10        0.000001529354     0.000001268136     0.000001444668
      11       -0.000013017760     0.000015585462     0.000004312404
      12       -0.000012003869    -0.000001416573    -0.000003207567
      13        0.000000032595     0.000000731654    -0.000003444937
      14        0.000002018306    -0.000002309663     0.000003299135

  **** Optimization is complete! (in 5 steps) ****
    Final optimized geometry and variables:
    Molecular point group: c1

    Geometry (in Angstrom), charge = 0, multiplicity = 1:

    H           -2.786741016264    -0.750166617766    -0.257324822397
    N           -1.860982577138    -0.611813299236     0.097430969727
    C           -1.298743547828     0.624755407668    -0.402324400107
    H           -1.299432832374    -1.386203179190    -0.195365105111
    C            0.127658872612     0.806664366261     0.090022840456
    H           -1.324976258395     0.748598215106    -1.487170729171
    H           -1.883762960845     1.450638503855    -0.005493815369
    O            0.839868060176    -0.375821522180    -0.128255843555
    H            0.599929137188     1.641676557974    -0.425718285191
    H            0.117697728089     1.029466480751     1.155382957333
    C            2.146028209493    -0.355069849621     0.351569123666
    H            2.589729184153    -1.317485675773     0.136196134417
    H            2.736416732585     0.420677799945    -0.132705656926
    H            2.170482824743    -0.187807674982     1.426420454676

  Mulliken Charges: (a.u.)
   Center  Symbol    Alpha    Beta     Spin     Total
       1     H     0.33306  0.33306  0.00000  0.33388
       2     N     3.92350  3.92350  0.00000 -0.84699
       3     C     3.07108  3.07108  0.00000 -0.14217
       4     H     0.32078  0.32078  0.00000  0.35843
       5     C     2.98586  2.98586  0.00000  0.02828
       6     H     0.43019  0.43019  0.00000  0.13963
       7     H     0.42103  0.42103  0.00000  0.15794
       8     O     4.30956  4.30956  0.00000 -0.61911
       9     H     0.43090  0.43090  0.00000  0.13821
      10     H     0.42551  0.42551  0.00000  0.14897
      11     C     3.07883  3.07883  0.00000 -0.15766
      12     H     0.41234  0.41234  0.00000  0.17532
      13     H     0.43005  0.43005  0.00000  0.13991
      14     H     0.42732  0.42732  0.00000  0.14537

   Total alpha = 21.00000, Total beta = 21.00000, Total charge = -0.00000
