  ==> Input File <==

--------------------------------------------------------------------------
set {
	reference rhf
	basis 6-31G*
}

set_num_threads( 4 )
memory 2 gb

molecule MOL {
0 1

H	 2.219521	 -1.321221	 -0.107201
O	 1.540229	 -0.742315	 -0.422034
C	 1.135793	 0.118896	 0.612333
C	 0.031547	 1.023609	 0.088541
H	 1.971634	 0.730580	 0.947150
H	 0.788987	 -0.452178	 1.470646
C	 -1.134819	 0.293262	 -0.585751
H	 0.474374	 1.714721	 -0.623187
H	 -0.338529	 1.620940	 0.920081
C	 -1.917817	 -0.639439	 0.339494
H	 -0.758119	 -0.268455	 -1.433105
H	 -1.813832	 1.041889	 -0.986690
H	 -2.777680	 -1.057197	 -0.174994
H	 -1.310268	 -1.471279	 0.680599
H	 -2.283753	 -0.111424	 1.216626

	symmetry c1
}
set optking {
	frozen_dihedral = ("
		2 3 4 8
	")
}

ee = optimize('scf')
oeprop('DIPOLE', 'QUADRUPOLE', 'MULLIKEN_CHARGES')
f=open( 'psi4out.xyz', 'w' )
f.write( "15  " )
f.write( str(ee) + "\n" )
f.write( MOL.save_string_xyz() )
f.close()
--------------------------------------------------------------------------

    Molecular point group: c1
  Charge       = 0
  Multiplicity = 1
  Basis Set: 6-31G*
  Basis Set:
  @DF-RHF Final Energy:  -232.14363634889992
    Total Energy =                       -232.1436363488998609
    Molecular point group: c1
  Basis Set: 6-31G*
  Basis Set:
  Basis Set: 6-31G*
  Basis Set:
  @DF-RHF Final Energy:  -232.14367066072080
    Total Energy =                       -232.1436706607208862
  Basis Set: 6-31G*
  Basis Set:
  Basis Set: 6-31G*
  Basis Set:
  @DF-RHF Final Energy:  -232.14370416131223
    Total Energy =                       -232.1437041613122574
  Basis Set: 6-31G*
  Basis Set:
  Basis Set: 6-31G*
  Basis Set:
  @DF-RHF Final Energy:  -232.14370776985692
    Total Energy =                       -232.1437077698566895
  Basis Set: 6-31G*
  Basis Set:
  Charge       = 0
  Multiplicity = 1
  Basis Set: 6-31G*
  Basis Set:

    Orbital Energies (a.u.)
    -----------------------

    Doubly Occupied:

       1A    -20.553704     2A    -11.267697     3A    -11.212538
       4A    -11.207894     5A    -11.203367     6A     -1.360275
       7A     -1.063094     8A     -0.969415     9A     -0.868083
      10A     -0.773326    11A     -0.703759    12A     -0.649235
      13A     -0.607281    14A     -0.571127    15A     -0.563983
      16A     -0.530402    17A     -0.508994    18A     -0.473906
      19A     -0.464518    20A     -0.451901    21A     -0.430946

  @DF-RHF Final Energy:  -232.14370869475019

   => Energetics <=

    Nuclear Repulsion Energy =            192.4694086310502428
    One-Electron Energy =                -696.3553427569422638
    Two-Electron Energy =                 271.7422254311418328
    DFT Exchange-Correlation Energy =       0.0000000000000000
    Empirical Dispersion Energy =           0.0000000000000000
    PCM Polarization Energy =               0.0000000000000000
    EFP Energy =                            0.0000000000000000
    Total Energy =                       -232.1437086947502166
    Molecular point group: c1
  Basis Set: 6-31G*
  Basis Set:

  -Total Gradient:
     Atom            X                  Y                   Z
    ------   -----------------  -----------------  -----------------
       1        0.000008400326    -0.000014745040    -0.000009718102
       2       -0.000821911539    -0.000831078219     0.000395700175
       3        0.001171769462     0.001352086313    -0.000222181832
       4       -0.000628899171    -0.001576329640    -0.001352073815
       5        0.000023546915    -0.000031762440    -0.000028245335
       6        0.000022373270     0.000016295524     0.000001700307
       7        0.000017371798     0.000042342792    -0.000013222816
       8        0.000315651959     0.001053061889     0.001215065235
       9       -0.000029230873     0.000024532264     0.000006293171
      10       -0.000051447029    -0.000009948461     0.000013401455
      11        0.000003804995     0.000020504272    -0.000013310136
      12       -0.000008967855    -0.000018909558    -0.000005013225
      13       -0.000002121831    -0.000014072755     0.000012662649
      14       -0.000018527852    -0.000001428272    -0.000000471683
      15       -0.000001812576    -0.000010548668    -0.000000586048

  **** Optimization is complete! (in 5 steps) ****
    Final optimized geometry and variables:
    Molecular point group: c1

    Geometry (in Angstrom), charge = 0, multiplicity = 1:

    H            2.249328590782    -1.297062042372    -0.091729741771
    O            1.565914273033    -0.728570507420    -0.416651503620
    C            1.151214374606     0.143055571059     0.604675622534
    C            0.058512342827     1.053988572565     0.064375415963
    H            1.984894432925     0.749191390177     0.954101042817
    H            0.783500030388    -0.423442458409     1.457596862840
    C           -1.117623878575     0.330150442669    -0.598295351047
    H            0.505702120136     1.742948907998    -0.646878342856
    H           -0.304102456632     1.661553418190     0.892334850263
    C           -1.878979267991    -0.616016368614     0.331067121144
    H           -0.755408778146    -0.222017828286    -1.457844886645
    H           -1.804673776712     1.082525392480    -0.977991990988
    H           -2.747146799650    -1.031581546526    -0.171152719172
    H           -1.258715143224    -1.447900274572     0.647842334849
    H           -2.229542568287    -0.100515233557     1.221848966543

  Mulliken Charges: (a.u.)
   Center  Symbol    Alpha    Beta     Spin     Total
       1     H     0.28051  0.28051  0.00000  0.43897
       2     O     4.36984  4.36984  0.00000 -0.73968
       3     C     2.99876  2.99876  0.00000  0.00248
       4     C     3.16192  3.16192  0.00000 -0.32385
       5     H     0.42895  0.42895  0.00000  0.14209
       6     H     0.43075  0.43075  0.00000  0.13850
       7     C     3.15171  3.15171  0.00000 -0.30341
       8     H     0.41566  0.41566  0.00000  0.16868
       9     H     0.42477  0.42477  0.00000  0.15047
      10     C     3.24361  3.24361  0.00000 -0.48722
      11     H     0.40716  0.40716  0.00000  0.18567
      12     H     0.42351  0.42351  0.00000  0.15299
      13     H     0.41940  0.41940  0.00000  0.16121
      14     H     0.41794  0.41794  0.00000  0.16412
      15     H     0.42551  0.42551  0.00000  0.14897

   Total alpha = 21.00000, Total beta = 21.00000, Total charge = -0.00000
