  ==> Input File <==

--------------------------------------------------------------------------
set {
	reference rhf
	basis 6-31G*
}

set_num_threads( 4 )
memory 2 gb

molecule MOL {
0 1

H	 2.591676	 2.013956	 0.335017
O	 3.341076	 1.666752	 -0.126416
C	 3.569581	 0.339145	 0.272707
C	 2.539767	 -0.640285	 -0.279495
H	 4.553106	 0.084646	 -0.100901
H	 3.608576	 0.269204	 1.359154
C	 1.088640	 -0.238137	 -0.004953
H	 2.695332	 -0.736613	 -1.350890
H	 2.733065	 -1.618183	 0.158362
C	 0.081308	 -1.268098	 -0.523877
H	 0.891953	 0.725853	 -0.465824
H	 0.945765	 -0.107948	 1.067884
C	 -1.384115	 -0.955680	 -0.199422
H	 0.197289	 -1.370928	 -1.601291
H	 0.328609	 -2.238617	 -0.098865
C	 -1.946120	 0.289247	 -0.891366
H	 -1.988086	 -1.814050	 -0.486191
H	 -1.499420	 -0.852325	 0.878474
C	 -3.437445	 0.499527	 -0.620866
H	 -1.784975	 0.206639	 -1.965293
H	 -1.402691	 1.174128	 -0.568917
C	 -3.999514	 1.745099	 -1.305186
H	 -3.990653	 -0.375762	 -0.954512
H	 -3.601665	 0.572572	 0.452251
H	 -3.879791	 1.687771	 -2.383427
H	 -5.058035	 1.865405	 -1.096157
H	 -3.491383	 2.643014	 -0.964724

	symmetry c1
}
set optking {
	frozen_dihedral = ("
		8 4 3 2
	")
}

ee = optimize('scf')
oeprop('DIPOLE', 'QUADRUPOLE', 'MULLIKEN_CHARGES')
f=open( 'psi4out.xyz', 'w' )
f.write( "27  " )
f.write( str(ee) + "\n" )
f.write( MOL.save_string_xyz() )
f.close()
--------------------------------------------------------------------------

    Molecular point group: c1
  Charge       = 0
  Multiplicity = 1
  Basis Set: 6-31G*
  Basis Set:
  @DF-RHF Final Energy:  -388.28109312437613
    Total Energy =                       -388.2810931243764117
    Molecular point group: c1
  Basis Set: 6-31G*
  Basis Set:
  Basis Set: 6-31G*
  Basis Set:
  @DF-RHF Final Energy:  -388.28113355931464
    Total Energy =                       -388.2811335593147533
  Basis Set: 6-31G*
  Basis Set:
  Basis Set: 6-31G*
  Basis Set:
  @DF-RHF Final Energy:  -388.28120679616205
    Total Energy =                       -388.2812067961619960
  Basis Set: 6-31G*
  Basis Set:
  Basis Set: 6-31G*
  Basis Set:
  @DF-RHF Final Energy:  -388.28121145896927
    Total Energy =                       -388.2812114589692101
  Basis Set: 6-31G*
  Basis Set:
  Charge       = 0
  Multiplicity = 1
  Basis Set: 6-31G*
  Basis Set:

    Orbital Energies (a.u.)
    -----------------------

    Doubly Occupied:

       1A    -20.552196     2A    -11.267334     3A    -11.219545
       4A    -11.217251     5A    -11.215899     6A    -11.215590
       7A    -11.215544     8A    -11.214021     9A    -11.209111
      10A     -1.359167    11A     -1.095019    12A     -1.061218
      13A     -1.011268    14A     -0.948654    15A     -0.888454
      16A     -0.819776    17A     -0.800961    18A     -0.777954
      19A     -0.693999    20A     -0.650667    21A     -0.637184
      22A     -0.615921    23A     -0.600667    24A     -0.584109
      25A     -0.579110    26A     -0.552969    27A     -0.542506
      28A     -0.530257    29A     -0.505401    30A     -0.491726
      31A     -0.485334    32A     -0.474190    33A     -0.469908
      34A     -0.461103    35A     -0.450440    36A     -0.442139
      37A     -0.422969

  @DF-RHF Final Energy:  -388.28121190911219

   => Energetics <=

    Nuclear Repulsion Energy =            460.2365193595658752
    One-Electron Energy =               -1438.4763393462496879
    Two-Electron Energy =                 589.9586080775712844
    DFT Exchange-Correlation Energy =       0.0000000000000000
    Empirical Dispersion Energy =           0.0000000000000000
    PCM Polarization Energy =               0.0000000000000000
    EFP Energy =                            0.0000000000000000
    Total Energy =                       -388.2812119091125851
    Molecular point group: c1
  Basis Set: 6-31G*
  Basis Set:

  -Total Gradient:
     Atom            X                  Y                   Z
    ------   -----------------  -----------------  -----------------
       1       -0.000019185950     0.000027973588    -0.000006428123
       2       -0.001319104964     0.000309817726     0.001799970689
       3        0.002225481046    -0.000976657421    -0.002349440086
       4       -0.002580152294     0.002745502118     0.000102277067
       5        0.000017530385    -0.000026280141     0.000019733791
       6       -0.000015840862     0.000033264857    -0.000007684985
       7       -0.000020679184     0.000000046228    -0.000025205886
       8        0.001699706607    -0.002125179717     0.000432758362
       9       -0.000001821267     0.000011800830     0.000003185156
      10        0.000006054243     0.000002255357     0.000022236075
      11        0.000042046571    -0.000002603877     0.000004566915
      12       -0.000030424617    -0.000003892962     0.000004553088
      13        0.000002276360    -0.000003059215     0.000013580626
      14       -0.000011112507     0.000010022682    -0.000002486719
      15        0.000017273384    -0.000004589981    -0.000009099548
      16        0.000004357452     0.000002504965    -0.000003396238
      17        0.000003214682     0.000001856664    -0.000000694517
      18       -0.000008119634    -0.000002706958     0.000004364566
      19       -0.000000031800     0.000000305947     0.000002318083
      20       -0.000004498321     0.000000844639     0.000001840372
      21       -0.000006182893    -0.000001560374    -0.000007586402
      22        0.000000074751     0.000000865350     0.000000270218
      23       -0.000000317269     0.000000379209     0.000000296373
      24       -0.000000161589     0.000000123700     0.000000363933
      25        0.000000467452     0.000000097692     0.000000234060
      26       -0.000000630257    -0.000000205571    -0.000000279364
      27       -0.000000219528    -0.000000925331    -0.000000247507

  **** Optimization is complete! (in 5 steps) ****
    Final optimized geometry and variables:
    Molecular point group: c1

    Geometry (in Angstrom), charge = 0, multiplicity = 1:

    H            2.599631828676     1.817033394911     0.757413843660
    O            3.353977268580     1.466690283254     0.306719801019
    C            3.546673865134     0.127263826566     0.684137016870
    C            2.507827474383    -0.827262864599     0.100712882260
    H            4.534334351777    -0.144082204288     0.334918177501
    H            3.553846554966     0.043075751904     1.770337600657
    C            1.058976680557    -0.429382166954     0.386384254991
    H            2.667905423056    -0.918718153373    -0.970646321377
    H            2.699433957997    -1.814733900099     0.518783518292
    C            0.051391884776    -1.464069020443    -0.122533968669
    H            0.858237090144     0.533079741964    -0.073663147118
    H            0.923353711927    -0.300399200167     1.460979615638
    C           -1.412975162213    -1.151663274180     0.206801148175
    H            0.162562044466    -1.571664144222    -1.200024397897
    H            0.301789161817    -2.432219181075     0.305885665777
    C           -1.981168031445     0.085654059043    -0.493653050613
    H           -2.016663725898    -2.013812780370    -0.068971182279
    H           -1.522975266447    -1.038871645591     1.284345297918
    C           -3.470608774151     0.297527733158    -0.214112696430
    H           -1.828014814984    -0.008107692382    -1.567806973486
    H           -1.436029028539     0.974283228718    -0.184878802097
    C           -4.039293487529     1.534380139457    -0.908693673663
    H           -4.025409994491    -0.582198839150    -0.533164588325
    H           -3.626719228894     0.383046110603     0.859315381671
    H           -3.927895918169     1.464375979492    -1.987059613729
    H           -5.096288785252     1.656095159750    -0.692856102202
    H           -3.529427837920     2.436722657438    -0.582907691015

  Mulliken Charges: (a.u.)
   Center  Symbol    Alpha    Beta     Spin     Total
       1     H     0.27951  0.27951  0.00000  0.44098
       2     O     4.37074  4.37074  0.00000 -0.74147
       3     C     2.99707  2.99707  0.00000  0.00586
       4     C     3.16093  3.16093  0.00000 -0.32187
       5     H     0.41435  0.41435  0.00000  0.17129
       6     H     0.43212  0.43212  0.00000  0.13576
       7     C     3.16566  3.16566  0.00000 -0.33132
       8     H     0.41618  0.41618  0.00000  0.16764
       9     H     0.42471  0.42471  0.00000  0.15058
      10     C     3.15211  3.15211  0.00000 -0.30422
      11     H     0.41796  0.41796  0.00000  0.16408
      12     H     0.42711  0.42711  0.00000  0.14577
      13     C     3.15358  3.15358  0.00000 -0.30716
      14     H     0.42161  0.42161  0.00000  0.15678
      15     H     0.42160  0.42160  0.00000  0.15680
      16     C     3.15235  3.15235  0.00000 -0.30471
      17     H     0.42125  0.42125  0.00000  0.15750
      18     H     0.42448  0.42448  0.00000  0.15105
      19     C     3.15125  3.15125  0.00000 -0.30249
      20     H     0.42350  0.42350  0.00000  0.15300
      21     H     0.42360  0.42360  0.00000  0.15279
      22     C     3.23916  3.23916  0.00000 -0.47831
      23     H     0.42291  0.42291  0.00000  0.15417
      24     H     0.42342  0.42342  0.00000  0.15316
      25     H     0.42141  0.42141  0.00000  0.15719
      26     H     0.41929  0.41929  0.00000  0.16142
      27     H     0.42214  0.42214  0.00000  0.15572

   Total alpha = 37.00000, Total beta = 37.00000, Total charge =  0.00000
