  ==> Input File <==

--------------------------------------------------------------------------
set {
	reference rhf
	basis cc-pvtz
}

set_num_threads( 4 )
memory 2 gb

molecule MOL {
0 1

H	 -1.752232	 -2.214755	 -0.011938
C	 -1.343852	 -1.221619	 -0.018179
N	 -0.058800	 -1.097635	 -0.261688
C	 -2.148159	 -0.124236	 0.219734
C	 0.449026	 0.119242	 -0.273393
H	 -3.196988	 -0.237571	 0.417076
N	 -1.655094	 1.094230	 0.209506
C	 -0.370318	 1.215445	 -0.035100
C	 1.924033	 0.265863	 -0.538106
H	 0.033214	 2.210441	 -0.046812
C	 2.522709	 1.503902	 0.131443
H	 2.423528	 -0.620920	 -0.166779
H	 2.094892	 0.307161	 -1.607365
H	 3.589093	 1.556432	 -0.052950
H	 2.363390	 1.472946	 1.201321
H	 2.070407	 2.411849	 -0.251441

	symmetry c1
}
set optking {
	frozen_dihedral = ("
		12 9 5 3
	")
}

ee = optimize('scf')
oeprop('DIPOLE', 'QUADRUPOLE', 'MULLIKEN_CHARGES')
f=open( 'psi4out.xyz', 'w' )
f.write( "16  " )
f.write( str(ee) + "\n" )
f.write( MOL.save_string_xyz() )
f.close()
--------------------------------------------------------------------------

    Molecular point group: c1
  Charge       = 0
  Multiplicity = 1
  Basis Set: CC-PVTZ
  Basis Set:
  @DF-RHF Final Energy:  -340.86876170059247
    Total Energy =                       -340.8687617005923585
    Molecular point group: c1
  Basis Set: CC-PVTZ
  Basis Set:
  Basis Set: CC-PVTZ
  Basis Set:
  @DF-RHF Final Energy:  -340.86957671210052
    Total Energy =                       -340.8695767121004678
  Basis Set: CC-PVTZ
  Basis Set:
  Basis Set: CC-PVTZ
  Basis Set:
  @DF-RHF Final Energy:  -340.87002535253731
    Total Energy =                       -340.8700253525371977
  Basis Set: CC-PVTZ
  Basis Set:
  Basis Set: CC-PVTZ
  Basis Set:
  @DF-RHF Final Energy:  -340.87005531103620
    Total Energy =                       -340.8700553110360261
  Basis Set: CC-PVTZ
  Basis Set:
  Basis Set: CC-PVTZ
  Basis Set:
  @DF-RHF Final Energy:  -340.87006462549567
    Total Energy =                       -340.8700646254956155
  Basis Set: CC-PVTZ
  Basis Set:
  Charge       = 0
  Multiplicity = 1
  Basis Set: CC-PVTZ
  Basis Set:

    Orbital Energies (a.u.)
    -----------------------

    Doubly Occupied:

       1A    -15.579884     2A    -15.574839     3A    -11.279220
       4A    -11.271600     5A    -11.267400     6A    -11.266968
       7A    -11.231945     8A    -11.221672     9A     -1.315231
      10A     -1.222980    11A     -1.086735    12A     -1.016416
      13A     -0.909447    14A     -0.894051    15A     -0.831671
      16A     -0.716690    17A     -0.712186    18A     -0.654246
      19A     -0.627742    20A     -0.610464    21A     -0.573943
      22A     -0.565962    23A     -0.521610    24A     -0.512785
      25A     -0.507023    26A     -0.484701    27A     -0.431954
      28A     -0.397115    29A     -0.346380

  @DF-RHF Final Energy:  -340.87006509584955

   => Energetics <=

    Nuclear Repulsion Energy =            349.9425951441319285
    One-Electron Energy =               -1154.3595946897989961
    Two-Electron Energy =                 463.5469344498175133
    DFT Exchange-Correlation Energy =       0.0000000000000000
    Empirical Dispersion Energy =           0.0000000000000000
    PCM Polarization Energy =               0.0000000000000000
    EFP Energy =                            0.0000000000000000
    Total Energy =                       -340.8700650958495544
    Molecular point group: c1
  Basis Set: CC-PVTZ
  Basis Set:

  -Total Gradient:
     Atom            X                  Y                   Z
    ------   -----------------  -----------------  -----------------
       1        0.000010284249    -0.000004802679     0.000041983603
       2       -0.000002451979     0.000003618564    -0.000079395818
       3        0.000036067450    -0.000037915582     0.000215809023
       4       -0.000008756504     0.000012913401    -0.000069478084
       5       -0.000047543676     0.000018086516    -0.000306431069
       6        0.000010024453    -0.000001375461     0.000047375187
       7        0.000001141871     0.000009707589    -0.000012750219
       8        0.000018641042    -0.000010532610     0.000091275777
       9        0.000019935154     0.000089045244     0.000263834045
      10        0.000006192085     0.000005417186    -0.000020196362
      11       -0.000014715285    -0.000003034991     0.000017276771
      12       -0.000015001367    -0.000083371629    -0.000175345009
      13       -0.000000770993     0.000007446017    -0.000010322488
      14        0.000003821774    -0.000004953231     0.000007050515
      15       -0.000012578547     0.000005404214    -0.000005581483
      16       -0.000004289727    -0.000005652543    -0.000005104388

  **** Optimization is complete! (in 6 steps) ****
    Final optimized geometry and variables:
    Molecular point group: c1

    Geometry (in Angstrom), charge = 0, multiplicity = 1:

    H           -1.686392522164    -2.476520163855     0.013398727528
    C           -1.299847698211    -1.474805347856     0.024946435814
    N           -0.011229431819    -1.322473598002    -0.182612751447
    C           -2.130478065708    -0.397210049339     0.254233481966
    C            0.477314217620    -0.097629119842    -0.168810863898
    H           -3.181504834618    -0.531181903528     0.424691294527
    N           -1.658041356359     0.829413895419     0.274551149352
    C           -0.369813971830     0.979623950836     0.066743427394
    C            1.955682469144     0.048146179692    -0.442034858534
    H            0.005448081519     1.983229072622     0.087755294894
    C            2.633313516033     1.272049014852     0.167319035942
    H            2.431011535602    -0.855434623892    -0.084719113753
    H            2.098294172964     0.056046977868    -1.519032981364
    H            3.699725996403     1.229719038752    -0.015950802930
    H            2.481265922754     1.315697795240     1.239711355702
    H            2.269509835680     2.197855282308    -0.261131814212

  Mulliken Charges: (a.u.)
   Center  Symbol    Alpha    Beta     Spin     Total
       1     H     0.41386  0.41386  0.00000  0.17229
       2     C     3.04215  3.04215  0.00000 -0.08429
       3     N     3.59255  3.59255  0.00000 -0.18510
       4     C     3.04812  3.04812  0.00000 -0.09624
       5     C     2.95537  2.95537  0.00000  0.08926
       6     H     0.41398  0.41398  0.00000  0.17204
       7     N     3.58846  3.58846  0.00000 -0.17692
       8     C     3.07359  3.07359  0.00000 -0.14718
       9     C     3.06692  3.06692  0.00000 -0.13383
      10     H     0.41314  0.41314  0.00000  0.17371
      11     C     3.15864  3.15864  0.00000 -0.31727
      12     H     0.44198  0.44198  0.00000  0.11605
      13     H     0.44626  0.44626  0.00000  0.10747
      14     H     0.44389  0.44389  0.00000  0.11222
      15     H     0.44700  0.44700  0.00000  0.10600
      16     H     0.45410  0.45410  0.00000  0.09180

   Total alpha = 29.00000, Total beta = 29.00000, Total charge = -0.00000
