                              Psi4 1.0.54 Driver

  ==> Input File <==

--------------------------------------------------------------------------
set {
	reference rhf
	basis cc-pvtz
}

set_num_threads( 4 )
memory 2 gb

molecule MOL {
0 1

H	 -2.916971	 2.154264	 0.652317
C	 -2.257057	 1.973075	 1.497639
O	 -0.937834	 1.826816	 1.090456
H	 -2.305214	 2.821680	 2.164301
H	 -2.612076	 1.091369	 2.028149
C	 -0.718530	 0.758693	 0.228682
C	 0.718529	 0.758687	 -0.228709
H	 -0.927782	 -0.183638	 0.734841
H	 -1.370200	 0.824776	 -0.639874
O	 1.401606	 -0.295166	 0.366636
H	 0.748705	 0.673477	 -1.312803
H	 1.176496	 1.708671	 0.046552
C	 2.714315	 -0.441627	 -0.061017
H	 2.765292	 -0.641548	 -1.128869
H	 3.305661	 0.447341	 0.150952
H	 3.143725	 -1.278506	 0.470147

	symmetry c1
}
set optking {
	frozen_dihedral = ("
		3 6 7 11
	")
}

ee,wfn = optimize('scf', return_wfn=True)
oeprop( wfn, 'DIPOLE', 'QUADRUPOLE', 'MULLIKEN_CHARGES')
f=open( 'psi4out.xyz', 'w' )
f.write( "16  " )
f.write( str(ee) + "\n" )
f.write( MOL.save_string_xyz() )
f.close()
--------------------------------------------------------------------------

    Molecular point group: c1
  Charge       = 0
  Multiplicity = 1
  Basis Set: CC-PVTZ
  Basis Set:
  @DF-RHF Final Energy:  -307.09406462193107
    Total Energy =                       -307.0940646219314090
    Molecular point group: c1
  Basis Set: CC-PVTZ
  Basis Set:
  Basis Set: CC-PVTZ
  Basis Set:
  @DF-RHF Final Energy:  -307.09445524387911
    Total Energy =                       -307.0944552438792243
  Basis Set: CC-PVTZ
  Basis Set:
  Basis Set: CC-PVTZ
  Basis Set:
  @DF-RHF Final Energy:  -307.09466634428810
    Total Energy =                       -307.0946663442879867
  Basis Set: CC-PVTZ
  Basis Set:
  Charge       = 0
  Multiplicity = 1
  Basis Set: CC-PVTZ
  Basis Set:

    Orbital Energies (a.u.)
    -----------------------

    Doubly Occupied:

       1A    -20.550442     2A    -20.550118     3A    -11.266751
       4A    -11.266085     5A    -11.262844     6A    -11.262721
       7A     -1.390691     8A     -1.377579     9A     -1.029216
      10A     -0.939594    11A     -0.887693    12A     -0.830441
      13A     -0.686626    14A     -0.681355    15A     -0.659069
      16A     -0.642201    17A     -0.631850    18A     -0.600088
      19A     -0.551477    20A     -0.533245    21A     -0.509344
      22A     -0.482477    23A     -0.466706    24A     -0.425153
      25A     -0.413245

  @DF-RHF Final Energy:  -307.09466903214542

   => Energetics <=

    Nuclear Repulsion Energy =            256.2514394508601185
    One-Electron Energy =                -926.8981918594088256
    Two-Electron Energy =                 363.5520833764034023
    DFT Exchange-Correlation Energy =       0.0000000000000000
    Empirical Dispersion Energy =           0.0000000000000000
    PCM Polarization Energy =               0.0000000000000000
    EFP Energy =                            0.0000000000000000
    Total Energy =                       -307.0946690321453616
    Molecular point group: c1
  Basis Set: CC-PVTZ
  Basis Set:

  -Total Gradient:
     Atom            X                  Y                   Z
    ------   -----------------  -----------------  -----------------
       1        0.000033314520    -0.000003161148     0.000076374961
       2       -0.000140390142    -0.000011121181     0.000012124796
       3       -0.000399794701     0.000887406493    -0.001635467031
       4        0.000011981463    -0.000054151675    -0.000026276889
       5       -0.000018194271     0.000063397066    -0.000017131231
       6        0.000610479998    -0.000550300648     0.001967948326
       7       -0.000161336307    -0.002745782717    -0.000120986871
       8        0.000011588309     0.000056919777     0.000007249901
       9       -0.000014667141    -0.000037267579    -0.000006670002
      10       -0.000060491380     0.000003518869     0.000027777493
      11       -0.000043612912     0.002477834384    -0.000288272087
      12        0.000003319068    -0.000059261867     0.000016407006
      13        0.000136160493    -0.000027173942    -0.000043164033
      14        0.000011503425     0.000018305476     0.000086250762
      15        0.000007193222    -0.000067095884    -0.000024595736
      16        0.000012946360     0.000047934578    -0.000031569364

  **** Optimization is complete! (in 4 steps) ****
    Final optimized geometry and variables:
    Molecular point group: c1

    Geometry (in Angstrom), charge = 0, multiplicity = 1:

    H           -3.120063111803     1.273663051475     0.323814912117
    C           -2.352765568038     1.204709640238     1.092309843809
    O           -1.083732483793     1.102556040399     0.537181285327
    H           -2.380152065910     2.102912290790     1.691732760888
    H           -2.579673303056     0.352102089647     1.728086008808
    C           -0.903898934187    -0.016110605575    -0.275016907404
    C            0.532499027294    -0.056109426663    -0.775125026036
    H           -1.107901260571    -0.930051084439     0.274312735634
    H           -1.595184803152     0.031436027824    -1.114349439414
    O            1.226123812431    -1.080839920588    -0.135169556052
    H            0.558264073600    -0.197280472295    -1.853854105011
    H            0.992427324760     0.905105459596    -0.564688372000
    C            2.570184851635    -1.158852271421    -0.477046563878
    H            2.701089337995    -1.339548419822    -1.541986449555
    H            3.101054196725    -0.246350037911    -0.216003083989
    H            3.003706797293    -1.982743768257     0.070742781727

  Mulliken Charges: (a.u.)
   Center  Symbol    Alpha    Beta     Spin     Total
       1     H     0.47285  0.47285  0.00000  0.05430
       2     C     3.02956  3.02956  0.00000 -0.05911
       3     O     4.17302  4.17302  0.00000 -0.34604
       4     H     0.44648  0.44648  0.00000  0.10705
       5     H     0.47033  0.47033  0.00000  0.05934
       6     C     2.96549  2.96549  0.00000  0.06902
       7     C     2.96537  2.96537  0.00000  0.06926
       8     H     0.46633  0.46633  0.00000  0.06734
       9     H     0.47596  0.47596  0.00000  0.04808
      10     O     4.17296  4.17296  0.00000 -0.34593
      11     H     0.47581  0.47581  0.00000  0.04838
      12     H     0.46680  0.46680  0.00000  0.06639
      13     C     3.02971  3.02971  0.00000 -0.05942
      14     H     0.47257  0.47257  0.00000  0.05486
      15     H     0.47030  0.47030  0.00000  0.05940
      16     H     0.44645  0.44645  0.00000  0.10709

   Total alpha = 25.00000, Total beta = 25.00000, Total charge = -0.00000

*** Psi4 exiting successfully. Buy a developer a beer!
