  ==> Input File <==

--------------------------------------------------------------------------
set {
	reference rhf
	basis 6-31G*
}

set_num_threads( 4 )
memory 2 gb

molecule MOL {
0 1

O	 1.846825	 1.296220	 0.000415
C	 1.705091	 0.115954	 0.001797
C	 0.381791	 -0.609817	 0.001258
O	 2.721346	 -0.737485	 -0.000216
C	 -0.823008	 0.326187	 0.001381
H	 0.371250	 -1.265087	 -0.865474
H	 0.370908	 -1.265746	 0.867490
C	 -0.419142	 1.792056	 0.166255
H	 -1.499705	 0.037880	 0.799597
H	 -1.375919	 0.197539	 -0.923847
C	 -1.615688	 2.745013	 0.169436
H	 0.137999	 1.913852	 1.094024
H	 0.261240	 2.074402	 -0.635769
C	 -1.211443	 4.209626	 0.332980
H	 -2.295088	 2.465883	 0.971710
H	 -2.172747	 2.625154	 -0.757093
H	 -0.681863	 4.368442	 1.268147
H	 -2.080786	 4.859774	 0.331133
H	 -0.558125	 4.528859	 -0.474223
C	 4.024888	 -0.184556	 -0.001949
H	 4.179030	 0.422472	 -0.882452
H	 4.701782	 -1.024608	 -0.003642
H	 4.181981	 0.421185	 0.878906

	symmetry c1
}
set optking {
	frozen_dihedral = ("
		9 5 3 6
	")
}

ee = optimize('scf')
oeprop('DIPOLE', 'QUADRUPOLE', 'MULLIKEN_CHARGES')
f=open( 'psi4out.xyz', 'w' )
f.write( "23  " )
f.write( str(ee) + "\n" )
f.write( MOL.save_string_xyz() )
f.close()
--------------------------------------------------------------------------

    Molecular point group: c1
  Charge       = 0
  Multiplicity = 1
  Basis Set: 6-31G*
  Basis Set:
  @DF-RHF Final Energy:  -422.93679222343485
    Total Energy =                       -422.9367922234341677
    Molecular point group: c1
  Basis Set: 6-31G*
  Basis Set:
  Basis Set: 6-31G*
  Basis Set:
  @DF-RHF Final Energy:  -422.95771592120951
    Total Energy =                       -422.9577159212087736
  Basis Set: 6-31G*
  Basis Set:
  Basis Set: 6-31G*
  Basis Set:
  @DF-RHF Final Energy:  -422.96160115750297
    Total Energy =                       -422.9616011575024004
  Basis Set: 6-31G*
  Basis Set:
  Basis Set: 6-31G*
  Basis Set:
  @DF-RHF Final Energy:  -422.95754771083074
    Total Energy =                       -422.9575477108311361
  Basis Set: 6-31G*
  Basis Set:
  @DF-RHF Final Energy:  -422.96342234765518
    Total Energy =                       -422.9634223476555235
  @DF-RHF Final Energy:  -422.96363934363444
    Total Energy =                       -422.9636393436350090
  @DF-RHF Final Energy:  -422.96361072894297
    Total Energy =                       -422.9636107289430811
  @DF-RHF Final Energy:  -422.96384544104518
    Total Energy =                       -422.9638454410456916
  @DF-RHF Final Energy:  -422.96425119118220
    Total Energy =                       -422.9642511911822567
  @DF-RHF Final Energy:  -422.96442419983975
    Total Energy =                       -422.9644241998403231
  @DF-RHF Final Energy:  -422.96480833876461
    Total Energy =                       -422.9648083387642146
  @DF-RHF Final Energy:  -422.96521699117716
    Total Energy =                       -422.9652169911777264
  @DF-RHF Final Energy:  -422.96548147511771
    Total Energy =                       -422.9654814751185086
  @DF-RHF Final Energy:  -422.96556732812212
    Total Energy =                       -422.9655673281215513
  @DF-RHF Final Energy:  -422.96576142809420
    Total Energy =                       -422.9657614280935150
  @DF-RHF Final Energy:  -422.96620215065985
    Total Energy =                       -422.9662021506601377
  @DF-RHF Final Energy:  -422.96656307005622
    Total Energy =                       -422.9665630700565089
  @DF-RHF Final Energy:  -422.96691014120250
    Total Energy =                       -422.9669101412029022
  @DF-RHF Final Energy:  -422.96702925366640
    Total Energy =                       -422.9670292536662828
  @DF-RHF Final Energy:  -422.96698926083832
    Total Energy =                       -422.9669892608382042
  Basis Set: 6-31G*
  Basis Set:
  @DF-RHF Final Energy:  -422.96707401162752
    Total Energy =                       -422.9670740116282559
  Basis Set: 6-31G*
  Basis Set:
  Basis Set: 6-31G*
  Basis Set:
  @DF-RHF Final Energy:  -422.96709000175468
    Total Energy =                       -422.9670900017542863
  Basis Set: 6-31G*
  Basis Set:
  Basis Set: 6-31G*
  Basis Set:
  @DF-RHF Final Energy:  -422.96709260923620
    Total Energy =                       -422.9670926092354648
  Basis Set: 6-31G*
  Basis Set:
  Charge       = 0
  Multiplicity = 1
  Basis Set: 6-31G*
  Basis Set:

    Orbital Energies (a.u.)
    -----------------------

    Doubly Occupied:

       1A    -20.604787     2A    -20.542334     3A    -11.370838
       4A    -11.280435     5A    -11.233758     6A    -11.230471
       7A    -11.218538     8A    -11.217463     9A    -11.210284
      10A     -1.468706    11A     -1.360789    12A     -1.092692
      13A     -1.041732    14A     -0.983218    15A     -0.935779
      16A     -0.847984    17A     -0.801733    18A     -0.767955
      19A     -0.687555    20A     -0.677885    21A     -0.673078
      22A     -0.651041    23A     -0.606008    24A     -0.598711
      25A     -0.577404    26A     -0.568775    27A     -0.545473
      28A     -0.532596    29A     -0.524444    30A     -0.508500
      31A     -0.488039    32A     -0.473665    33A     -0.467550
      34A     -0.457298    35A     -0.450627    36A     -0.430857

  @DF-RHF Final Energy:  -422.96709290060534

   => Energetics <=

    Nuclear Repulsion Energy =            471.5042756419571219
    One-Electron Energy =               -1510.6847346433705752
    Two-Electron Energy =                 616.2133661008083436
    DFT Exchange-Correlation Energy =       0.0000000000000000
    Empirical Dispersion Energy =           0.0000000000000000
    PCM Polarization Energy =               0.0000000000000000
    EFP Energy =                            0.0000000000000000
    Total Energy =                       -422.9670929006051665
    Molecular point group: c1
  Basis Set: 6-31G*
  Basis Set:

  -Total Gradient:
     Atom            X                  Y                   Z
    ------   -----------------  -----------------  -----------------
       1       -0.000014695793    -0.000006480060     0.000006108491
       2        0.000003237213     0.000018037265    -0.000035822046
       3       -0.001066077698    -0.001517091594     0.001580432530
       4        0.000017839990    -0.000007296764     0.000035128436
       5       -0.001301823704    -0.000837967488    -0.001757484463
       6        0.001112279945     0.001390325691    -0.001055257389
       7       -0.000004593878    -0.000002821157    -0.000001539892
       8        0.000002098598    -0.000006985604    -0.000016334025
       9        0.001276600454     0.000968221141     0.001254385100
      10        0.000006296271     0.000005117452     0.000004068102
      11       -0.000005171308     0.000006012876     0.000000111798
      12       -0.000003223336    -0.000007187012    -0.000006597399
      13        0.000003782131     0.000001959537    -0.000000864238
      14        0.000002416392    -0.000003572513     0.000002944281
      15        0.000002593355    -0.000000064947     0.000000544634
      16       -0.000003561818    -0.000000051873    -0.000001043583
      17       -0.000000342792     0.000002986718     0.000001816769
      18       -0.000000770426    -0.000001274068    -0.000001924372
      19        0.000001089061    -0.000002862409     0.000001467770
      20       -0.000022765173     0.000012966070    -0.000007998926
      21       -0.000001043545    -0.000005969479    -0.000003421083
      22       -0.000006487060    -0.000006010169     0.000000574339
      23        0.000002323115     0.000000008385     0.000000705167

  **** Optimization is complete! (in 24 steps) ****
    Final optimized geometry and variables:
    Molecular point group: c1

    Geometry (in Angstrom), charge = 0, multiplicity = 1:

    O            1.357668751391    -0.777831527956    -1.584455922959
    C            0.902978645697    -1.138914215280    -0.546056396921
    C           -0.489963578876    -1.694384633287    -0.364908273059
    O            1.578443822275    -1.090333628306     0.594955153008
    C           -1.578517887329    -0.613557806812    -0.090853845807
    H           -0.717010010932    -2.213586755602    -1.286453151569
    H           -0.465271110426    -2.415218948862     0.441309715217
    C           -1.073063543544     0.804621288094     0.197877338264
    H           -2.167940632749    -0.938660106684     0.760258196305
    H           -2.250907698696    -0.575957551555    -0.940876544342
    C           -2.218532880133     1.783744310765     0.462179376062
    H           -0.410468146990     0.788358096556     1.059646262634
    H           -0.484855196866     1.162754820349    -0.642893972766
    C           -1.730539741938     3.202910132774     0.750912793876
    H           -2.811709193783     1.428385007542     1.302139395760
    H           -2.884656544046     1.799579666716    -0.397692077360
    H           -1.089327307226     3.226257724871     1.627527204900
    H           -2.563344372845     3.875110851730     0.932560475232
    H           -1.161466004102     3.599081452966    -0.085125413461
    C            2.891447107613    -0.562686930953     0.540754774539
    H            3.510295810396    -1.152831213117    -0.119517310816
    H            3.270104640516    -0.609113360782     1.549929742811
    H            2.875510545294     0.460197625460     0.192917526815

  Mulliken Charges: (a.u.)
   Center  Symbol    Alpha    Beta     Spin     Total
       1     O     4.28529  4.28529  0.00000 -0.57059
       2     C     2.61904  2.61904  0.00000  0.76192
       3     C     3.19775  3.19775  0.00000 -0.39550
       4     O     4.30209  4.30209  0.00000 -0.60418
       5     C     3.15502  3.15502  0.00000 -0.31003
       6     H     0.39811  0.39811  0.00000  0.20377
       7     H     0.40174  0.40174  0.00000  0.19651
       8     C     3.17054  3.17054  0.00000 -0.34107
       9     H     0.41540  0.41540  0.00000  0.16921
      10     H     0.41286  0.41286  0.00000  0.17428
      11     C     3.15163  3.15163  0.00000 -0.30326
      12     H     0.41559  0.41559  0.00000  0.16883
      13     H     0.41115  0.41115  0.00000  0.17769
      14     C     3.23974  3.23974  0.00000 -0.47948
      15     H     0.42287  0.42287  0.00000  0.15426
      16     H     0.42161  0.42161  0.00000  0.15678
      17     H     0.42171  0.42171  0.00000  0.15657
      18     H     0.41869  0.41869  0.00000  0.16263
      19     H     0.41987  0.41987  0.00000  0.16026
      20     C     3.09295  3.09295  0.00000 -0.18589
      21     H     0.40824  0.40824  0.00000  0.18351
      22     H     0.40889  0.40889  0.00000  0.18222
      23     H     0.40923  0.40923  0.00000  0.18154

   Total alpha = 36.00000, Total beta = 36.00000, Total charge =  0.00000
