  ==> Input File <==

--------------------------------------------------------------------------
set {
	reference rhf
	basis cc-pvtz
}

set_num_threads( 4 )
memory 2 gb

molecule MOL {
0 1

H	 -2.149496	 -2.244167	 0.000000
O	 -2.454378	 -1.354528	 0.000000
C	 -1.430628	 -0.482077	 0.000000
C	 -0.252377	 -0.878864	 -0.615594
C	 -1.517969	 0.765390	 0.580877
H	 -0.204556	 -1.852535	 -1.061359
C	 0.827856	 -0.026809	 -0.645709
H	 -2.423351	 1.085155	 1.060441
C	 -0.419014	 1.612975	 0.541788
H	 1.735071	 -0.341275	 -1.123631
C	 0.758401	 1.228982	 -0.067872
C	 -0.519183	 2.916377	 1.152048
H	 1.597510	 1.894104	 -0.089833
N	 -0.600954	 3.934878	 1.630226

	symmetry c1
}
set optking {
	frozen_dihedral = ("
		5 3 2 1
	")
}

ee = optimize('scf')
oeprop('DIPOLE', 'QUADRUPOLE', 'MULLIKEN_CHARGES')
f=open( 'psi4out.xyz', 'w' )
f.write( "14  " )
f.write( str(ee) + "\n" )
f.write( MOL.save_string_xyz() )
f.close()
--------------------------------------------------------------------------

    Molecular point group: c1
  Charge       = 0
  Multiplicity = 1
  Basis Set: CC-PVTZ
  Basis Set:
  @DF-RHF Final Energy:  -397.42951111154787
    Total Energy =                       -397.4295111115478676
    Molecular point group: c1
  Basis Set: CC-PVTZ
  Basis Set:
  Basis Set: CC-PVTZ
  Basis Set:
  @DF-RHF Final Energy:  -397.09242694884472
    Total Energy =                       -397.0924269488444907
  Basis Set: CC-PVTZ
  Basis Set:
  Basis Set: CC-PVTZ
  Basis Set:
  @DF-RHF Final Energy:  -397.13026937862173
    Total Energy =                       -397.1302693786217333
  Basis Set: CC-PVTZ
  Basis Set:
  Basis Set: CC-PVTZ
  Basis Set:
  @DF-RHF Final Energy:  -397.37157835669490
    Total Energy =                       -397.3715783566948403
  Basis Set: CC-PVTZ
  Basis Set:
  @DF-RHF Final Energy:  -396.97899238302205
    Total Energy =                       -396.9789923830220459
  @DF-RHF Final Energy:  -397.31644471623122
    Total Energy =                       -397.3164447162309898
  @DF-RHF Final Energy:  -397.25738333693641
    Total Energy =                       -397.2573833369366412
  @DF-RHF Final Energy:  -397.42461602985088
    Total Energy =                       -397.4246160298507675
  @DF-RHF Final Energy:  -397.43054741211057
    Total Energy =                       -397.4305474121100588
  @DF-RHF Final Energy:  -397.32861529775101
    Total Energy =                       -397.3286152977507300
  @DF-RHF Final Energy:  -397.42692401399046
    Total Energy =                       -397.4269240139904014
  @DF-RHF Final Energy:  -397.43125784479201
    Total Energy =                       -397.4312578447919577
  @DF-RHF Final Energy:  -397.43098083585971
    Total Energy =                       -397.4309808358597138
  @DF-RHF Final Energy:  -397.43142226161592
    Total Energy =                       -397.4314222616156940
  @DF-RHF Final Energy:  -397.43138708333527
    Total Energy =                       -397.4313870833350393
  @DF-RHF Final Energy:  -397.43082248163176
    Total Energy =                       -397.4308224816315942
  @DF-RHF Final Energy:  -397.43143717307504
    Total Energy =                       -397.4314371730748690
  @DF-RHF Final Energy:  -397.43020537238192
    Total Energy =                       -397.4302053723818062
  @DF-RHF Final Energy:  -397.43037154453600
    Total Energy =                       -397.4303715445361149
  @DF-RHF Final Energy:  -397.43130050149637
    Total Energy =                       -397.4313005014964801
  @DF-RHF Final Energy:  -397.43150165376966
    Total Energy =                       -397.4315016537696010
  @DF-RHF Final Energy:  -397.43146645123443
    Total Energy =                       -397.4314664512339732
  @DF-RHF Final Energy:  -397.43151523763515
    Total Energy =                       -397.4315152376353808
  @DF-RHF Final Energy:  -397.43152678303011
    Total Energy =                       -397.4315267830299945
  @DF-RHF Final Energy:  -397.43152425568019
    Total Energy =                       -397.4315242556800740
  @DF-RHF Final Energy:  -397.43149963074171
    Total Energy =                       -397.4314996307413139
  @DF-RHF Final Energy:  -397.43149785947492
    Total Energy =                       -397.4314978594748027
  @DF-RHF Final Energy:  -397.43129101290185
    Total Energy =                       -397.4312910129019656
  @DF-RHF Final Energy:  -397.43126014664699
    Total Energy =                       -397.4312601466468777
  @DF-RHF Final Energy:  -397.43122735428358
    Total Energy =                       -397.4312273542841467
  @DF-RHF Final Energy:  -397.43119110584462
    Total Energy =                       -397.4311911058448459
  @DF-RHF Final Energy:  -397.43115916512249
    Total Energy =                       -397.4311591651227218
  @DF-RHF Final Energy:  -397.43113752126857
    Total Energy =                       -397.4311375212686244
  @DF-RHF Final Energy:  -397.43109860300467
    Total Energy =                       -397.4310986030052391
  @DF-RHF Final Energy:  -397.43103852177319
    Total Energy =                       -397.4310385217734165
  @DF-RHF Final Energy:  -397.43096393439174
    Total Energy =                       -397.4309639343919116
  Basis Set: CC-PVTZ
  Basis Set:
  @DF-RHF Final Energy:  -397.43087262092968
    Total Energy =                       -397.4308726209295628
  Basis Set: CC-PVTZ
  Basis Set:
  Basis Set: CC-PVTZ
  Basis Set:
  @DF-RHF Final Energy:  -397.43090420213628
    Total Energy =                       -397.4309042021365030
  Basis Set: CC-PVTZ
  Basis Set:
  Basis Set: CC-PVTZ
  Basis Set:
  @DF-RHF Final Energy:  -397.43126568535445
    Total Energy =                       -397.4312656853542194
  Basis Set: CC-PVTZ
  Basis Set:
  Charge       = 0
  Multiplicity = 1
  Basis Set: CC-PVTZ
  Basis Set:

    Orbital Energies (a.u.)
    -----------------------

    Doubly Occupied:

       1A    -20.603251     2A    -15.564306     3A    -11.322923
       4A    -11.291509     5A    -11.267668     6A    -11.261975
       7A    -11.257451     8A    -11.257004     9A    -11.256659
      10A     -1.434881    11A     -1.235948    12A     -1.186837
      13A     -1.066465    14A     -1.043405    15A     -0.901332
      16A     -0.862018    17A     -0.797159    18A     -0.717475
      19A     -0.695083    20A     -0.679181    21A     -0.635316
      22A     -0.624121    23A     -0.586338    24A     -0.567373
      25A     -0.550864    26A     -0.545657    27A     -0.523744
      28A     -0.480217    29A     -0.477072    30A     -0.367351
      31A     -0.345141

  @DF-RHF Final Energy:  -397.43150162457687

   => Energetics <=

    Nuclear Repulsion Energy =            380.3235085480599764
    One-Electron Energy =               -1292.6985728083873255
    Two-Electron Energy =                 514.9435626357505953
    DFT Exchange-Correlation Energy =       0.0000000000000000
    Empirical Dispersion Energy =           0.0000000000000000
    PCM Polarization Energy =               0.0000000000000000
    EFP Energy =                            0.0000000000000000
    Total Energy =                       -397.4315016245767538
    Molecular point group: c1
  Basis Set: CC-PVTZ
  Basis Set:

  -Total Gradient:
     Atom            X                  Y                   Z
    ------   -----------------  -----------------  -----------------
       1        0.000007311690    -0.000099601638     0.002301653584
       2        0.000591003088    -0.000570354204    -0.002348195331
       3       -0.000779925753     0.001390675486    -0.001984941307
       4       -0.000594483317    -0.000417957999     0.000171668031
       5        0.000371999921     0.000157581636     0.002009779283
       6       -0.000013053139     0.000104817702     0.000247134296
       7        0.000386873208    -0.000017787190    -0.000322672184
       8        0.000549643639    -0.000151232473    -0.000171706800
       9       -0.000719877566    -0.000757945808     0.000387347909
      10        0.000310940845     0.000029252660    -0.000079731649
      11       -0.000070076918     0.000282773050     0.000407998823
      12        0.000016718222    -0.003891817049    -0.003294352792
      13       -0.000079496714    -0.000252391807    -0.000172496070
      14        0.000022422791     0.004193987625     0.002848514209

    Molecular point group: c1

    Geometry (in Angstrom), charge = 0, multiplicity = 1:

    H           -1.582000117867    -2.986418855139    -0.252505555135
    O           -1.826167958329    -2.078210865715    -0.254731719938
    C           -0.739317327077    -1.278930489620    -0.299232710941
    C            0.436585383060    -1.661984324234    -0.919164397743
    C           -0.830512405488    -0.038744591659     0.301872417869
    H            0.503614298815    -2.626370509095    -1.387699061363
    C            1.517197358957    -0.801568910461    -0.943421619427
    H           -1.740639455896     0.246838372950     0.789898641327
    C            0.256190579477     0.816313599540     0.258877012732
    H            2.424001042263    -1.107928562844    -1.426981187417
    C            1.438887553513     0.445222023358    -0.360815215664
    C            0.160556554027     2.114366403551     0.882074159691
    H            2.271537487148     1.118757324094    -0.380339667331
    N            0.031646707415     3.106585529093     1.407588018993

  Mulliken Charges: (a.u.)
   Center  Symbol    Alpha    Beta     Spin     Total
       1     H     0.38401  0.38401  0.00000  0.23199
       2     O     4.17394  4.17394  0.00000 -0.34787
       3     C     2.84855  2.84855  0.00000  0.30291
       4     C     3.12550  3.12550  0.00000 -0.25101
       5     C     3.12193  3.12193  0.00000 -0.24386
       6     H     0.42478  0.42478  0.00000  0.15045
       7     C     3.05776  3.05776  0.00000 -0.11552
       8     H     0.40832  0.40832  0.00000  0.18336
       9     C     2.92243  2.92243  0.00000  0.15514
      10     H     0.41664  0.41664  0.00000  0.16671
      11     C     3.10323  3.10323  0.00000 -0.20646
      12     C     3.02391  3.02391  0.00000 -0.04781
      13     H     0.41427  0.41427  0.00000  0.17146
      14     N     3.57474  3.57474  0.00000 -0.14948

   Total alpha = 31.00000, Total beta = 31.00000, Total charge =  0.00000
