  ==> Input File <==

--------------------------------------------------------------------------
set {
	reference rhf
	basis 6-31G*
}

set_num_threads( 4 )
memory 2 gb

molecule MOL {
0 1

H	 2.597547	 -0.628912	 -1.034320
N	 2.434251	 -0.367735	 -0.081097
C	 1.267428	 0.496480	 0.024474
H	 3.256447	 0.112553	 0.232323
C	 -0.016086	 -0.325158	 -0.029487
H	 1.288818	 1.183521	 -0.816092
H	 1.267576	 1.109062	 0.929528
C	 -1.282277	 0.529072	 0.046735
H	 -0.012495	 -0.908639	 -0.945788
H	 -0.015903	 -1.041248	 0.791956
C	 -2.563920	 -0.301775	 -0.006060
H	 -1.284084	 1.244622	 -0.773004
H	 -1.271387	 1.115393	 0.963286
H	 -2.621848	 -0.873522	 -0.927727
H	 -3.445135	 0.329952	 0.047812
H	 -2.609542	 -1.004582	 0.821105

	symmetry c1
}
set optking {
	frozen_dihedral = ("
		1 2 3 6
	")
}

ee = optimize('scf')
oeprop('DIPOLE', 'QUADRUPOLE', 'MULLIKEN_CHARGES')
f=open( 'psi4out.xyz', 'w' )
f.write( "16  " )
f.write( str(ee) + "\n" )
f.write( MOL.save_string_xyz() )
f.close()
--------------------------------------------------------------------------

    Molecular point group: c1
  Charge       = 0
  Multiplicity = 1
  Basis Set: 6-31G*
  Basis Set:
  @DF-RHF Final Energy:  -212.31430398130956
    Total Energy =                       -212.3143039813095356
    Molecular point group: c1
  Basis Set: 6-31G*
  Basis Set:
  Basis Set: 6-31G*
  Basis Set:
  @DF-RHF Final Energy:  -212.31602205254626
    Total Energy =                       -212.3160220525462591
  Basis Set: 6-31G*
  Basis Set:
  Basis Set: 6-31G*
  Basis Set:
  @DF-RHF Final Energy:  -212.31631408977870
    Total Energy =                       -212.3163140897785297
  Basis Set: 6-31G*
  Basis Set:
  Basis Set: 6-31G*
  Basis Set:
  @DF-RHF Final Energy:  -212.31631841659538
    Total Energy =                       -212.3163184165953794
  Basis Set: 6-31G*
  Basis Set:
  Basis Set: 6-31G*
  Basis Set:
  @DF-RHF Final Energy:  -212.31632394002963
    Total Energy =                       -212.3163239400297471
  Basis Set: 6-31G*
  Basis Set:
  Charge       = 0
  Multiplicity = 1
  Basis Set: 6-31G*
  Basis Set:

    Orbital Energies (a.u.)
    -----------------------

    Doubly Occupied:

       1A    -15.533311     2A    -11.240413     3A    -11.213613
       4A    -11.206837     5A    -11.206540     6A     -1.176435
       7A     -1.058229     8A     -0.958120     9A     -0.842891
      10A     -0.789289    11A     -0.669357    12A     -0.629955
      13A     -0.607796    14A     -0.575221    15A     -0.558959
      16A     -0.527814    17A     -0.495734    18A     -0.470184
      19A     -0.464682    20A     -0.460815    21A     -0.381649

  @DF-RHF Final Energy:  -212.31632462949830

   => Energetics <=

    Nuclear Repulsion Energy =            186.0908710254843186
    One-Electron Energy =                -654.6787078719578403
    Two-Electron Energy =                 256.2715122169755091
    DFT Exchange-Correlation Energy =       0.0000000000000000
    Empirical Dispersion Energy =           0.0000000000000000
    PCM Polarization Energy =               0.0000000000000000
    EFP Energy =                            0.0000000000000000
    Total Energy =                       -212.3163246294980127
    Molecular point group: c1
  Basis Set: 6-31G*
  Basis Set:

  -Total Gradient:
     Atom            X                  Y                   Z
    ------   -----------------  -----------------  -----------------
       1        0.001399123898     0.001963915376    -0.000214647124
       2       -0.002092580588    -0.002824543185    -0.000094514054
       3        0.001833180849     0.002303248936     0.001570181571
       4        0.000033686038    -0.000007969859     0.000008318702
       5        0.000007805985     0.000034936505     0.000002236692
       6       -0.001168519632    -0.001477100663    -0.001278228924
       7       -0.000016660282    -0.000002532398     0.000008173570
       8       -0.000007871517    -0.000000144134    -0.000034090089
       9        0.000012336911     0.000023451845     0.000009994874
      10        0.000004209554    -0.000009650065     0.000014127680
      11       -0.000005522062     0.000003122323     0.000022182998
      12        0.000004000360     0.000001776791    -0.000006741336
      13       -0.000001151455    -0.000006630745    -0.000010239944
      14        0.000000116218     0.000009769642    -0.000003228337
      15       -0.000002375642    -0.000002638343     0.000010323471
      16        0.000000221364    -0.000009012026    -0.000003849751

  **** Optimization is complete! (in 6 steps) ****
    Final optimized geometry and variables:
    Molecular point group: c1

    Geometry (in Angstrom), charge = 0, multiplicity = 1:

    H            2.628051587604    -0.627658673691    -0.996811089702
    N            2.435473039817    -0.375833209058    -0.046082803150
    C            1.266524055473     0.494009529076     0.024196487759
    H            3.250112166568     0.106020919794     0.282464732864
    C           -0.018485091397    -0.328172153001    -0.014759127341
    H            1.237899099248     1.229408744324    -0.782466288099
    H            1.312126536408     1.045894226588     0.957590043970
    C           -1.284378641012     0.526804922128     0.056952593889
    H           -0.032262482797    -0.919594729930    -0.929309267838
    H            0.002646003478    -1.037623185477     0.807479589051
    C           -2.566609714462    -0.304252520308     0.022750918263
    H           -1.293327823406     1.235137851808    -0.769235856890
    H           -1.266960147376     1.122193543923     0.967820683813
    H           -2.632929570516    -0.884153421632    -0.893489903131
    H           -3.447600808383     0.327762152970     0.078793643353
    H           -2.604197569408    -0.999919727438     0.856069222511

  Mulliken Charges: (a.u.)
   Center  Symbol    Alpha    Beta     Spin     Total
       1     H     0.33463  0.33463  0.00000  0.33074
       2     N     3.92103  3.92103  0.00000 -0.84205
       3     C     3.06535  3.06535  0.00000 -0.13069
       4     H     0.33249  0.33249  0.00000  0.33503
       5     C     3.14454  3.14454  0.00000 -0.28907
       6     H     0.43310  0.43310  0.00000  0.13380
       7     H     0.42160  0.42160  0.00000  0.15680
       8     C     3.15641  3.15641  0.00000 -0.31282
       9     H     0.42686  0.42686  0.00000  0.14628
      10     H     0.41496  0.41496  0.00000  0.17008
      11     C     3.23832  3.23832  0.00000 -0.47664
      12     H     0.42445  0.42445  0.00000  0.15109
      13     H     0.42360  0.42360  0.00000  0.15281
      14     H     0.42189  0.42189  0.00000  0.15622
      15     H     0.42007  0.42007  0.00000  0.15987
      16     H     0.42072  0.42072  0.00000  0.15857

   Total alpha = 21.00000, Total beta = 21.00000, Total charge = -0.00000
