  ==> Input File <==

--------------------------------------------------------------------------
set {
	reference rhf
	basis cc-pvtz
}

set_num_threads( 4 )
memory 2 gb

molecule MOL {
0 1

O	 -1.278239	 1.034789	 -0.784693
C	 -1.204115	 0.062668	 -0.112312
C	 -2.386398	 -0.667698	 0.460323
O	 -0.068058	 -0.518372	 0.226882
H	 -2.382952	 -1.693172	 0.114333
H	 -3.296656	 -0.175702	 0.158400
H	 -2.312537	 -0.685191	 1.540100
C	 1.169086	 0.037484	 -0.230612
C	 1.501423	 1.171222	 0.718758
C	 1.028272	 0.492115	 -1.672170
H	 1.922446	 -0.732842	 -0.166302
H	 1.587521	 0.806926	 1.734447
H	 2.443198	 1.626809	 0.437312
H	 0.730902	 1.932503	 0.692566
H	 1.960548	 0.924445	 -2.016337
H	 0.784822	 -0.341670	 -2.315741
H	 0.250929	 1.242704	 -1.759570

	symmetry c1
}
set optking {
	frozen_dihedral = ("
		11 8 4 2
	")
}

ee = optimize('scf')
oeprop('DIPOLE', 'QUADRUPOLE', 'MULLIKEN_CHARGES')
f=open( 'psi4out.xyz', 'w' )
f.write( "17  " )
f.write( str(ee) + "\n" )
f.write( MOL.save_string_xyz() )
f.close()
--------------------------------------------------------------------------

    Molecular point group: c1
  Charge       = 0
  Multiplicity = 1
  Basis Set: CC-PVTZ
  Basis Set:
  @DF-RHF Final Energy:  -345.02100081880258
    Total Energy =                       -345.0210008188024631
    Molecular point group: c1
  Basis Set: CC-PVTZ
  Basis Set:
  Basis Set: CC-PVTZ
  Basis Set:
  @DF-RHF Final Energy:  -345.03411177699149
    Total Energy =                       -345.0341117769910397
  Basis Set: CC-PVTZ
  Basis Set:
  Basis Set: CC-PVTZ
  Basis Set:
  @DF-RHF Final Energy:  -345.03644401160710
    Total Energy =                       -345.0364440116079550
  Basis Set: CC-PVTZ
  Basis Set:
  Basis Set: CC-PVTZ
  Basis Set:
  @DF-RHF Final Energy:  -345.03556542403334
    Total Energy =                       -345.0355654240330523
  Basis Set: CC-PVTZ
  Basis Set:
  @DF-RHF Final Energy:  -345.03683998170675
    Total Energy =                       -345.0368399817068621
  @DF-RHF Final Energy:  -345.03699127125674
    Total Energy =                       -345.0369912712562837
  Basis Set: CC-PVTZ
  Basis Set:
  @DF-RHF Final Energy:  -345.03699661880506
    Total Energy =                       -345.0369966188048920
  Basis Set: CC-PVTZ
  Basis Set:
  Basis Set: CC-PVTZ
  Basis Set:
  @DF-RHF Final Energy:  -345.03699796399889
    Total Energy =                       -345.0369979639983740
  Basis Set: CC-PVTZ
  Basis Set:
  Basis Set: CC-PVTZ
  Basis Set:
  @DF-RHF Final Energy:  -345.03699980694921
    Total Energy =                       -345.0369998069490407
  Basis Set: CC-PVTZ
  Basis Set:
  Charge       = 0
  Multiplicity = 1
  Basis Set: CC-PVTZ
  Basis Set:

    Orbital Energies (a.u.)
    -----------------------

    Doubly Occupied:

       1A    -20.589006     2A    -20.529494     3A    -11.366493
       4A    -11.292823     5A    -11.228928     6A    -11.214586
       7A    -11.211592     8A     -1.464662     9A     -1.363512
      10A     -1.077584    11A     -1.003582    12A     -0.946764
      13A     -0.868471    14A     -0.732928    15A     -0.696836
      16A     -0.673492    17A     -0.662478    18A     -0.616956
      19A     -0.585482    20A     -0.580912    21A     -0.569975
      22A     -0.552136    23A     -0.529982    24A     -0.519884
      25A     -0.501263    26A     -0.483116    27A     -0.448177
      28A     -0.431355

  @DF-RHF Final Energy:  -345.03700071364437

   => Energetics <=

    Nuclear Repulsion Energy =            326.9092672867830061
    One-Electron Energy =               -1118.4075939796794046
    Two-Electron Energy =                 446.4613259792514555
    DFT Exchange-Correlation Energy =       0.0000000000000000
    Empirical Dispersion Energy =           0.0000000000000000
    PCM Polarization Energy =               0.0000000000000000
    EFP Energy =                            0.0000000000000000
    Total Energy =                       -345.0370007136449431
    Molecular point group: c1
  Basis Set: CC-PVTZ
  Basis Set:

  -Total Gradient:
     Atom            X                  Y                   Z
    ------   -----------------  -----------------  -----------------
       1       -0.000005136880    -0.000025663771     0.000043658117
       2       -0.000283499987    -0.002421409046    -0.003527315134
       3       -0.000019125299    -0.000003306320     0.000009892481
       4        0.000338979798     0.003557662072     0.004566545708
       5        0.000002167829    -0.000003175448     0.000009386399
       6       -0.000005183668    -0.000010179305     0.000005984394
       7       -0.000003590250    -0.000000594982     0.000009740270
       8        0.000918288101     0.000215433503     0.003029857120
       9        0.000071267426    -0.000004527793     0.000049210751
      10       -0.000026357043    -0.000033158280    -0.000034603130
      11       -0.001006455764    -0.001289689276    -0.004142176458
      12       -0.000004924923     0.000002526495     0.000003721173
      13       -0.000027939692    -0.000004536520     0.000015142643
      14       -0.000016875584     0.000009958129    -0.000012409360
      15        0.000029077470     0.000004563507    -0.000013795649
      16        0.000019974397    -0.000001903970     0.000001190358
      17        0.000019334065     0.000008001004    -0.000014029682

  **** Optimization is complete! (in 10 steps) ****
    Final optimized geometry and variables:
    Molecular point group: c1

    Geometry (in Angstrom), charge = 0, multiplicity = 1:

    O           -1.250392233685     0.864994401507    -0.408429019505
    C           -1.083542822886    -0.173592426135     0.135389711362
    C           -2.198182529688    -1.061873111701     0.616957722628
    O            0.093215108625    -0.698130448376     0.416681054597
    H           -2.151211131310    -2.012256831877     0.100571404140
    H           -3.146842832776    -0.585617676594     0.429603756338
    H           -2.078852899989    -1.257128490177     1.674569001309
    C            1.335965738223    -0.154872843316    -0.055439608855
    C            1.788240482565     0.977175701953     0.847266735114
    C            1.331333432848     0.209443994881    -1.534213307720
    H            1.997754062182    -1.003161395045     0.047653478596
    H            1.810325073491     0.653729174481     1.880395256387
    H            2.786263971244     1.294236362135     0.568138642093
    H            1.122207564495     1.825349794629     0.760749770858
    H            2.360616830341     0.331194110796    -1.852897708581
    H            0.895629909007    -0.589552546679    -2.122316316449
    H            0.792944381567     1.120598945811    -1.736039997285

  Mulliken Charges: (a.u.)
   Center  Symbol    Alpha    Beta     Spin     Total
       1     O     4.20123  4.20123  0.00000 -0.40247
       2     C     2.80201  2.80201  0.00000  0.39598
       3     C     3.13725  3.13725  0.00000 -0.27450
       4     O     4.16363  4.16363  0.00000 -0.32726
       5     H     0.44705  0.44705  0.00000  0.10590
       6     H     0.43891  0.43891  0.00000  0.12217
       7     H     0.44505  0.44505  0.00000  0.10990
       8     C     2.93747  2.93747  0.00000  0.12506
       9     C     3.15377  3.15377  0.00000 -0.30753
      10     C     3.16119  3.16119  0.00000 -0.32238
      11     H     0.44039  0.44039  0.00000  0.11923
      12     H     0.44712  0.44712  0.00000  0.10576
      13     H     0.45121  0.45121  0.00000  0.09758
      14     H     0.44133  0.44133  0.00000  0.11735
      15     H     0.44996  0.44996  0.00000  0.10007
      16     H     0.44885  0.44885  0.00000  0.10230
      17     H     0.43357  0.43357  0.00000  0.13285

   Total alpha = 28.00000, Total beta = 28.00000, Total charge = -0.00000
