  ==> Input File <==

--------------------------------------------------------------------------
set {
	reference rhf
	basis 6-31G*
}

set_num_threads( 1 )
memory 2 gb

molecule MOL {
0 1

H	 0.771321	 4.436122	 1.562904
N	 -0.045077	 3.862582	 1.472948
C	 0.268128	 2.625341	 0.772475
H	 -0.718747	 4.396878	 0.957656
C	 -0.952676	 1.712687	 0.722942
H	 1.064442	 2.129568	 1.319239
H	 0.639836	 2.788894	 -0.242160
C	 -0.679275	 0.379305	 0.025956
H	 -1.294562	 1.541745	 1.739666
H	 -1.762337	 2.229087	 0.208047
C	 -1.903357	 -0.536963	 -0.023547
H	 0.131825	 -0.135939	 0.538293
H	 -0.329671	 0.563404	 -0.988801
C	 -3.225172	 0.228290	 0.028445
H	 -1.867824	 -1.134999	 -0.931459
H	 -1.860449	 -1.239604	 0.805977
H	 -3.313397	 0.915643	 -0.808262
H	 -4.073500	 -0.448134	 -0.008893
H	 -3.306061	 0.809945	 0.942516

	symmetry c1
}
set optking {
	frozen_dihedral = ("
		6 3 5 9,
		12 8 5 9,
		1 2 3 6
	")
}

ee = energy('scf')
oeprop('DIPOLE', 'QUADRUPOLE', 'MULLIKEN_CHARGES')
f=open( 'psi4out.xyz', 'w' )
f.write( "19  " )
f.write( str(ee) + "\n" )
f.write( MOL.save_string_xyz() )
f.close()
--------------------------------------------------------------------------

    Molecular point group: c1

    Geometry (in Angstrom), charge = 0, multiplicity = 1:

       Center              X                  Y                   Z               Mass
    ------------   -----------------  -----------------  -----------------  -----------------
           H          1.857175428811     3.012820131075     1.056896965799     1.007825032070
           N          1.040777428811     2.439280131075     0.966940965799    14.003074004780
           C          1.353982428811     1.202039131075     0.266467965799    12.000000000000
           H          0.367107428811     2.973576131075     0.451648965799     1.007825032070
           C          0.133178428811     0.289385131075     0.216934965799    12.000000000000
           H          2.150296428811     0.706266131075     0.813231965799     1.007825032070
           H          1.725690428811     1.365592131075    -0.748167034201     1.007825032070
           C          0.406579428811    -1.043996868925    -0.480051034201    12.000000000000
           H         -0.208707571189     0.118443131075     1.233658965799     1.007825032070
           H         -0.676482571189     0.805785131075    -0.297960034201     1.007825032070
           C         -0.817502571189    -1.960264868925    -0.529554034201    12.000000000000
           H          1.217679428811    -1.559240868925     0.032285965799     1.007825032070
           H          0.756183428811    -0.859897868925    -1.494808034201     1.007825032070
           C         -2.139317571189    -1.195011868925    -0.477562034201    12.000000000000
           H         -0.781969571189    -2.558300868925    -1.437466034201     1.007825032070
           H         -0.774594571189    -2.662905868925     0.299969965799     1.007825032070
           H         -2.227542571189    -0.507658868925    -1.314269034201     1.007825032070
           H         -2.987645571189    -1.871435868925    -0.514900034201     1.007825032070
           H         -2.220206571189    -0.613356868925     0.436508965799     1.007825032070

  Charge       = 0
  Multiplicity = 1
  Basis Set: 6-31G*
  Basis Set:

    Orbital Energies (a.u.)
    -----------------------

    Doubly Occupied:

       1A    -15.532045     2A    -11.238791     3A    -11.212962
       4A    -11.211726     5A    -11.208089     6A    -11.205440
       7A     -1.176120     8A     -1.076001     9A     -0.990557
      10A     -0.905271    11A     -0.828593    12A     -0.768229
      13A     -0.665424    14A     -0.637089    15A     -0.615221
      16A     -0.604471    17A     -0.566920    18A     -0.542507
      19A     -0.524822    20A     -0.506194    21A     -0.484894
      22A     -0.457605    23A     -0.453094    24A     -0.447546
      25A     -0.380642

  @DF-RHF Final Energy:  -251.34236928228950

   => Energetics <=

    Nuclear Repulsion Energy =            251.8042549427806307
    One-Electron Energy =                -837.8127188936623497
    Two-Electron Energy =                 334.6660946685926206
    DFT Exchange-Correlation Energy =       0.0000000000000000
    Empirical Dispersion Energy =           0.0000000000000000
    PCM Polarization Energy =               0.0000000000000000
    EFP Energy =                            0.0000000000000000
    Total Energy =                       -251.3423692822890985

  Mulliken Charges: (a.u.)
   Center  Symbol    Alpha    Beta     Spin     Total
       1     H     0.33250  0.33250  0.00000  0.33500
       2     N     3.92207  3.92207  0.00000 -0.84414
       3     C     3.05895  3.05895  0.00000 -0.11791
       4     H     0.33551  0.33551  0.00000  0.32898
       5     C     3.15849  3.15849  0.00000 -0.31699
       6     H     0.42136  0.42136  0.00000  0.15728
       7     H     0.43509  0.43509  0.00000  0.12982
       8     C     3.15744  3.15744  0.00000 -0.31488
       9     H     0.41270  0.41270  0.00000  0.17459
      10     H     0.42319  0.42319  0.00000  0.15361
      11     C     3.15175  3.15175  0.00000 -0.30350
      12     H     0.42089  0.42089  0.00000  0.15822
      13     H     0.42368  0.42368  0.00000  0.15264
      14     C     3.24703  3.24703  0.00000 -0.49406
      15     H     0.42079  0.42079  0.00000  0.15842
      16     H     0.42122  0.42122  0.00000  0.15755
      17     H     0.42257  0.42257  0.00000  0.15487
      18     H     0.41887  0.41887  0.00000  0.16226
      19     H     0.41589  0.41589  0.00000  0.16822

   Total alpha = 25.00000, Total beta = 25.00000, Total charge = -0.00000
