  ==> Input File <==

--------------------------------------------------------------------------
set {
	reference rhf
	basis 6-31G*
}

set_num_threads( 4 )
memory 2 gb

molecule MOL {
0 1

O	 2.168066	 0.190786	 -1.101455
C	 2.701189	 0.057885	 -0.047330
C	 2.741663	 1.088643	 1.054798
O	 3.347903	 -1.046386	 0.304773
C	 1.998679	 2.374990	 0.700676
H	 2.338685	 0.618144	 1.945545
H	 3.787901	 1.288355	 1.272052
C	 2.118900	 3.470300	 1.765728
H	 0.951790	 2.147339	 0.523707
H	 2.386413	 2.750345	 -0.240171
C	 1.442487	 3.148677	 3.101443
H	 1.679358	 4.380342	 1.364043
H	 3.170585	 3.694339	 1.938284
C	 1.495338	 4.314426	 4.091006
H	 0.403442	 2.877878	 2.920134
H	 1.909589	 2.279080	 3.558160
C	 0.827007	 4.002579	 5.431236
H	 1.017563	 5.185749	 3.646301
H	 2.533682	 4.592719	 4.264480
C	 0.880753	 5.173161	 6.412333
H	 -0.210398	 3.723319	 5.259632
H	 1.306077	 3.134552	 5.879343
H	 0.399320	 4.921561	 7.352294
H	 0.378842	 6.047404	 6.007390
H	 1.907015	 5.454415	 6.631325
C	 4.728119	 -1.109107	 -0.004993
H	 4.882018	 -1.033965	 -1.071845
H	 5.068212	 -2.067527	 0.355250
H	 5.265056	 -0.311663	 0.488280

	symmetry c1
}
set optking {
	frozen_dihedral = ("
		1 2 4 26
	")
}

ee = optimize('scf')
oeprop('DIPOLE', 'QUADRUPOLE', 'MULLIKEN_CHARGES')
f=open( 'psi4out.xyz', 'w' )
f.write( "29  " )
f.write( str(ee) + "\n" )
f.write( MOL.save_string_xyz() )
f.close()
--------------------------------------------------------------------------

    Molecular point group: c1
  Charge       = 0
  Multiplicity = 1
  Basis Set: 6-31G*
  Basis Set:
  @DF-RHF Final Energy:  -501.02241429614355
    Total Energy =                       -501.0224142961440066
    Molecular point group: c1
  Basis Set: 6-31G*
  Basis Set:
  Basis Set: 6-31G*
  Basis Set:
  @DF-RHF Final Energy:  -501.02079726764941
    Total Energy =                       -501.0207972676491863
  Basis Set: 6-31G*
  Basis Set:
  Basis Set: 6-31G*
  Basis Set:
  @DF-RHF Final Energy:  -501.02342642336373
    Total Energy =                       -501.0234264233636168
  Basis Set: 6-31G*
  Basis Set:
  Basis Set: 6-31G*
  Basis Set:
  @DF-RHF Final Energy:  -501.02398109714147
    Total Energy =                       -501.0239810971407906
  Basis Set: 6-31G*
  Basis Set:
  Basis Set: 6-31G*
  Basis Set:
  @DF-RHF Final Energy:  -501.02399939781878
    Total Energy =                       -501.0239993978184430
  Basis Set: 6-31G*
  Basis Set:
  Basis Set: 6-31G*
  Basis Set:
  @DF-RHF Final Energy:  -501.02400218513321
    Total Energy =                       -501.0240021851334404
  Basis Set: 6-31G*
  Basis Set:
  Basis Set: 6-31G*
  Basis Set:
  @DF-RHF Final Energy:  -501.02400112828593
    Total Energy =                       -501.0240011282853629
  Basis Set: 6-31G*
  Basis Set:
  Charge       = 0
  Multiplicity = 1
  Basis Set: 6-31G*
  Basis Set:

    Orbital Energies (a.u.)
    -----------------------

    Doubly Occupied:

       1A    -20.584937     2A    -20.557245     3A    -11.374814
       4A    -11.291669     5A    -11.239080     6A    -11.222101
       7A    -11.220206     8A    -11.217821     9A    -11.217040
      10A    -11.215999    11A    -11.210063    12A     -1.458513
      13A     -1.367110    14A     -1.099901    15A     -1.067196
      16A     -1.015486    17A     -0.975386    18A     -0.937709
      19A     -0.866587    20A     -0.802559    21A     -0.792725
      22A     -0.762071    23A     -0.699571    24A     -0.677666
      25A     -0.672451    26A     -0.652345    27A     -0.626454
      28A     -0.619494    29A     -0.599303    30A     -0.587926
      31A     -0.565461    32A     -0.556410    33A     -0.538398
      34A     -0.532046    35A     -0.519921    36A     -0.502427
      37A     -0.492393    38A     -0.482596    39A     -0.473642
      40A     -0.466142    41A     -0.463872    42A     -0.450614
      43A     -0.442982    44A     -0.432345

  @DF-RHF Final Energy:  -501.02400125434906

   => Energetics <=

    Nuclear Repulsion Energy =            611.2675838460827435
    One-Electron Energy =               -1893.4818171555871231
    Two-Electron Energy =                 781.1902320551553203
    DFT Exchange-Correlation Energy =       0.0000000000000000
    Empirical Dispersion Energy =           0.0000000000000000
    PCM Polarization Energy =               0.0000000000000000
    EFP Energy =                            0.0000000000000000
    Total Energy =                       -501.0240012543490593
    Molecular point group: c1
  Basis Set: 6-31G*
  Basis Set:

  -Total Gradient:
     Atom            X                  Y                   Z
    ------   -----------------  -----------------  -----------------
       1       -0.002459243622    -0.001094364667     0.001413389032
       2        0.003703504421     0.002050253729    -0.000891597566
       3        0.000148697363     0.000085621032    -0.000065451521
       4       -0.002155133991    -0.002149995734    -0.002715318558
       5        0.000026981930     0.000002344231    -0.000003245643
       6       -0.000004286949     0.000003537965     0.000028532335
       7       -0.000004562412    -0.000001084351    -0.000006328020
       8       -0.000018003557     0.000007174407    -0.000007686118
       9       -0.000004087516     0.000009779857    -0.000010414172
      10        0.000012346105    -0.000012434692    -0.000001685516
      11        0.000005403075    -0.000009421054    -0.000002566768
      12       -0.000009918600    -0.000004870377     0.000005774511
      13       -0.000004613614     0.000012657985    -0.000006363786
      14        0.000004600625    -0.000002513172     0.000005584612
      15        0.000006353268     0.000007957695    -0.000004033773
      16        0.000001457867    -0.000025418544    -0.000006476658
      17        0.000005700775    -0.000001368303     0.000003192647
      18       -0.000002053806    -0.000001357671    -0.000000614319
      19        0.000000024119     0.000002174528    -0.000000121377
      20       -0.000000964372    -0.000000122178     0.000000206210
      21        0.000001009058     0.000000569535    -0.000000408489
      22       -0.000000351850    -0.000000485946     0.000000724121
      23       -0.000000589696     0.000000455190     0.000000012766
      24        0.000000365824     0.000000536360    -0.000000275183
      25       -0.000000168819    -0.000000655667     0.000000319190
      26        0.000747650264     0.001120493886     0.002261964519
      27        0.000004095829     0.000001420136    -0.000004471565
      28       -0.000002760746    -0.000003195839     0.000005170080
      29       -0.000001450976     0.000002311663     0.000002189022

  **** Optimization is complete! (in 8 steps) ****
    Final optimized geometry and variables:
    Molecular point group: c1

    Geometry (in Angstrom), charge = 0, multiplicity = 1:

    O           -0.126949402863    -1.793366313018    -2.983736853897
    C            0.478148543117    -1.883714875874    -1.973130464379
    C            0.516829769741    -0.834682516811    -0.888063124991
    O            1.151835549802    -3.013599209214    -1.648756499561
    C           -0.223456699952     0.450062456790    -1.252542969847
    H            0.106178364238    -1.302657713702     0.001608302918
    H            1.559491752141    -0.630120030713    -0.654300590047
    C           -0.116519266250     1.549221905152    -0.190047953348
    H           -1.267277771948     0.218566364851    -1.439939983168
    H            0.173073722012     0.823999620764    -2.190937344297
    C           -0.803972252129     1.228788825689     1.140305221828
    H           -0.555791559017     2.456273672139    -0.598546980113
    H            0.932718739719     1.778242600666    -0.008508873888
    C           -0.763114346780     2.397060455139     2.127486550585
    H           -1.840413430185     0.954640478619     0.950169525502
    H           -0.338764182361     0.361465317611     1.603324534189
    C           -1.441853349955     2.086127893785     3.462685832890
    H           -1.239889823238     3.265737879557     1.676645610619
    H            0.272838608668     2.679189900487     2.309138542090
    C           -1.399887926291     3.259077148510     4.441513444748
    H           -2.476861428673     1.803392865998     3.282864219949
    H           -0.964078108850     1.220507427810     3.916781606586
    H           -1.888542280679     3.008042069056     5.377854730749
    H           -1.900998115994     4.130871757058     4.030387681439
    H           -0.376375444050     3.543937240279     4.668630204041
    C            2.495475829546    -3.096769789943    -2.071516469495
    H            2.561829543711    -3.029549154564    -3.150527413686
    H            2.861326109199    -4.058349435700    -1.746932972032
    H            3.098802701455    -2.315903608075    -1.620046452206

  Mulliken Charges: (a.u.)
   Center  Symbol    Alpha    Beta     Spin     Total
       1     O     4.25172  4.25172  0.00000 -0.50343
       2     C     2.61348  2.61348  0.00000  0.77305
       3     C     3.21464  3.21464  0.00000 -0.42927
       4     O     4.31616  4.31616  0.00000 -0.63231
       5     C     3.15408  3.15408  0.00000 -0.30816
       6     H     0.39572  0.39572  0.00000  0.20856
       7     H     0.40867  0.40867  0.00000  0.18267
       8     C     3.15643  3.15643  0.00000 -0.31286
       9     H     0.41027  0.41027  0.00000  0.17947
      10     H     0.41101  0.41101  0.00000  0.17798
      11     C     3.15515  3.15515  0.00000 -0.31029
      12     H     0.41771  0.41771  0.00000  0.16458
      13     H     0.42478  0.42478  0.00000  0.15044
      14     C     3.15034  3.15034  0.00000 -0.30068
      15     H     0.42166  0.42166  0.00000  0.15667
      16     H     0.42387  0.42387  0.00000  0.15227
      17     C     3.15154  3.15154  0.00000 -0.30309
      18     H     0.42309  0.42309  0.00000  0.15382
      19     H     0.42431  0.42431  0.00000  0.15138
      20     C     3.23940  3.23940  0.00000 -0.47880
      21     H     0.42236  0.42236  0.00000  0.15528
      22     H     0.42341  0.42341  0.00000  0.15317
      23     H     0.41896  0.41896  0.00000  0.16209
      24     H     0.42143  0.42143  0.00000  0.15715
      25     H     0.42197  0.42197  0.00000  0.15606
      26     C     3.09288  3.09288  0.00000 -0.18576
      27     H     0.40938  0.40938  0.00000  0.18125
      28     H     0.40257  0.40257  0.00000  0.19487
      29     H     0.42305  0.42305  0.00000  0.15390

   Total alpha = 44.00000, Total beta = 44.00000, Total charge =  0.00000
