                              Psi4 1.0.54 Driver

  ==> Input File <==

--------------------------------------------------------------------------
set {
	reference rhf
	basis cc-pvtz
}

set_num_threads( 4 )
memory 2 gb

molecule MOL {
0 1

O	 -2.817697	 1.304178	 0.001046
C	 -2.664672	 0.129869	 0.003507
C	 -3.797908	 -0.860100	 -0.001145
O	 -1.481217	 -0.452708	 0.001092
H	 -4.408836	 -0.679689	 -0.875387
H	 -3.443486	 -1.878443	 -0.002770
H	 -4.412123	 -0.683688	 0.871605
C	 -0.332055	 0.384012	 -0.000250
C	 0.892252	 -0.506059	 -0.000295
H	 -0.360822	 1.020205	 -0.874146
H	 -0.359817	 1.021310	 0.872861
C	 2.188199	 0.299473	 -0.001416
H	 0.857046	 -1.152781	 -0.871031
H	 0.857910	 -1.151798	 0.871202
C	 2.526159	 0.889920	 1.364703
H	 3.008604	 -0.334039	 -0.329403
H	 2.114679	 1.103464	 -0.729542
C	 3.820503	 1.695947	 1.363740
H	 2.601626	 0.087297	 2.092823
H	 1.707112	 1.523313	 1.693432
H	 4.664755	 1.080373	 1.071931
H	 4.030988	 2.100684	 2.346792
H	 3.763420	 2.527332	 0.669194

	symmetry c1
}
set optking {
	frozen_dihedral = ("
		16 12 9 13
	")
}

ee,wfn = optimize('scf', return_wfn=True)
oeprop( wfn, 'DIPOLE', 'QUADRUPOLE', 'MULLIKEN_CHARGES')
f=open( 'psi4out.xyz', 'w' )
f.write( "23  " )
f.write( str(ee) + "\n" )
f.write( MOL.save_string_xyz() )
f.close()
--------------------------------------------------------------------------

    Molecular point group: c1
  Charge       = 0
  Multiplicity = 1
  Basis Set: CC-PVTZ
  Basis Set:
  @DF-RHF Final Energy:  -423.13250103892182
    Total Energy =                       -423.1325010389223280
    Molecular point group: c1
  Basis Set: CC-PVTZ
  Basis Set:
  Basis Set: CC-PVTZ
  Basis Set:
  @DF-RHF Final Energy:  -423.13258614115398
    Total Energy =                       -423.1325861411540927
  Basis Set: CC-PVTZ
  Basis Set:
  Basis Set: CC-PVTZ
  Basis Set:
  @DF-RHF Final Energy:  -423.13264771838112
    Total Energy =                       -423.1326477183815769
  Basis Set: CC-PVTZ
  Basis Set:
  Basis Set: CC-PVTZ
  Basis Set:
  @DF-RHF Final Energy:  -423.13278398199299
    Total Energy =                       -423.1327839819927021
  Basis Set: CC-PVTZ
  Basis Set:
  Basis Set: CC-PVTZ
  Basis Set:
  @DF-RHF Final Energy:  -423.13281348467262
    Total Energy =                       -423.1328134846721696
  Basis Set: CC-PVTZ
  Basis Set:
  Charge       = 0
  Multiplicity = 1
  Basis Set: CC-PVTZ
  Basis Set:

    Orbital Energies (a.u.)
    -----------------------

    Doubly Occupied:

       1A    -20.595914     2A    -20.529570     3A    -11.366440
       4A    -11.279149     5A    -11.230688     6A    -11.222416
       7A    -11.221426     8A    -11.219204     9A    -11.210751
      10A     -1.471189    11A     -1.363993    12A     -1.094676
      13A     -1.041763    14A     -1.003536    15A     -0.932061
      16A     -0.848848    17A     -0.793898    18A     -0.781872
      19A     -0.691379    20A     -0.687949    21A     -0.675088
      22A     -0.634955    23A     -0.616769    24A     -0.588063
      25A     -0.579428    26A     -0.573495    27A     -0.562287
      28A     -0.530398    29A     -0.528919    30A     -0.508802
      31A     -0.495475    32A     -0.477281    33A     -0.469640
      34A     -0.464053    35A     -0.452079    36A     -0.439408

  @DF-RHF Final Energy:  -423.13281394023772

   => Energetics <=

    Nuclear Repulsion Energy =            455.8192239892501902
    One-Electron Energy =               -1479.5383440656805760
    Two-Electron Energy =                 600.5863061361930022
    DFT Exchange-Correlation Energy =       0.0000000000000000
    Empirical Dispersion Energy =           0.0000000000000000
    PCM Polarization Energy =               0.0000000000000000
    EFP Energy =                            0.0000000000000000
    Total Energy =                       -423.1328139402373836
    Molecular point group: c1
  Basis Set: CC-PVTZ
  Basis Set:

  -Total Gradient:
     Atom            X                  Y                   Z
    ------   -----------------  -----------------  -----------------
       1        0.000013792784     0.000010545776    -0.000000431796
       2        0.000028485078    -0.000013392922    -0.000006136469
       3       -0.000001848607    -0.000004870770     0.000007106738
       4       -0.000021279934     0.000020876690    -0.000018550974
       5        0.000010127865     0.000004777892     0.000003677385
       6       -0.000002092711    -0.000008150058    -0.000000107874
       7        0.000007825898     0.000000673215    -0.000004316730
       8        0.000003710866     0.000017757435     0.000029780226
       9       -0.000764194738     0.001278042449    -0.001134956528
      10       -0.000028864161    -0.000003327738    -0.000016985991
      11       -0.000002866135    -0.000010093009    -0.000009259733
      12        0.000367450567    -0.000670326171     0.001711934242
      13        0.000586095006    -0.000982136677     0.000712513079
      14       -0.000009460007    -0.000020494310     0.000002393763
      15        0.000001932300    -0.000008144302    -0.000001678830
      16       -0.000212544609     0.000369722388    -0.001275086419
      17        0.000015234736     0.000014905517    -0.000016342291
      18        0.000004415814    -0.000005343344     0.000008928274
      19        0.000004863563     0.000005105049     0.000008197396
      20       -0.000002942541     0.000005261803    -0.000002137548
      21        0.000007825192    -0.000001711743    -0.000002448592
      22        0.000001838477     0.000003054102     0.000001559076
      23       -0.000007504718    -0.000002731272     0.000002349593

  **** Optimization is complete! (in 6 steps) ****
    Final optimized geometry and variables:
    Molecular point group: c1

    Geometry (in Angstrom), charge = 0, multiplicity = 1:

    O           -2.644449769897     0.962622959047    -0.302213864057
    C           -2.478167581015    -0.209955679558    -0.313313098152
    C           -3.600324726040    -1.212529688883    -0.330681321064
    O           -1.288301600798    -0.778827568727    -0.311831220372
    H           -4.209552054911    -1.031593055542    -1.206054119369
    H           -3.234523183280    -2.226847494423    -0.339246306896
    H           -4.220022064258    -1.050139277573     0.540979621439
    C           -0.149214833381     0.071529356307    -0.295892229866
    C            1.082782311869    -0.809986747988    -0.288198268216
    H           -0.172070477002     0.706549566664    -1.171129954374
    H           -0.201619618959     0.707917735220     0.575077316342
    C            2.392669129395    -0.017900040592    -0.277767304732
    H            1.052902992237    -1.453530107398    -1.160337687195
    H            1.041287965512    -1.466313280448     0.575511905611
    C            2.761135635300     0.590608718161     1.074266856487
    H            3.194451787818    -0.674598160504    -0.600182077339
    H            2.343149895747     0.770887144287    -1.025351722187
    C            4.085456040319     1.346163475163     1.039923487691
    H            2.817181893103    -0.201140064862     1.816116530898
    H            1.977522454928     1.264278649819     1.406028705830
    H            4.900851899401     0.693156384227     0.747031574186
    H            4.325917352390     1.759942731037     2.012270640843
    H            4.049582292509     2.166756259640     0.331248861455

  Mulliken Charges: (a.u.)
   Center  Symbol    Alpha    Beta     Spin     Total
       1     O     4.20253  4.20253  0.00000 -0.40506
       2     C     2.81509  2.81509  0.00000  0.36983
       3     C     3.13952  3.13952  0.00000 -0.27905
       4     O     4.14514  4.14514  0.00000 -0.29027
       5     H     0.44212  0.44212  0.00000  0.11576
       6     H     0.44186  0.44186  0.00000  0.11628
       7     H     0.44222  0.44222  0.00000  0.11556
       8     C     2.97529  2.97529  0.00000  0.04943
       9     C     3.09089  3.09089  0.00000 -0.18177
      10     H     0.45418  0.45418  0.00000  0.09164
      11     H     0.45350  0.45350  0.00000  0.09300
      12     C     3.10612  3.10612  0.00000 -0.21223
      13     H     0.44442  0.44442  0.00000  0.11115
      14     H     0.45179  0.45179  0.00000  0.09642
      15     C     3.08460  3.08460  0.00000 -0.16920
      16     H     0.44555  0.44555  0.00000  0.10891
      17     H     0.45368  0.45368  0.00000  0.09265
      18     C     3.14933  3.14933  0.00000 -0.29867
      19     H     0.45332  0.45332  0.00000  0.09336
      20     H     0.45298  0.45298  0.00000  0.09405
      21     H     0.45450  0.45450  0.00000  0.09100
      22     H     0.44737  0.44737  0.00000  0.10526
      23     H     0.45402  0.45402  0.00000  0.09196

   Total alpha = 36.00000, Total beta = 36.00000, Total charge = -0.00000

*** Psi4 exiting successfully. Buy a developer a beer!
