  ==> Input File <==

--------------------------------------------------------------------------
set {
	reference rhf
	basis 6-31G*
}

set_num_threads( 1 )
memory 2 gb

molecule MOL {
0 1

O	 -2.702228	 -0.200023	 0.569514
C	 -1.806514	 -0.532911	 1.284578
C	 -0.560982	 -1.191051	 0.717296
C	 -1.849492	 -0.289776	 2.776695
C	 0.379448	 -0.143569	 0.099626
H	 -0.878250	 -1.889382	 -0.049502
H	 -0.038846	 -1.749886	 1.488725
C	 1.631333	 -0.777471	 -0.511575
H	 -0.175034	 0.407518	 -0.651531
H	 0.677432	 0.575597	 0.861041
C	 2.915987	 -0.544314	 0.291766
H	 1.766672	 -0.399098	 -1.523130
H	 1.471257	 -1.849544	 -0.605828
C	 3.373361	 0.914346	 0.347591
H	 3.708709	 -1.142521	 -0.150311
H	 2.780642	 -0.921148	 1.303579
H	 3.506512	 1.320010	 -0.651625
H	 4.322697	 0.999599	 0.867103
H	 2.660624	 1.545032	 0.868198
H	 -1.890953	 -1.241047	 3.300746
H	 -2.720196	 0.298401	 3.031069
H	 -0.949769	 0.219849	 3.109240

	symmetry c1
}
set optking {
	frozen_dihedral = ("
		6 3 2 1,
		6 3 5 8,
		12 8 11 15
	")
}

ee = energy('scf')
oeprop('DIPOLE', 'QUADRUPOLE', 'MULLIKEN_CHARGES')
f=open( 'psi4out.xyz', 'w' )
f.write( "22  " )
f.write( str(ee) + "\n" )
f.write( MOL.save_string_xyz() )
f.close()
--------------------------------------------------------------------------

    Molecular point group: c1

    Geometry (in Angstrom), charge = 0, multiplicity = 1:

       Center              X                  Y                   Z               Mass
    ------------   -----------------  -----------------  -----------------  -----------------
           O         -2.878634094328     0.131540416107    -0.135685824538    15.994914619560
           C         -1.982920094328    -0.201347583893     0.579378175462    12.000000000000
           C         -0.737388094328    -0.859487583893     0.012096175462    12.000000000000
           C         -2.025898094328     0.041787416107     2.071495175462    12.000000000000
           C          0.203041905672     0.187994416107    -0.605573824538    12.000000000000
           H         -1.054656094328    -1.557818583893    -0.754701824538     1.007825032070
           H         -0.215252094328    -1.418322583893     0.783525175462     1.007825032070
           C          1.454926905672    -0.445907583893    -1.216774824538    12.000000000000
           H         -0.351440094328     0.739081416107    -1.356730824538     1.007825032070
           H          0.501025905672     0.907160416107     0.155841175462     1.007825032070
           C          2.739580905672    -0.212750583893    -0.413433824538    12.000000000000
           H          1.590265905672    -0.067534583893    -2.228329824538     1.007825032070
           H          1.294850905672    -1.517980583893    -1.311027824538     1.007825032070
           C          3.196954905672     1.245909416107    -0.357608824538    12.000000000000
           H          3.532302905672    -0.810957583893    -0.855510824538     1.007825032070
           H          2.604235905672    -0.589584583893     0.598379175462     1.007825032070
           H          3.330105905672     1.651573416107    -1.356824824538     1.007825032070
           H          4.146290905672     1.331162416107     0.161903175462     1.007825032070
           H          2.484217905672     1.876595416107     0.162998175462     1.007825032070
           H         -2.067359094328    -0.909483583893     2.595546175462     1.007825032070
           H         -2.896602094328     0.629964416107     2.325869175462     1.007825032070
           H         -1.126175094328     0.551412416107     2.404040175462     1.007825032070

  Charge       = 0
  Multiplicity = 1
  Basis Set: 6-31G*
  Basis Set:

    Orbital Energies (a.u.)
    -----------------------

    Doubly Occupied:

       1A    -20.547174     2A    -11.323975     3A    -11.229360
       4A    -11.228064     5A    -11.227844     6A    -11.222713
       7A    -11.221001     8A    -11.214080     9A     -1.392859
      10A     -1.096865    11A     -1.044134    12A     -0.999681
      13A     -0.938539    14A     -0.861088    15A     -0.783829
      16A     -0.735145    17A     -0.662265    18A     -0.647493
      19A     -0.625850    20A     -0.613787    21A     -0.601621
      22A     -0.583912    23A     -0.560508    24A     -0.547817
      25A     -0.530862    26A     -0.525135    27A     -0.502289
      28A     -0.486937    29A     -0.466755    30A     -0.463418
      31A     -0.459693    32A     -0.396011

  @DF-RHF Final Energy:  -348.09287383614719

   => Energetics <=

    Nuclear Repulsion Energy =            375.3098220626816328
    One-Electron Energy =               -1215.3240410175010311
    Two-Electron Energy =                 491.9213451186723205
    DFT Exchange-Correlation Energy =       0.0000000000000000
    Empirical Dispersion Energy =           0.0000000000000000
    PCM Polarization Energy =               0.0000000000000000
    EFP Energy =                            0.0000000000000000
    Total Energy =                       -348.0928738361470778

  Mulliken Charges: (a.u.)
   Center  Symbol    Alpha    Beta     Spin     Total
       1     O     4.26262  4.26262  0.00000 -0.52523
       2     C     2.73701  2.73701  0.00000  0.52598
       3     C     3.20249  3.20249  0.00000 -0.40498
       4     C     3.28961  3.28961  0.00000 -0.57921
       5     C     3.16499  3.16499  0.00000 -0.32997
       6     H     0.40069  0.40069  0.00000  0.19861
       7     H     0.41677  0.41677  0.00000  0.16645
       8     C     3.15632  3.15632  0.00000 -0.31264
       9     H     0.40281  0.40281  0.00000  0.19437
      10     H     0.41846  0.41846  0.00000  0.16309
      11     C     3.15501  3.15501  0.00000 -0.31001
      12     H     0.41728  0.41728  0.00000  0.16545
      13     H     0.41827  0.41827  0.00000  0.16346
      14     C     3.24118  3.24118  0.00000 -0.48236
      15     H     0.41915  0.41915  0.00000  0.16169
      16     H     0.42475  0.42475  0.00000  0.15050
      17     H     0.42015  0.42015  0.00000  0.15970
      18     H     0.41782  0.41782  0.00000  0.16436
      19     H     0.42059  0.42059  0.00000  0.15883
      20     H     0.40704  0.40704  0.00000  0.18593
      21     H     0.39710  0.39710  0.00000  0.20580
      22     H     0.40991  0.40991  0.00000  0.18019

   Total alpha = 32.00000, Total beta = 32.00000, Total charge = -0.00000
