  ==> Input File <==

--------------------------------------------------------------------------
set {
	reference rhf
	basis 6-31G*
}

set_num_threads( 4 )
memory 2 gb

molecule MOL {
0 1

H	 -2.198659	 0.101051	 2.572882
C	 -1.869463	 -0.911914	 2.795758
O	 -0.685819	 -1.219834	 2.132803
H	 -1.679270	 -0.992601	 3.857105
H	 -2.669388	 -1.601255	 2.528633
C	 -0.778740	 -1.164135	 0.744454
C	 0.585256	 -1.407725	 0.142471
H	 -1.471797	 -1.923971	 0.381111
H	 -1.145675	 -0.192583	 0.419726
O	 1.392611	 -0.295398	 0.366430
H	 1.020879	 -2.298662	 0.590210
H	 0.477730	 -1.587515	 -0.927953
C	 2.706965	 -0.449871	 -0.062409
H	 2.756559	 -0.644779	 -1.131878
H	 3.305899	 0.433456	 0.155466
H	 3.125548	 -1.294566	 0.467107

	symmetry c1
}
set optking {
	frozen_dihedral = ("
		7 10 13 14
	")
}

ee = optimize('scf')
oeprop('DIPOLE', 'QUADRUPOLE', 'MULLIKEN_CHARGES')
f=open( 'psi4out.xyz', 'w' )
f.write( "16  " )
f.write( str(ee) + "\n" )
f.write( MOL.save_string_xyz() )
f.close()
--------------------------------------------------------------------------

    Molecular point group: c1
  Charge       = 0
  Multiplicity = 1
  Basis Set: 6-31G*
  Basis Set:
  @DF-RHF Final Energy:  -306.97649340863808
    Total Energy =                       -306.9764934086378503
    Molecular point group: c1
  Basis Set: 6-31G*
  Basis Set:
  Basis Set: 6-31G*
  Basis Set:
  @DF-RHF Final Energy:  -306.97745655741056
    Total Energy =                       -306.9774565574105623
  Basis Set: 6-31G*
  Basis Set:
  Basis Set: 6-31G*
  Basis Set:
  @DF-RHF Final Energy:  -306.97772995179741
    Total Energy =                       -306.9777299517975280
  Basis Set: 6-31G*
  Basis Set:
  Charge       = 0
  Multiplicity = 1
  Basis Set: 6-31G*
  Basis Set:

    Orbital Energies (a.u.)
    -----------------------

    Doubly Occupied:

       1A    -20.553585     2A    -20.553567     3A    -11.269058
       4A    -11.268399     5A    -11.263548     6A    -11.263522
       7A     -1.388323     8A     -1.370703     9A     -1.030847
      10A     -0.936040    11A     -0.891958    12A     -0.824051
      13A     -0.684145    14A     -0.680539    15A     -0.656968
      16A     -0.635717    17A     -0.629933    18A     -0.597151
      19A     -0.550535    20A     -0.535474    21A     -0.508949
      22A     -0.477565    23A     -0.462685    24A     -0.419766
      25A     -0.410550

  @DF-RHF Final Energy:  -306.97773128647680

   => Energetics <=

    Nuclear Repulsion Energy =            258.8488562693204358
    One-Electron Energy =                -931.9260164567216407
    Two-Electron Energy =                 366.0994289009245222
    DFT Exchange-Correlation Energy =       0.0000000000000000
    Empirical Dispersion Energy =           0.0000000000000000
    PCM Polarization Energy =               0.0000000000000000
    EFP Energy =                            0.0000000000000000
    Total Energy =                       -306.9777312864766827
    Molecular point group: c1
  Basis Set: 6-31G*
  Basis Set:

  -Total Gradient:
     Atom            X                  Y                   Z
    ------   -----------------  -----------------  -----------------
       1        0.000002550847    -0.000000196084    -0.000002889737
       2        0.000006448770    -0.000004522988     0.000013694125
       3       -0.000017220911    -0.000019219533     0.000030236229
       4       -0.000003985949     0.000000025223     0.000000980740
       5       -0.000002685738    -0.000000823851     0.000000302560
       6        0.000087092078     0.000138334280     0.000030300873
       7        0.000042871939    -0.000080003922    -0.000169324964
       8        0.000076607048    -0.000001510910    -0.000020216710
       9       -0.000031109032     0.000017937688    -0.000019790841
      10        0.000027065318    -0.000025513202     0.000078227393
      11        0.000030536952     0.000025135192     0.000018489832
      12       -0.000009877810    -0.000012429073    -0.000007921255
      13       -0.000009561145     0.000007104541    -0.000020994045
      14       -0.000092105881    -0.000054367113     0.000023367061
      15       -0.000070636277     0.000025954130     0.000023213073
      16       -0.000035990212    -0.000015904378     0.000022325664

  **** Optimization is complete! (in 4 steps) ****
    Final optimized geometry and variables:
    Molecular point group: c1

    Geometry (in Angstrom), charge = 0, multiplicity = 1:

    H           -2.421061967327     1.014841373316     1.550717815346
    C           -2.098410335102    -0.001160989382     1.769305090511
    O           -0.916514033751    -0.313893012855     1.105360756755
    H           -1.909322270051    -0.087749845007     2.830372557263
    H           -2.902406571570    -0.684204451354     1.498485444110
    C           -1.008519200521    -0.251760656872    -0.282854422773
    C            0.353850591128    -0.501983031755    -0.885651127360
    H           -1.706381489821    -1.005425456876    -0.649685833414
    H           -1.369028817121     0.723517060660    -0.603566572097
    O            1.168243027463     0.604071036139    -0.656399370462
    H            0.783633176751    -1.397365907030    -0.441234117871
    H            0.245796924182    -0.676770727938    -1.956839008293
    C            2.481730515347     0.442121884261    -1.084930114569
    H            2.532072956101     0.250914350160    -2.155975468326
    H            3.010838149887     1.359831570306    -0.868291916949
    H            2.971637362991    -0.378672632391    -0.564866096055

  Mulliken Charges: (a.u.)
   Center  Symbol    Alpha    Beta     Spin     Total
       1     H     0.42807  0.42807  0.00000  0.14386
       2     C     3.07950  3.07950  0.00000 -0.15900
       3     O     4.30092  4.30092  0.00000 -0.60183
       4     H     0.41128  0.41128  0.00000  0.17744
       5     H     0.43187  0.43187  0.00000  0.13625
       6     C     2.99333  2.99333  0.00000  0.01333
       7     C     2.99342  2.99342  0.00000  0.01315
       8     H     0.43228  0.43228  0.00000  0.13543
       9     H     0.42274  0.42274  0.00000  0.15453
      10     O     4.30085  4.30085  0.00000 -0.60170
      11     H     0.42275  0.42275  0.00000  0.15451
      12     H     0.43223  0.43223  0.00000  0.13554
      13     C     3.07952  3.07952  0.00000 -0.15903
      14     H     0.43192  0.43192  0.00000  0.13617
      15     H     0.41129  0.41129  0.00000  0.17742
      16     H     0.42803  0.42803  0.00000  0.14394

   Total alpha = 25.00000, Total beta = 25.00000, Total charge = -0.00000
