  ==> Input File <==

--------------------------------------------------------------------------
set {
	reference rhf
	basis 6-31G*
}

set_num_threads( 4 )
memory 2 gb

molecule MOL {
0 1

O	 -2.821601	 1.309235	 -0.001213
C	 -2.668563	 0.129746	 -0.000350
C	 -3.801572	 -0.864014	 -0.000442
O	 -1.481751	 -0.454642	 0.000584
H	 -4.417280	 -0.689587	 -0.874708
H	 -3.443784	 -1.883046	 -0.000565
H	 -4.417179	 -0.689832	 0.873954
C	 -0.334255	 0.388708	 0.000906
C	 0.891947	 -0.504646	 0.000751
H	 -0.365390	 1.025305	 -0.873475
H	 -0.365484	 1.024911	 0.875569
C	 2.191998	 0.301789	 0.000897
H	 0.855148	 -1.151283	 -0.871571
H	 0.855132	 -1.151660	 0.872805
C	 2.786289	 0.473981	 1.400002
H	 2.923223	 -0.186756	 -0.640756
H	 2.011409	 1.283118	 -0.434375
C	 4.085488	 1.278312	 1.399929
H	 2.967709	 -0.505715	 1.836302
H	 2.057748	 0.964118	 2.041925
H	 4.845844	 0.795273	 0.792849
H	 4.482164	 1.383087	 2.404870
H	 3.928988	 2.276236	 1.000349

	symmetry c1
}
set optking {
	frozen_dihedral = ("
		16 12 9 13
	")
}

ee = optimize('scf')
oeprop('DIPOLE', 'QUADRUPOLE', 'MULLIKEN_CHARGES')
f=open( 'psi4out.xyz', 'w' )
f.write( "23  " )
f.write( str(ee) + "\n" )
f.write( MOL.save_string_xyz() )
f.close()
--------------------------------------------------------------------------

    Molecular point group: c1
  Charge       = 0
  Multiplicity = 1
  Basis Set: 6-31G*
  Basis Set:
  @DF-RHF Final Energy:  -422.97572069262213
    Total Energy =                       -422.9757206926221897
    Molecular point group: c1
  Basis Set: 6-31G*
  Basis Set:
  Basis Set: 6-31G*
  Basis Set:
  @DF-RHF Final Energy:  -422.97598850112826
    Total Energy =                       -422.9759885011281995
  Basis Set: 6-31G*
  Basis Set:
  Basis Set: 6-31G*
  Basis Set:
  @DF-RHF Final Energy:  -422.97605515548150
    Total Energy =                       -422.9760551554807080
  Basis Set: 6-31G*
  Basis Set:
  Basis Set: 6-31G*
  Basis Set:
  @DF-RHF Final Energy:  -422.97603999546715
    Total Energy =                       -422.9760399954668628
  Basis Set: 6-31G*
  Basis Set:
  Basis Set: 6-31G*
  Basis Set:
  @DF-RHF Final Energy:  -422.97605646008981
    Total Energy =                       -422.9760564600900352
  Basis Set: 6-31G*
  Basis Set:
  Basis Set: 6-31G*
  Basis Set:
  @DF-RHF Final Energy:  -422.97605794686234
    Total Energy =                       -422.9760579468620563
  Basis Set: 6-31G*
  Basis Set:
  Charge       = 0
  Multiplicity = 1
  Basis Set: 6-31G*
  Basis Set:

    Orbital Energies (a.u.)
    -----------------------

    Doubly Occupied:

       1A    -20.603104     2A    -20.540705     3A    -11.374255
       4A    -11.281835     5A    -11.232463     6A    -11.224194
       7A    -11.223632     8A    -11.221912     9A    -11.212809
      10A     -1.468173    11A     -1.360927    12A     -1.093260
      13A     -1.041290    14A     -1.002784    15A     -0.930637
      16A     -0.846047    17A     -0.798155    18A     -0.778672
      19A     -0.688204    20A     -0.684931    21A     -0.672539
      22A     -0.633448    23A     -0.615266    24A     -0.586679
      25A     -0.578716    26A     -0.571962    27A     -0.561005
      28A     -0.530924    29A     -0.526158    30A     -0.504107
      31A     -0.496722    32A     -0.477961    33A     -0.468477
      34A     -0.462998    35A     -0.449307    36A     -0.435767

  @DF-RHF Final Energy:  -422.97605797876167

   => Energetics <=

    Nuclear Repulsion Energy =            453.8766897570554875
    One-Electron Energy =               -1475.3454501978428652
    Two-Electron Energy =                 598.4927024620254770
    DFT Exchange-Correlation Energy =       0.0000000000000000
    Empirical Dispersion Energy =           0.0000000000000000
    PCM Polarization Energy =               0.0000000000000000
    EFP Energy =                            0.0000000000000000
    Total Energy =                       -422.9760579787619008
    Molecular point group: c1
  Basis Set: 6-31G*
  Basis Set:

  -Total Gradient:
     Atom            X                  Y                   Z
    ------   -----------------  -----------------  -----------------
       1       -0.000011699681     0.000002683562    -0.000009721515
       2        0.000019076098     0.000014229188     0.000029061479
       3        0.000004552460    -0.000000256105    -0.000007788920
       4        0.000041203168    -0.000025844716    -0.000008446005
       5        0.000000638826    -0.000000194956    -0.000000239771
       6        0.000000302891    -0.000000496800    -0.000000433825
       7        0.000002681708     0.000001914178    -0.000000138541
       8       -0.000011802116     0.000053833176    -0.000002748938
       9       -0.001747926838     0.002952833231    -0.002397851352
      10       -0.000006176142    -0.000006828103    -0.000001187382
      11       -0.000010336975     0.000007716580     0.000005863047
      12        0.001369135882    -0.002410749653     0.003090910179
      13        0.001218049113    -0.002114294585     0.001489868632
      14        0.000011811891    -0.000009165070    -0.000006778335
      15        0.000008404389     0.000008013559     0.000044191907
      16       -0.000885725326     0.001549233576    -0.002203686830
      17        0.000009284147    -0.000006272338    -0.000016341718
      18       -0.000010596004    -0.000008787188    -0.000013630791
      19        0.000008826017     0.000001054293     0.000005856888
      20       -0.000004791656    -0.000003233375     0.000011180831
      21        0.000009785490    -0.000000822621    -0.000002141005
      22       -0.000013282043    -0.000007116277    -0.000004467228
      23       -0.000001415288     0.000002550444    -0.000001330806

  **** Optimization is complete! (in 7 steps) ****
    Final optimized geometry and variables:
    Molecular point group: c1

    Geometry (in Angstrom), charge = 0, multiplicity = 1:

    O           -2.658395787614     1.084925881256    -0.309509394885
    C           -2.514541389184    -0.095696869688    -0.299827769200
    C           -3.654920961905    -1.080276633905    -0.264205420760
    O           -1.332489294298    -0.689467233069    -0.319097773795
    H           -4.288818023730    -0.909778857369    -1.126153362769
    H           -3.305123666141    -2.102076387553    -0.261875866273
    H           -4.249268158224    -0.892338457052     0.621972086768
    C           -0.179182877778     0.144386700155    -0.354599137444
    C            1.040682242011    -0.757616967190    -0.368067332692
    H           -0.222151435421     0.767365724832    -1.238091887433
    H           -0.188429593658     0.794805188647     0.510141132432
    C            2.357945910712     0.038058618940    -0.318661828000
    H            1.008490678885    -1.393201668859    -1.247069976040
    H            0.982821314338    -1.429932607094     0.483559901210
    C            2.916358180182     0.223000521939     1.094032255501
    H            3.100051377536    -0.446955088241    -0.946452656183
    H            2.205734779151     1.018076399139    -0.769762103114
    C            4.188279527229     1.068732735144     1.124552515154
    H            3.120297377372    -0.753712990107     1.526696528399
    H            2.161415445776     0.684645987780     1.727037725894
    H            4.972501052687     0.618197746926     0.522650670192
    H            4.566532253800     1.172397915878     2.136631248091
    H            4.005832859268     2.066430093382     0.735623924461

  Mulliken Charges: (a.u.)
   Center  Symbol    Alpha    Beta     Spin     Total
       1     O     4.28389  4.28389  0.00000 -0.56779
       2     C     2.61548  2.61548  0.00000  0.76905
       3     C     3.28778  3.28778  0.00000 -0.57557
       4     O     4.31222  4.31222  0.00000 -0.62443
       5     H     0.39746  0.39746  0.00000  0.20507
       6     H     0.39984  0.39984  0.00000  0.20033
       7     H     0.39749  0.39749  0.00000  0.20501
       8     C     2.99819  2.99819  0.00000  0.00362
       9     C     3.16696  3.16696  0.00000 -0.33392
      10     H     0.41014  0.41014  0.00000  0.17972
      11     H     0.41032  0.41032  0.00000  0.17935
      12     C     3.16451  3.16451  0.00000 -0.32902
      13     H     0.41174  0.41174  0.00000  0.17652
      14     H     0.41283  0.41283  0.00000  0.17434
      15     C     3.15247  3.15247  0.00000 -0.30493
      16     H     0.41621  0.41621  0.00000  0.16757
      17     H     0.42062  0.42062  0.00000  0.15877
      18     C     3.24028  3.24028  0.00000 -0.48056
      19     H     0.42065  0.42065  0.00000  0.15871
      20     H     0.42177  0.42177  0.00000  0.15645
      21     H     0.42100  0.42100  0.00000  0.15800
      22     H     0.41778  0.41778  0.00000  0.16445
      23     H     0.42038  0.42038  0.00000  0.15925

   Total alpha = 36.00000, Total beta = 36.00000, Total charge =  0.00000
