  ==> Input File <==

--------------------------------------------------------------------------
set {
	reference rhf
	basis 6-31G*
}

set_num_threads( 4 )
memory 2 gb

molecule MOL {
0 1

H	 1.062411	 -1.007935	 1.889717
C	 0.130537	 -1.109204	 1.350588
O	 0.000000	 0.000000	 0.521119
H	 0.153834	 -2.034966	 0.777778
H	 -0.686588	 -1.169182	 2.067804
C	 -1.165642	 0.000000	 -0.238270
H	 -1.228672	 0.883184	 -0.872070
H	 -2.003012	 0.000000	 0.445920
H	 -1.228672	 -0.883184	 -0.872070

	symmetry c1
}
set optking {
	frozen_dihedral = ("
		2 3 6 7
	")
}

ee = optimize('scf')
oeprop('DIPOLE', 'QUADRUPOLE', 'MULLIKEN_CHARGES')
f=open( 'psi4out.xyz', 'w' )
f.write( "9  " )
f.write( str(ee) + "\n" )
f.write( MOL.save_string_xyz() )
f.close()
--------------------------------------------------------------------------

    Molecular point group: c1
  Charge       = 0
  Multiplicity = 1
  Basis Set: 6-31G*
  Basis Set:
  @DF-RHF Final Energy:  -154.06348259507757
    Total Energy =                       -154.0634825950776303
    Molecular point group: c1
  Basis Set: 6-31G*
  Basis Set:
  Basis Set: 6-31G*
  Basis Set:
  @DF-RHF Final Energy:  -154.06436880553886
    Total Energy =                       -154.0643688055388623
  Basis Set: 6-31G*
  Basis Set:
  Basis Set: 6-31G*
  Basis Set:
  @DF-RHF Final Energy:  -154.06463955972828
    Total Energy =                       -154.0646395597282208
  Basis Set: 6-31G*
  Basis Set:
  Charge       = 0
  Multiplicity = 1
  Basis Set: 6-31G*
  Basis Set:

    Orbital Energies (a.u.)
    -----------------------

    Doubly Occupied:

       1A    -20.556392     2A    -11.265281     3A    -11.265260
       4A     -1.379613     5A     -0.974892     6A     -0.872976
       7A     -0.661853     8A     -0.654294     9A     -0.645289
      10A     -0.551837    11A     -0.529601    12A     -0.474906
      13A     -0.417460

  @DF-RHF Final Energy:  -154.06464069135200

   => Energetics <=

    Nuclear Repulsion Energy =             84.7737423912929131
    One-Electron Energy =                -377.1774612687658532
    Two-Electron Energy =                 138.3390781861210144
    DFT Exchange-Correlation Energy =       0.0000000000000000
    Empirical Dispersion Energy =           0.0000000000000000
    PCM Polarization Energy =               0.0000000000000000
    EFP Energy =                            0.0000000000000000
    Total Energy =                       -154.0646406913519399
    Molecular point group: c1
  Basis Set: 6-31G*
  Basis Set:

  -Total Gradient:
     Atom            X                  Y                   Z
    ------   -----------------  -----------------  -----------------
       1       -0.000011582030     0.000104013758    -0.000071698996
       2       -0.000199482612    -0.000073969186    -0.000109606425
       3        0.000031947171     0.000075667629     0.000006285957
       4        0.000024664150    -0.000025452997     0.000006502155
       5        0.000008361067     0.000017175600     0.000021002341
       6       -0.000011816872    -0.000091881464     0.000019965669
       7        0.000078126634     0.000010716148     0.000049821024
       8        0.000037018273    -0.000002501285     0.000048026863
       9        0.000042764218    -0.000013768202     0.000029701413

  **** Optimization is complete! (in 4 steps) ****
    Final optimized geometry and variables:
    Molecular point group: c1

    Geometry (in Angstrom), charge = 0, multiplicity = 1:

    H            1.433650969221    -0.617886604341     1.330503222995
    C            0.494776932103    -0.722998006761     0.804515510790
    O            0.355441640591     0.380225785739    -0.031525672830
    H            0.510078510378    -1.653303535681     0.238844959356
    H           -0.312949416564    -0.776370619421     1.532794162563
    C           -0.819940697346     0.375204941135    -0.775730759040
    H           -0.825560417228     1.268734540607    -1.384646287041
    H           -1.698812726524     0.381121988784    -0.132931791083
    H           -0.875854446220    -0.495642462900    -1.426964069152

  Mulliken Charges: (a.u.)
   Center  Symbol    Alpha    Beta     Spin     Total
       1     H     0.41170  0.41170  0.00000  0.17660
       2     C     3.08039  3.08039  0.00000 -0.16077
       3     O     4.29498  4.29498  0.00000 -0.58997
       4     H     0.43021  0.43021  0.00000  0.13957
       5     H     0.43021  0.43021  0.00000  0.13957
       6     C     3.08037  3.08037  0.00000 -0.16073
       7     H     0.41170  0.41170  0.00000  0.17660
       8     H     0.43022  0.43022  0.00000  0.13956
       9     H     0.43021  0.43021  0.00000  0.13957

   Total alpha = 13.00000, Total beta = 13.00000, Total charge = -0.00000
