                              Psi4 1.0.54 Driver

  ==> Input File <==

--------------------------------------------------------------------------
set {
	reference rhf
	basis cc-pvtz
}

set_num_threads( 4 )
memory 2 gb

molecule MOL {
0 1

H	 2.286032	 -0.979657	 -0.279417
O	 2.063695	 -0.083403	 -0.105237
C	 0.742924	 0.005675	 0.350750
H	 0.731380	 0.039219	 1.440080
C	 -0.064076	 -1.193495	 -0.124425
C	 -0.047832	 1.190568	 -0.194462
H	 0.194729	 -1.376165	 -1.161308
H	 0.163013	 -2.094508	 0.429933
C	 -1.533112	 -0.752002	 0.006102
H	 0.148003	 1.266545	 -1.259275
H	 0.226235	 2.136493	 0.259722
C	 -1.506634	 0.799189	 0.067162
H	 -2.124360	 -1.110499	 -0.826089
H	 -1.983103	 -1.158030	 0.903403
H	 -2.183808	 1.252169	 -0.644677
H	 -1.813926	 1.138698	 1.049457

	symmetry c1
}
set optking {
	frozen_dihedral = ("
		1 2 3 6
	")
}

ee,wfn = optimize('scf', return_wfn=True)
oeprop( wfn, 'DIPOLE', 'QUADRUPOLE', 'MULLIKEN_CHARGES')
f=open( 'psi4out.xyz', 'w' )
f.write( "16  " )
f.write( str(ee) + "\n" )
f.write( MOL.save_string_xyz() )
f.close()
--------------------------------------------------------------------------

    Molecular point group: c1
  Charge       = 0
  Multiplicity = 1
  Basis Set: CC-PVTZ
  Basis Set:
  @DF-RHF Final Energy:  -270.11380415196555
    Total Energy =                       -270.1138041519654962
    Molecular point group: c1
  Basis Set: CC-PVTZ
  Basis Set:
  Basis Set: CC-PVTZ
  Basis Set:
  @DF-RHF Final Energy:  -270.11484181311801
    Total Energy =                       -270.1148418131181188
  Basis Set: CC-PVTZ
  Basis Set:
  Basis Set: CC-PVTZ
  Basis Set:
  @DF-RHF Final Energy:  -270.11525888289395
    Total Energy =                       -270.1152588828939543
  Basis Set: CC-PVTZ
  Basis Set:
  Basis Set: CC-PVTZ
  Basis Set:
  @DF-RHF Final Energy:  -270.11526861421191
    Total Energy =                       -270.1152686142120274
  Basis Set: CC-PVTZ
  Basis Set:
  Basis Set: CC-PVTZ
  Basis Set:
  @DF-RHF Final Energy:  -270.11526979546397
    Total Energy =                       -270.1152697954642008
  Basis Set: CC-PVTZ
  Basis Set:
  Charge       = 0
  Multiplicity = 1
  Basis Set: CC-PVTZ
  Basis Set:

    Orbital Energies (a.u.)
    -----------------------

    Doubly Occupied:

       1A    -20.543939     2A    -11.267175     3A    -11.217851
       4A    -11.216579     5A    -11.214567     6A    -11.207035
       7A     -1.364375     8A     -1.116787     9A     -0.969234
      10A     -0.949864    11A     -0.797017    12A     -0.781818
      13A     -0.688269    14A     -0.665823    15A     -0.616157
      16A     -0.599757    17A     -0.574651    18A     -0.529770
      19A     -0.502419    20A     -0.484193    21A     -0.472948
      22A     -0.458565    23A     -0.445922    24A     -0.425963

  @DF-RHF Final Energy:  -270.11527059649450

   => Energetics <=

    Nuclear Repulsion Energy =            255.6726833333887896
    One-Electron Energy =                -873.3545526646487360
    Two-Electron Energy =                 347.5665987347655346
    DFT Exchange-Correlation Energy =       0.0000000000000000
    Empirical Dispersion Energy =           0.0000000000000000
    PCM Polarization Energy =               0.0000000000000000
    EFP Energy =                            0.0000000000000000
    Total Energy =                       -270.1152705964943834
    Molecular point group: c1
  Basis Set: CC-PVTZ
  Basis Set:

  -Total Gradient:
     Atom            X                  Y                   Z
    ------   -----------------  -----------------  -----------------
       1       -0.000431438818     0.000223091092    -0.001585682805
       2        0.000333041133    -0.000538698793     0.001621696150
       3        0.000274467860     0.000782239946     0.000822696902
       4        0.000000145869    -0.000019715179     0.000055957498
       5        0.000204490446     0.000042931794    -0.000013587531
       6       -0.000338509267    -0.000526625629    -0.000856604493
       7       -0.000001127801    -0.000041684387    -0.000012528049
       8       -0.000001629645     0.000003116862    -0.000000060338
       9       -0.000096581657     0.000028496696     0.000063531771
      10        0.000007842146     0.000008651141    -0.000061172880
      11        0.000022926350     0.000016949724     0.000013753468
      12        0.000090131024     0.000026980047    -0.000058645480
      13        0.000001092730    -0.000004406284    -0.000038227232
      14       -0.000038426590    -0.000022090421    -0.000003747828
      15       -0.000024114754     0.000000010826     0.000013225369
      16       -0.000002309023     0.000020752566     0.000039395478

  **** Optimization is complete! (in 6 steps) ****
    Final optimized geometry and variables:
    Molecular point group: c1

    Geometry (in Angstrom), charge = 0, multiplicity = 1:

    H            2.414860928202    -0.731735446285    -0.192989379514
    O            2.076381033313     0.115635442525     0.027592502765
    C            0.724622269655     0.025329499455     0.386647060290
    H            0.649336341880     0.021490789133     1.473020828543
    C           -0.008149677219    -1.192672245234    -0.169379458116
    C           -0.088639477837     1.186517101054    -0.165650450016
    H            0.287902504802    -1.323840547792    -1.206354592493
    H            0.231276612805    -2.108685217619     0.358596700912
    C           -1.499455628499    -0.820284460419    -0.079891449069
    H            0.153339394486     1.298566950961    -1.217462576688
    H            0.130714883135     2.126863739911     0.323471991716
    C           -1.539528811251     0.728606613652     0.019175536585
    H           -2.044867125685    -1.184385685148    -0.940472741711
    H           -1.958679570483    -1.269597995009     0.791523214806
    H           -2.202674775555     1.170188325278    -0.712673973836
    H           -1.905717225808     1.029203351290     0.993764866445

  Mulliken Charges: (a.u.)
   Center  Symbol    Alpha    Beta     Spin     Total
       1     H     0.39150  0.39150  0.00000  0.21699
       2     O     4.20624  4.20624  0.00000 -0.41247
       3     C     2.92302  2.92302  0.00000  0.15395
       4     H     0.46138  0.46138  0.00000  0.07724
       5     C     3.11932  3.11932  0.00000 -0.23865
       6     C     3.09227  3.09227  0.00000 -0.18453
       7     H     0.45425  0.45425  0.00000  0.09150
       8     H     0.44292  0.44292  0.00000  0.11417
       9     C     3.11038  3.11038  0.00000 -0.22076
      10     H     0.45572  0.45572  0.00000  0.08857
      11     H     0.44357  0.44357  0.00000  0.11286
      12     C     3.11380  3.11380  0.00000 -0.22760
      13     H     0.44498  0.44498  0.00000  0.11005
      14     H     0.44739  0.44739  0.00000  0.10522
      15     H     0.44343  0.44343  0.00000  0.11313
      16     H     0.44983  0.44983  0.00000  0.10034

   Total alpha = 24.00000, Total beta = 24.00000, Total charge = -0.00000

*** Psi4 exiting successfully. Buy a developer a beer!
