  ==> Input File <==

--------------------------------------------------------------------------
set {
	reference rhf
	basis 6-31G*
}

set_num_threads( 4 )
memory 2 gb

molecule MOL {
0 1

H	 2.591676	 2.013956	 0.335017
O	 3.341076	 1.666752	 -0.126416
C	 3.569581	 0.339145	 0.272707
C	 2.348559	 -0.315933	 0.908872
H	 3.843935	 -0.195720	 -0.627472
H	 4.419817	 0.286352	 0.951744
C	 1.903753	 0.337502	 2.219612
H	 1.531306	 -0.290679	 0.192753
H	 2.581059	 -1.364352	 1.088116
C	 0.710030	 -0.375859	 2.860673
H	 1.647406	 1.376412	 2.031680
H	 2.736732	 0.342166	 2.922794
C	 0.277683	 0.186691	 4.219700
H	 -0.134471	 -0.347786	 2.174469
H	 0.962130	 -1.426600	 2.987512
C	 -0.294478	 1.606300	 4.177048
H	 -0.474109	 -0.477524	 4.640941
H	 1.123057	 0.158917	 4.905564
C	 -0.808342	 2.083012	 5.537242
H	 -1.107678	 1.644024	 3.453589
H	 0.460841	 2.303782	 3.823053
C	 -1.374149	 3.502185	 5.498830
H	 -1.575734	 1.398432	 5.892132
H	 0.000355	 2.036791	 6.263711
H	 -2.206779	 3.573629	 4.804678
H	 -1.731678	 3.810136	 6.476569
H	 -0.619618	 4.217113	 5.182721

	symmetry c1
}
set optking {
	frozen_dihedral = ("
		4 3 2 1
	")
}

ee = optimize('scf')
oeprop('DIPOLE', 'QUADRUPOLE', 'MULLIKEN_CHARGES')
f=open( 'psi4out.xyz', 'w' )
f.write( "27  " )
f.write( str(ee) + "\n" )
f.write( MOL.save_string_xyz() )
f.close()
--------------------------------------------------------------------------

    Molecular point group: c1
  Charge       = 0
  Multiplicity = 1
  Basis Set: 6-31G*
  Basis Set:
  @DF-RHF Final Energy:  -388.27879516130440
    Total Energy =                       -388.2787951613044015
    Molecular point group: c1
  Basis Set: 6-31G*
  Basis Set:
  Basis Set: 6-31G*
  Basis Set:
  @DF-RHF Final Energy:  -388.27897743064904
    Total Energy =                       -388.2789774306484105
  Basis Set: 6-31G*
  Basis Set:
  Basis Set: 6-31G*
  Basis Set:
  @DF-RHF Final Energy:  -388.27914248825164
    Total Energy =                       -388.2791424882515230
  Basis Set: 6-31G*
  Basis Set:
  Basis Set: 6-31G*
  Basis Set:
  @DF-RHF Final Energy:  -388.27915168428399
    Total Energy =                       -388.2791516842842157
  Basis Set: 6-31G*
  Basis Set:
  Basis Set: 6-31G*
  Basis Set:
  @DF-RHF Final Energy:  -388.27915539054538
    Total Energy =                       -388.2791553905453839
  Basis Set: 6-31G*
  Basis Set:
  Charge       = 0
  Multiplicity = 1
  Basis Set: 6-31G*
  Basis Set:

    Orbital Energies (a.u.)
    -----------------------

    Doubly Occupied:

       1A    -20.548332     2A    -11.265976     3A    -11.225274
       4A    -11.223285     5A    -11.221078     6A    -11.218203
       7A    -11.217592     8A    -11.216528     9A    -11.210531
      10A     -1.355927    11A     -1.098689    12A     -1.064626
      13A     -1.013881    14A     -0.950279    15A     -0.890596
      16A     -0.825246    17A     -0.806276    18A     -0.781678
      19A     -0.670106    20A     -0.657949    21A     -0.647092
      22A     -0.621432    23A     -0.607678    24A     -0.585282
      25A     -0.577948    26A     -0.562907    27A     -0.540967
      28A     -0.530360    29A     -0.508519    30A     -0.495375
      31A     -0.489168    32A     -0.479674    33A     -0.468721
      34A     -0.463136    35A     -0.450412    36A     -0.438802
      37A     -0.428424

  @DF-RHF Final Energy:  -388.27915583005006

   => Energetics <=

    Nuclear Repulsion Energy =            459.5252809149993709
    One-Electron Energy =               -1436.8929724527495182
    Two-Electron Energy =                 589.0885357077004301
    DFT Exchange-Correlation Energy =       0.0000000000000000
    Empirical Dispersion Energy =           0.0000000000000000
    PCM Polarization Energy =               0.0000000000000000
    EFP Energy =                            0.0000000000000000
    Total Energy =                       -388.2791558300497172
    Molecular point group: c1
  Basis Set: 6-31G*
  Basis Set:

  -Total Gradient:
     Atom            X                  Y                   Z
    ------   -----------------  -----------------  -----------------
       1       -0.000850609027    -0.000594263000    -0.001102459062
       2        0.001157226013     0.000861299720     0.001659760192
       3       -0.000542647741    -0.000629671034    -0.001350154861
       4        0.000231951186     0.000365602447     0.000802539050
       5       -0.000024995287     0.000035436021    -0.000010691277
       6        0.000020506494    -0.000035068158    -0.000004762701
       7        0.000000097848     0.000006483957    -0.000005940670
       8       -0.000009542367    -0.000002199996     0.000008690182
       9        0.000009694705     0.000003146573     0.000001174312
      10        0.000007868361    -0.000000927973    -0.000009641476
      11       -0.000004650576    -0.000003833055    -0.000002175342
      12       -0.000004375529    -0.000006959495     0.000011141409
      13        0.000000729072    -0.000003741388     0.000003898533
      14       -0.000002960666    -0.000001425443     0.000007153974
      15        0.000008897520    -0.000000754465    -0.000012523835
      16        0.000004326386     0.000001509199    -0.000003367443
      17       -0.000003553074     0.000008103174    -0.000000757802
      18       -0.000004062756    -0.000004432043     0.000005245105
      19        0.000002942074     0.000002091735     0.000002981438
      20        0.000005363814    -0.000003098145     0.000003797573
      21       -0.000000265743     0.000003930945    -0.000003217221
      22       -0.000002123103    -0.000001360131    -0.000000905417
      23        0.000000385217    -0.000000825933     0.000000274570
      24       -0.000000443102     0.000001211413     0.000000050538
      25        0.000000039263     0.000000448455    -0.000000217793
      26       -0.000000099695    -0.000000501637    -0.000000186774
      27        0.000000300710    -0.000000201744     0.000000294790

  **** Optimization is complete! (in 6 steps) ****
    Final optimized geometry and variables:
    Molecular point group: c1

    Geometry (in Angstrom), charge = 0, multiplicity = 1:

    H            1.456940264425     0.977259031238    -2.592745332527
    O            2.224564998814     0.611061926475    -3.004650037751
    C            2.472229557554    -0.685204916090    -2.518599894069
    C            1.259216460808    -1.346386405113    -1.872664081974
    H            2.804756191088    -1.277584102616    -3.362886192423
    H            3.291350209456    -0.651117752106    -1.802995636487
    C            0.801914632602    -0.687028289851    -0.567055282853
    H            0.440868956947    -1.356893279341    -2.590419989824
    H            1.509452480548    -2.386033904081    -1.674369709679
    C           -0.401672777249    -1.397068231600     0.059137877799
    H            0.553690866985     0.357322174168    -0.741585199882
    H            1.629575587767    -0.686372330655     0.139952850494
    C           -0.836887368308    -0.844557467614     1.421349505529
    H           -1.242668995425    -1.356732550641    -0.631045975646
    H           -0.157963581822    -2.450782923677     0.176964201488
    C           -1.394349977393     0.581200841956     1.390696587082
    H           -1.597896696096    -1.505849149631     1.830189075015
    H            0.003845218327    -0.888345563583     2.111756703800
    C           -1.914576205712     1.046829203414     2.752329100134
    H           -2.201595285795     0.635611760656     0.661397373416
    H           -0.628927557509     1.275250812399     1.051949770011
    C           -2.466687511439     2.471616516667     2.725929778609
    H           -2.691062163672     0.365345064604     3.093066580249
    H           -1.111980689831     0.984639469209     3.484217186861
    H           -3.293272260846     2.558971590149     2.026349364915
    H           -2.829002138029     2.771382725387     3.704384202265
    H           -1.702953625454     3.182934579233     2.424269613442

  Mulliken Charges: (a.u.)
   Center  Symbol    Alpha    Beta     Spin     Total
       1     H     0.27780  0.27780  0.00000  0.44440
       2     O     4.37900  4.37900  0.00000 -0.75800
       3     C     2.97710  2.97710  0.00000  0.04580
       4     C     3.18428  3.18428  0.00000 -0.36856
       5     H     0.41942  0.41942  0.00000  0.16117
       6     H     0.42983  0.42983  0.00000  0.14034
       7     C     3.15859  3.15859  0.00000 -0.31718
       8     H     0.41710  0.41710  0.00000  0.16580
       9     H     0.41796  0.41796  0.00000  0.16409
      10     C     3.15250  3.15250  0.00000 -0.30499
      11     H     0.42819  0.42819  0.00000  0.14362
      12     H     0.41902  0.41902  0.00000  0.16196
      13     C     3.15358  3.15358  0.00000 -0.30715
      14     H     0.42259  0.42259  0.00000  0.15483
      15     H     0.42053  0.42053  0.00000  0.15894
      16     C     3.15323  3.15323  0.00000 -0.30646
      17     H     0.42072  0.42072  0.00000  0.15856
      18     H     0.42302  0.42302  0.00000  0.15396
      19     C     3.15127  3.15127  0.00000 -0.30253
      20     H     0.42447  0.42447  0.00000  0.15105
      21     H     0.42279  0.42279  0.00000  0.15442
      22     C     3.23938  3.23938  0.00000 -0.47875
      23     H     0.42274  0.42274  0.00000  0.15451
      24     H     0.42260  0.42260  0.00000  0.15479
      25     H     0.42174  0.42174  0.00000  0.15652
      26     H     0.41883  0.41883  0.00000  0.16234
      27     H     0.42174  0.42174  0.00000  0.15652

   Total alpha = 37.00000, Total beta = 37.00000, Total charge = -0.00000
