  ==> Input File <==

--------------------------------------------------------------------------
set {
	reference rhf
	basis 6-31G*
}

set_num_threads( 1 )
memory 2 gb

molecule MOL {
0 1

H	 -3.251117	 0.970624	 -1.705578
C	 -2.350652	 1.510346	 -2.024144
C	 -1.557251	 2.140793	 -0.908051
O	 -2.064155	 1.566525	 -3.175888
C	 -1.220012	 1.144545	 0.209990
H	 -0.662677	 2.582575	 -1.331460
H	 -2.165689	 2.946219	 -0.498484
C	 -0.252658	 0.041456	 -0.226725
H	 -0.788942	 1.693928	 1.041639
H	 -2.139553	 0.698735	 0.586096
C	 1.180775	 0.282413	 0.250794
H	 -0.266029	 -0.034465	 -1.312038
H	 -0.597733	 -0.921000	 0.146291
C	 2.148627	 -0.814315	 -0.201312
H	 1.516199	 1.249228	 -0.115937
H	 1.192670	 0.346017	 1.338083
C	 3.580890	 -0.659131	 0.322722
H	 2.166869	 -0.852443	 -1.289387
H	 1.762857	 -1.776509	 0.128956
C	 4.324889	 0.564933	 -0.213704
H	 4.142010	 -1.551473	 0.056605
H	 3.564836	 -0.624694	 1.410140
H	 4.342616	 0.565491	 -1.300421
H	 3.866655	 1.493402	 0.110242
H	 5.353900	 0.572371	 0.132816

	symmetry c1
}
set optking {
	frozen_dihedral = ("
		6 3 5 8,
		6 3 2 4,
		12 8 11 14,
		8 11 14 18,
		20 17 14 18
	")
}

ee = energy('scf')
oeprop('DIPOLE', 'QUADRUPOLE', 'MULLIKEN_CHARGES')
f=open( 'psi4out.xyz', 'w' )
f.write( "25  " )
f.write( str(ee) + "\n" )
f.write( MOL.save_string_xyz() )
f.close()
--------------------------------------------------------------------------

    Molecular point group: c1

    Geometry (in Angstrom), charge = 0, multiplicity = 1:

       Center              X                  Y                   Z               Mass
    ------------   -----------------  -----------------  -----------------  -----------------
           H         -3.683658947515     0.322759328856    -1.027261262115     1.007825032070
           C         -2.783193947515     0.862481328856    -1.345827262115    12.000000000000
           C         -1.989792947515     1.492928328856    -0.229734262115    12.000000000000
           O         -2.496696947515     0.918660328856    -2.497571262115    15.994914619560
           C         -1.652553947515     0.496680328856     0.888306737885    12.000000000000
           H         -1.095218947515     1.934710328856    -0.653143262115     1.007825032070
           H         -2.598230947515     2.298354328856     0.179832737885     1.007825032070
           C         -0.685199947515    -0.606408671144     0.451591737885    12.000000000000
           H         -1.221483947515     1.046063328856     1.719955737885     1.007825032070
           H         -2.572094947515     0.050870328856     1.264412737885     1.007825032070
           C          0.748233052485    -0.365451671144     0.929110737885    12.000000000000
           H         -0.698570947515    -0.682329671144    -0.633721262115     1.007825032070
           H         -1.030274947515    -1.568864671144     0.824607737885     1.007825032070
           C          1.716085052485    -1.462179671144     0.477004737885    12.000000000000
           H          1.083657052485     0.601363328856     0.562379737885     1.007825032070
           H          0.760128052485    -0.301847671144     2.016399737885     1.007825032070
           C          3.148348052485    -1.306995671144     1.001038737885    12.000000000000
           H          1.734327052485    -1.500307671144    -0.611070262115     1.007825032070
           H          1.330315052485    -2.424373671144     0.807272737885     1.007825032070
           C          3.892347052485    -0.082931671144     0.464612737885    12.000000000000
           H          3.709468052485    -2.199337671144     0.734921737885     1.007825032070
           H          3.132294052485    -1.272558671144     2.088456737885     1.007825032070
           H          3.910074052485    -0.082373671144    -0.622104262115     1.007825032070
           H          3.434113052485     0.845537328856     0.788558737885     1.007825032070
           H          4.921358052485    -0.075493671144     0.811132737885     1.007825032070

  Charge       = 0
  Multiplicity = 1
  Basis Set: 6-31G*
  Basis Set:

    Orbital Energies (a.u.)
    -----------------------

    Doubly Occupied:

       1A    -20.563030     2A    -11.326641     3A    -11.235119
       4A    -11.233618     5A    -11.222062     6A    -11.219254
       7A    -11.216956     8A    -11.215674     9A    -11.209261
      10A     -1.402942    11A     -1.104121    12A     -1.068592
      13A     -1.011644    14A     -0.942268    15A     -0.875700
      16A     -0.821654    17A     -0.786112    18A     -0.780370
      19A     -0.664942    20A     -0.655077    21A     -0.642361
      22A     -0.618589    23A     -0.609190    24A     -0.590332
      25A     -0.573846    26A     -0.547701    27A     -0.539152
      28A     -0.520531    29A     -0.513347    30A     -0.499478
      31A     -0.485316    32A     -0.474757    33A     -0.463017
      34A     -0.456514    35A     -0.440888    36A     -0.410330

  @DF-RHF Final Energy:  -387.11748943274222

   => Energetics <=

    Nuclear Repulsion Energy =            444.1835818686006405
    One-Electron Energy =               -1404.7216488597632633
    Two-Electron Energy =                 573.4205775584186995
    DFT Exchange-Correlation Energy =       0.0000000000000000
    Empirical Dispersion Energy =           0.0000000000000000
    PCM Polarization Energy =               0.0000000000000000
    EFP Energy =                            0.0000000000000000
    Total Energy =                       -387.1174894327439233

  Mulliken Charges: (a.u.)
   Center  Symbol    Alpha    Beta     Spin     Total
       1     H     0.43214  0.43214  0.00000  0.13572
       2     C     2.82991  2.82991  0.00000  0.34018
       3     C     3.20889  3.20889  0.00000 -0.41778
       4     O     4.23839  4.23839  0.00000 -0.47677
       5     C     3.16926  3.16926  0.00000 -0.33852
       6     H     0.39985  0.39985  0.00000  0.20031
       7     H     0.40732  0.40732  0.00000  0.18537
       8     C     3.16033  3.16033  0.00000 -0.32066
       9     H     0.41086  0.41086  0.00000  0.17829
      10     H     0.41713  0.41713  0.00000  0.16574
      11     C     3.15521  3.15521  0.00000 -0.31042
      12     H     0.41345  0.41345  0.00000  0.17310
      13     H     0.41807  0.41807  0.00000  0.16386
      14     C     3.15363  3.15363  0.00000 -0.30725
      15     H     0.42027  0.42027  0.00000  0.15945
      16     H     0.42319  0.42319  0.00000  0.15361
      17     C     3.15269  3.15269  0.00000 -0.30538
      18     H     0.42134  0.42134  0.00000  0.15731
      19     H     0.42210  0.42210  0.00000  0.15580
      20     C     3.24133  3.24133  0.00000 -0.48267
      21     H     0.42026  0.42026  0.00000  0.15948
      22     H     0.42371  0.42371  0.00000  0.15259
      23     H     0.42095  0.42095  0.00000  0.15811
      24     H     0.42080  0.42080  0.00000  0.15839
      25     H     0.41894  0.41894  0.00000  0.16213

   Total alpha = 36.00000, Total beta = 36.00000, Total charge = -0.00000
