  ==> Input File <==

--------------------------------------------------------------------------
set {
	reference rhf
	basis cc-pvtz
}

set_num_threads( 4 )
memory 2 gb

molecule MOL {
0 1

H	 0.903339	 -2.680619	 0.418250
C	 0.701898	 -2.087939	 1.320363
C	 -0.552079	 -1.259624	 1.273101
O	 1.450306	 -2.129616	 2.234574
C	 -0.554654	 -0.292621	 0.086567
H	 -0.649778	 -0.731351	 2.212366
H	 -1.391859	 -1.945390	 1.181595
C	 -1.846385	 0.513195	 -0.016346
H	 0.288130	 0.386583	 0.177867
H	 -0.403976	 -0.848451	 -0.835399
C	 -3.089953	 -0.365049	 -0.098564
H	 -1.798267	 1.154820	 -0.891143
H	 -1.925398	 1.173265	 0.842889
H	 -3.055079	 -1.012299	 -0.968245
H	 -3.988403	 0.236438	 -0.170014
H	 -3.183055	 -0.995885	 0.779079

	symmetry c1
}
set optking {
	frozen_dihedral = ("
		9 5 8 12
	")
}

ee = optimize('scf')
oeprop('DIPOLE', 'QUADRUPOLE', 'MULLIKEN_CHARGES')
f=open( 'psi4out.xyz', 'w' )
f.write( "16  " )
f.write( str(ee) + "\n" )
f.write( MOL.save_string_xyz() )
f.close()
--------------------------------------------------------------------------

    Molecular point group: c1
  Charge       = 0
  Multiplicity = 1
  Basis Set: CC-PVTZ
  Basis Set:
  @DF-RHF Final Energy:  -270.11621116343122
    Total Energy =                       -270.1162111634313874
    Molecular point group: c1
  Basis Set: CC-PVTZ
  Basis Set:
  Basis Set: CC-PVTZ
  Basis Set:
  @DF-RHF Final Energy:  -270.11676567606531
    Total Energy =                       -270.1167656760654836
  Basis Set: CC-PVTZ
  Basis Set:
  Basis Set: CC-PVTZ
  Basis Set:
  @DF-RHF Final Energy:  -270.11724358391274
    Total Energy =                       -270.1172435839127388
  Basis Set: CC-PVTZ
  Basis Set:
  Basis Set: CC-PVTZ
  Basis Set:
  @DF-RHF Final Energy:  -270.11596573290433
    Total Energy =                       -270.1159657329044990
  Basis Set: CC-PVTZ
  Basis Set:
  Basis Set: CC-PVTZ
  Basis Set:
  @DF-RHF Final Energy:  -270.11729708556953
    Total Energy =                       -270.1172970855696462
  Basis Set: CC-PVTZ
  Basis Set:
  Basis Set: CC-PVTZ
  Basis Set:
  @DF-RHF Final Energy:  -270.11733936691940
    Total Energy =                       -270.1173393669196798
  Basis Set: CC-PVTZ
  Basis Set:
  Basis Set: CC-PVTZ
  Basis Set:
  @DF-RHF Final Energy:  -270.11734912604248
    Total Energy =                       -270.1173491260423134
  Basis Set: CC-PVTZ
  Basis Set:
  Charge       = 0
  Multiplicity = 1
  Basis Set: CC-PVTZ
  Basis Set:

    Orbital Energies (a.u.)
    -----------------------

    Doubly Occupied:

       1A    -20.551613     2A    -11.321022     3A    -11.235055
       4A    -11.233343     5A    -11.227925     6A    -11.217772
       7A     -1.406437     8A     -1.097703     9A     -1.016800
      10A     -0.915293    11A     -0.809153    12A     -0.790742
      13A     -0.678680    14A     -0.650343    15A     -0.639743
      16A     -0.596244    17A     -0.577141    18A     -0.570204
      19A     -0.522742    20A     -0.520966    21A     -0.489079
      22A     -0.481454    23A     -0.472087    24A     -0.411748

  @DF-RHF Final Energy:  -270.11735201013857

   => Energetics <=

    Nuclear Repulsion Energy =            232.3285639636128792
    One-Electron Energy =                -826.0252604611316656
    Two-Electron Energy =                 323.5793444873803537
    DFT Exchange-Correlation Energy =       0.0000000000000000
    Empirical Dispersion Energy =           0.0000000000000000
    PCM Polarization Energy =               0.0000000000000000
    EFP Energy =                            0.0000000000000000
    Total Energy =                       -270.1173520101384611
    Molecular point group: c1
  Basis Set: CC-PVTZ
  Basis Set:

  -Total Gradient:
     Atom            X                  Y                   Z
    ------   -----------------  -----------------  -----------------
       1        0.000009683937     0.000028188094    -0.000012094953
       2       -0.000030657766    -0.000076370101     0.000025496822
       3        0.000013973731     0.000038538422    -0.000023931988
       4        0.000000482329     0.000021780170    -0.000003831054
       5       -0.000006577719    -0.000227663769    -0.002412925825
       6        0.000001132099    -0.000003822344     0.000000740149
       7        0.000001038766    -0.000010066131     0.000012372130
       8        0.000899590609     0.001538088261     0.001626482015
       9       -0.000157732268    -0.000040323537     0.001779192539
      10        0.000005548864    -0.000001477526     0.000002780257
      11        0.000030066399    -0.000000067104    -0.000005148810
      12       -0.000776313514    -0.001270733484    -0.001003168521
      13       -0.000006575819    -0.000004278676     0.000005001573
      14        0.000007248004     0.000000108189     0.000006248850
      15        0.000007219385     0.000008851492    -0.000003726506
      16        0.000001872970    -0.000000751954     0.000006513327

  **** Optimization is complete! (in 8 steps) ****
    Final optimized geometry and variables:
    Molecular point group: c1

    Geometry (in Angstrom), charge = 0, multiplicity = 1:

    H            1.663320955814    -1.694035255231    -0.382231503482
    C            1.411910765353    -1.120607149950     0.519858295539
    C            0.105934964322    -0.378442095216     0.460439259462
    O            2.151094674397    -1.116090169281     1.442597986533
    C            0.067636499300     0.593709353292    -0.724370614853
    H           -0.035943292118     0.140852105307     1.399669337613
    H           -0.679992483935    -1.121570340807     0.360854248705
    C           -1.209920034284     1.431039320968    -0.807323457059
    H            0.914130056268     1.267467482749    -0.634673792925
    H            0.199273029604     0.041224406184    -1.650750323500
    C           -2.499960795244     0.621959378247    -0.918977891313
    H           -1.133147213533     2.070535684250    -1.680645445066
    H           -1.266798968868     2.086671123499     0.056074904386
    H           -2.458095135974    -0.068544374912    -1.755493639891
    H           -3.347146499527     1.278612353379    -1.077353332067
    H           -2.700183748673     0.046970922413    -0.023031187993

  Mulliken Charges: (a.u.)
   Center  Symbol    Alpha    Beta     Spin     Total
       1     H     0.46586  0.46586  0.00000  0.06828
       2     C     2.90942  2.90942  0.00000  0.18116
       3     C     3.07932  3.07932  0.00000 -0.15865
       4     O     4.16393  4.16393  0.00000 -0.32787
       5     C     3.10953  3.10953  0.00000 -0.21905
       6     H     0.44260  0.44260  0.00000  0.11480
       7     H     0.44885  0.44885  0.00000  0.10230
       8     C     3.08991  3.08991  0.00000 -0.17983
       9     H     0.44103  0.44103  0.00000  0.11794
      10     H     0.44961  0.44961  0.00000  0.10078
      11     C     3.15542  3.15542  0.00000 -0.31083
      12     H     0.44604  0.44604  0.00000  0.10791
      13     H     0.44918  0.44918  0.00000  0.10164
      14     H     0.45364  0.45364  0.00000  0.09272
      15     H     0.44341  0.44341  0.00000  0.11318
      16     H     0.45225  0.45225  0.00000  0.09551

   Total alpha = 24.00000, Total beta = 24.00000, Total charge = -0.00000
