  ==> Input File <==

--------------------------------------------------------------------------
set {
	reference rhf
	basis 6-31G*
}

set_num_threads( 1 )
memory 2 gb

molecule MOL {
0 1

H	 -3.420663	 1.227371	 -1.044276
O	 -3.452007	 0.283848	 -0.965577
C	 -3.181085	 -0.079926	 0.364119
C	 -1.765924	 0.277073	 0.805136
H	 -3.327791	 -1.152017	 0.410903
H	 -3.905698	 0.375695	 1.036898
C	 -0.677594	 -0.417312	 -0.014550
H	 -1.637766	 1.358238	 0.744969
H	 -1.659588	 0.017670	 1.857098
C	 0.738335	 -0.034840	 0.421385
H	 -0.814977	 -0.178223	 -1.064632
H	 -0.802730	 -1.495410	 0.071702
C	 1.757019	 -0.134998	 -0.717182
H	 0.724553	 0.976903	 0.819639
H	 1.052110	 -0.681021	 1.240287
C	 3.206278	 0.152847	 -0.308587
H	 1.468930	 0.544015	 -1.518208
H	 1.710148	 -1.136979	 -1.138672
C	 3.467763	 1.593438	 0.134954
H	 3.853364	 -0.074370	 -1.152353
H	 3.497408	 -0.528784	 0.488172
H	 3.174060	 2.298830	 -0.637898
H	 4.522875	 1.748557	 0.338707
H	 2.922231	 1.846096	 1.038127

	symmetry c1
}
set optking {
	frozen_dihedral = ("
		20 16 13 17,
		17 13 10 7,
		11 7 4 3,
		1 2 3 5,
		7 4 3 2
	")
}

ee = energy('scf')
oeprop('DIPOLE', 'QUADRUPOLE', 'MULLIKEN_CHARGES')
f=open( 'psi4out.xyz', 'w' )
f.write( "24  " )
f.write( str(ee) + "\n" )
f.write( MOL.save_string_xyz() )
f.close()
--------------------------------------------------------------------------

    Molecular point group: c1

    Geometry (in Angstrom), charge = 0, multiplicity = 1:

       Center              X                  Y                   Z               Mass
    ------------   -----------------  -----------------  -----------------  -----------------
           H         -3.375339046930     1.003444666665    -0.995026171525     1.007825032070
           O         -3.406683046930     0.059921666665    -0.916327171525    15.994914619560
           C         -3.135761046930    -0.303852333335     0.413368828475    12.000000000000
           C         -1.720600046930     0.053146666665     0.854385828475    12.000000000000
           H         -3.282467046930    -1.375943333335     0.460152828475     1.007825032070
           H         -3.860374046930     0.151768666665     1.086147828475     1.007825032070
           C         -0.632270046930    -0.641238333335     0.034699828475    12.000000000000
           H         -1.592442046930     1.134311666665     0.794218828475     1.007825032070
           H         -1.614264046930    -0.206256333335     1.906347828475     1.007825032070
           C          0.783658953070    -0.258766333335     0.470634828475    12.000000000000
           H         -0.769653046930    -0.402149333335    -1.015382171525     1.007825032070
           H         -0.757406046930    -1.719336333335     0.120951828475     1.007825032070
           C          1.802342953070    -0.358924333335    -0.667932171525    12.000000000000
           H          0.769876953070     0.752976666665     0.868888828475     1.007825032070
           H          1.097433953070    -0.904947333335     1.289536828475     1.007825032070
           C          3.251601953070    -0.071079333335    -0.259337171525    12.000000000000
           H          1.514253953070     0.320088666665    -1.468958171525     1.007825032070
           H          1.755471953070    -1.360905333335    -1.089422171525     1.007825032070
           C          3.513086953070     1.369511666665     0.184203828475    12.000000000000
           H          3.898687953070    -0.298296333335    -1.103103171525     1.007825032070
           H          3.542731953070    -0.752710333335     0.537421828475     1.007825032070
           H          3.219383953070     2.074903666665    -0.588648171525     1.007825032070
           H          4.568198953070     1.524630666665     0.387956828475     1.007825032070
           H          2.967554953070     1.622169666665     1.087376828475     1.007825032070

  Charge       = 0
  Multiplicity = 1
  Basis Set: 6-31G*
  Basis Set:

    Orbital Energies (a.u.)
    -----------------------

    Doubly Occupied:

       1A    -20.553533     2A    -11.267478     3A    -11.217592
       4A    -11.213860     5A    -11.212029     6A    -11.211395
       7A    -11.210401     8A    -11.207504     9A     -1.360089
      10A     -1.088601    11A     -1.048196    12A     -0.985536
      13A     -0.914932    14A     -0.850354    15A     -0.801369
      16A     -0.776477    17A     -0.679656    18A     -0.648583
      19A     -0.628487    20A     -0.617601    21A     -0.598818
      22A     -0.587626    23A     -0.550424    24A     -0.547614
      25A     -0.513691    26A     -0.506453    27A     -0.502148
      28A     -0.471702    29A     -0.467406    30A     -0.458642
      31A     -0.455306    32A     -0.451047    33A     -0.418155

  @DF-RHF Final Energy:  -349.24510176814618

   => Energetics <=

    Nuclear Repulsion Energy =            385.4464316464728313
    One-Electron Energy =               -1237.3376883801777240
    Two-Electron Energy =                 502.6461549655590488
    DFT Exchange-Correlation Energy =       0.0000000000000000
    Empirical Dispersion Energy =           0.0000000000000000
    PCM Polarization Energy =               0.0000000000000000
    EFP Energy =                            0.0000000000000000
    Total Energy =                       -349.2451017681459007

  Mulliken Charges: (a.u.)
   Center  Symbol    Alpha    Beta     Spin     Total
       1     H     0.28340  0.28340  0.00000  0.43320
       2     O     4.36824  4.36824  0.00000 -0.73647
       3     C     2.99648  2.99648  0.00000  0.00703
       4     C     3.17025  3.17025  0.00000 -0.34050
       5     H     0.41637  0.41637  0.00000  0.16726
       6     H     0.42824  0.42824  0.00000  0.14353
       7     C     3.15314  3.15314  0.00000 -0.30627
       8     H     0.42806  0.42806  0.00000  0.14387
       9     H     0.42220  0.42220  0.00000  0.15560
      10     C     3.15465  3.15465  0.00000 -0.30931
      11     H     0.41106  0.41106  0.00000  0.17788
      12     H     0.42206  0.42206  0.00000  0.15587
      13     C     3.15353  3.15353  0.00000 -0.30705
      14     H     0.42254  0.42254  0.00000  0.15492
      15     H     0.42328  0.42328  0.00000  0.15343
      16     C     3.15269  3.15269  0.00000 -0.30537
      17     H     0.42410  0.42410  0.00000  0.15180
      18     H     0.42133  0.42133  0.00000  0.15734
      19     C     3.24098  3.24098  0.00000 -0.48196
      20     H     0.42113  0.42113  0.00000  0.15774
      21     H     0.42365  0.42365  0.00000  0.15271
      22     H     0.42271  0.42271  0.00000  0.15458
      23     H     0.41946  0.41946  0.00000  0.16107
      24     H     0.42046  0.42046  0.00000  0.15909

   Total alpha = 33.00000, Total beta = 33.00000, Total charge = -0.00000
