  ==> Input File <==

--------------------------------------------------------------------------
set {
	reference rhf
	basis 6-31G*
}

set_num_threads( 4 )
memory 2 gb

molecule MOL {
0 1

H	 -2.151143	 1.420102	 1.160685
C	 -2.360571	 0.393871	 0.884399
C	 -1.095386	 -0.454469	 0.933265
H	 -2.783385	 0.403707	 -0.112804
H	 -3.105357	 0.000352	 1.568294
C	 -0.000005	 0.033229	 -0.000001
H	 -1.314951	 -1.489813	 0.679792
H	 -0.688256	 -0.482398	 1.942155
C	 1.290528	 -0.768786	 0.000276
O	 -0.145205	 0.992346	 -0.694404
C	 2.545731	 0.095645	 -0.000061
H	 1.275672	 -1.427874	 -0.865626
H	 1.275566	 -1.427086	 0.866768
H	 2.577157	 0.734767	 -0.874036
H	 3.433520	 -0.528139	 0.000137
H	 2.577172	 0.735117	 0.873581

	symmetry c1
}
set optking {
	frozen_dihedral = ("
		3 6 9 12
	")
}

ee = optimize('scf')
oeprop('DIPOLE', 'QUADRUPOLE', 'MULLIKEN_CHARGES')
f=open( 'psi4out.xyz', 'w' )
f.write( "16  " )
f.write( str(ee) + "\n" )
f.write( MOL.save_string_xyz() )
f.close()
--------------------------------------------------------------------------

    Molecular point group: c1
  Charge       = 0
  Multiplicity = 1
  Basis Set: 6-31G*
  Basis Set:
  @DF-RHF Final Energy:  -270.03162517306430
    Total Energy =                       -270.0316251730645263
    Molecular point group: c1
  Basis Set: 6-31G*
  Basis Set:
  Basis Set: 6-31G*
  Basis Set:
  @DF-RHF Final Energy:  -270.03213436356771
    Total Energy =                       -270.0321343635677067
  Basis Set: 6-31G*
  Basis Set:
  Basis Set: 6-31G*
  Basis Set:
  @DF-RHF Final Energy:  -270.03145177361364
    Total Energy =                       -270.0314517736137532
  Basis Set: 6-31G*
  Basis Set:
  Basis Set: 6-31G*
  Basis Set:
  @DF-RHF Final Energy:  -270.03217417715518
    Total Energy =                       -270.0321741771550137
  Basis Set: 6-31G*
  Basis Set:
  Basis Set: 6-31G*
  Basis Set:
  @DF-RHF Final Energy:  -270.03217641893832
    Total Energy =                       -270.0321764189382066
  Basis Set: 6-31G*
  Basis Set:
  Charge       = 0
  Multiplicity = 1
  Basis Set: 6-31G*
  Basis Set:

    Orbital Energies (a.u.)
    -----------------------

    Doubly Occupied:

       1A    -20.549350     2A    -11.323879     3A    -11.234459
       4A    -11.233137     5A    -11.217582     6A    -11.213459
       7A     -1.395402     8A     -1.068245     9A     -1.036630
      10A     -0.914814    11A     -0.848519    12A     -0.725058
      13A     -0.666659    14A     -0.643201    15A     -0.621891
      16A     -0.603883    17A     -0.562320    18A     -0.533063
      19A     -0.525918    20A     -0.511247    21A     -0.501944
      22A     -0.496364    23A     -0.478553    24A     -0.397473

  @DF-RHF Final Energy:  -270.03217650989018

   => Energetics <=

    Nuclear Repulsion Energy =            239.9508049503253915
    One-Electron Energy =                -841.3598633469600827
    Two-Electron Energy =                 331.3768818867446271
    DFT Exchange-Correlation Energy =       0.0000000000000000
    Empirical Dispersion Energy =           0.0000000000000000
    PCM Polarization Energy =               0.0000000000000000
    EFP Energy =                            0.0000000000000000
    Total Energy =                       -270.0321765098900642
    Molecular point group: c1
  Basis Set: 6-31G*
  Basis Set:

  -Total Gradient:
     Atom            X                  Y                   Z
    ------   -----------------  -----------------  -----------------
       1        0.000003644224    -0.000002965536     0.000001131539
       2       -0.000008672592    -0.000012094883    -0.000009455365
       3        0.000381198750     0.000552742381     0.000754791710
       4       -0.000000056462     0.000002319203     0.000002313483
       5       -0.000002622678     0.000002667548     0.000000350985
       6       -0.000428665103    -0.000597552327    -0.001208420216
       7        0.000003324918     0.000006655047    -0.000004691272
       8       -0.000003181117    -0.000007565758     0.000004189739
       9       -0.000526399524    -0.000868903961     0.001115012862
      10       -0.000002962493     0.000009083945    -0.000002170415
      11        0.000010352385     0.000014697978    -0.000005138596
      12        0.000587364274     0.000915380080    -0.000647471473
      13       -0.000005312731     0.000001537827    -0.000004147065
      14       -0.000002911071    -0.000000967533     0.000003424813
      15        0.000001107632    -0.000007254740     0.000002721603
      16       -0.000006208410    -0.000007779268    -0.000002442333

  **** Optimization is complete! (in 6 steps) ****
    Final optimized geometry and variables:
    Molecular point group: c1

    Geometry (in Angstrom), charge = 0, multiplicity = 1:

    H           -2.251737105870     1.346142015810     0.893532183968
    C           -2.429957491326     0.307884215779     0.642528425418
    C           -1.147448338940    -0.506821543091     0.751656784692
    H           -2.823979015816     0.278571539785    -0.366386178500
    H           -3.185498488365    -0.083384182016     1.315834913338
    C           -0.031985723728    -0.017571812186    -0.151358240782
    H           -1.329220604247    -1.556149292810     0.525107417801
    H           -0.764914222781    -0.494038697297     1.771359097672
    C            1.241749058129    -0.849744330191    -0.184637189294
    O           -0.138990511534     0.970822780744    -0.811569358521
    C            2.505240534155     0.009736436506    -0.228145685973
    H            1.189124232907    -1.458627478505    -1.085345648666
    H            1.266014477932    -1.535092858395     0.656603178238
    H            2.475218949957     0.686260310304    -1.071840662078
    H            3.387107671108    -0.615764303357    -0.316255312004
    H            2.605408117036     0.604188222859     0.674392843434

  Mulliken Charges: (a.u.)
   Center  Symbol    Alpha    Beta     Spin     Total
       1     H     0.40920  0.40920  0.00000  0.18160
       2     C     3.23539  3.23539  0.00000 -0.47079
       3     C     3.20845  3.20845  0.00000 -0.41690
       4     H     0.41170  0.41170  0.00000  0.17659
       5     H     0.41997  0.41997  0.00000  0.16005
       6     C     2.73286  2.73286  0.00000  0.53427
       7     H     0.40943  0.40943  0.00000  0.18114
       8     H     0.40784  0.40784  0.00000  0.18432
       9     C     3.20308  3.20308  0.00000 -0.40616
      10     O     4.26668  4.26668  0.00000 -0.53337
      11     C     3.24094  3.24094  0.00000 -0.48188
      12     H     0.40318  0.40318  0.00000  0.19365
      13     H     0.41391  0.41391  0.00000  0.17218
      14     H     0.40173  0.40173  0.00000  0.19654
      15     H     0.41756  0.41756  0.00000  0.16488
      16     H     0.41806  0.41806  0.00000  0.16387

   Total alpha = 24.00000, Total beta = 24.00000, Total charge =  0.00000
