  ==> Input File <==

--------------------------------------------------------------------------
set {
	reference rhf
	basis 6-31G*
}

set_num_threads( 4 )
memory 2 gb

molecule MOL {
0 1

H	 2.016982	 -1.292687	 -0.850321
O	 2.016064	 -0.864478	 0.000222
C	 1.050492	 0.053836	 0.000068
C	 -0.318135	 -0.576402	 0.000164
O	 1.285279	 1.218255	 -0.000078
C	 -1.454360	 0.441875	 -0.000474
H	 -0.374042	 -1.230163	 -0.866135
H	 -0.374274	 -1.229227	 0.867154
C	 -2.826123	 -0.230780	 0.000056
H	 -1.357605	 1.085198	 -0.868380
H	 -1.357504	 1.086451	 0.866496
H	 -2.959731	 -0.858053	 -0.876869
H	 -3.619374	 0.509403	 -0.000080
H	 -2.959371	 -0.857318	 0.877556

	symmetry c1
}
set optking {
	frozen_dihedral = ("
		1 2 3 5
	")
}

ee = optimize('scf')
oeprop('DIPOLE', 'QUADRUPOLE', 'MULLIKEN_CHARGES')
f=open( 'psi4out.xyz', 'w' )
f.write( "14  " )
f.write( str(ee) + "\n" )
f.write( MOL.save_string_xyz() )
f.close()
--------------------------------------------------------------------------

    Molecular point group: c1
  Charge       = 0
  Multiplicity = 1
  Basis Set: 6-31G*
  Basis Set:
  @DF-RHF Final Energy:  -305.85807917892316
    Total Energy =                       -305.8580791789231057
    Molecular point group: c1
  Basis Set: 6-31G*
  Basis Set:
  Basis Set: 6-31G*
  Basis Set:
  @DF-RHF Final Energy:  -305.85952043796209
    Total Energy =                       -305.8595204379622032
  Basis Set: 6-31G*
  Basis Set:
  Basis Set: 6-31G*
  Basis Set:
  @DF-RHF Final Energy:  -305.85863031694964
    Total Energy =                       -305.8586303169494727
  Basis Set: 6-31G*
  Basis Set:
  Basis Set: 6-31G*
  Basis Set:
  @DF-RHF Final Energy:  -305.85976518408620
    Total Energy =                       -305.8597651840862000
  Basis Set: 6-31G*
  Basis Set:
  Basis Set: 6-31G*
  Basis Set:
  @DF-RHF Final Energy:  -305.85977605536891
    Total Energy =                       -305.8597760553686840
  Basis Set: 6-31G*
  Basis Set:
  Basis Set: 6-31G*
  Basis Set:
  @DF-RHF Final Energy:  -305.85977707379084
    Total Energy =                       -305.8597770737909514
  Basis Set: 6-31G*
  Basis Set:
  Charge       = 0
  Multiplicity = 1
  Basis Set: 6-31G*
  Basis Set:

    Orbital Energies (a.u.)
    -----------------------

    Doubly Occupied:

       1A    -20.596501     2A    -20.561588     3A    -11.381852
       4A    -11.246345     5A    -11.228619     6A    -11.220060
       7A     -1.460966     8A     -1.368870     9A     -1.084729
      10A     -0.976949    11A     -0.851309    12A     -0.803162
      13A     -0.714643    14A     -0.673169    15A     -0.662058
      16A     -0.629935    17A     -0.580585    18A     -0.562756
      19A     -0.544503    20A     -0.505780    21A     -0.497137
      22A     -0.485727    23A     -0.482252    24A     -0.444189

  @DF-RHF Final Energy:  -305.85977713805812

   => Energetics <=

    Nuclear Repulsion Energy =            239.2082158405611381
    One-Electron Energy =                -891.0086117047371772
    Two-Electron Energy =                 345.9406187261179184
    DFT Exchange-Correlation Energy =       0.0000000000000000
    Empirical Dispersion Energy =           0.0000000000000000
    PCM Polarization Energy =               0.0000000000000000
    EFP Energy =                            0.0000000000000000
    Total Energy =                       -305.8597771380581207
    Molecular point group: c1
  Basis Set: 6-31G*
  Basis Set:

  -Total Gradient:
     Atom            X                  Y                   Z
    ------   -----------------  -----------------  -----------------
       1        0.002181971701     0.002446000820    -0.001062426677
       2       -0.002701626739    -0.003067488526    -0.000024208453
       3        0.000457448851     0.000540638463     0.004133360681
       4        0.000012281913    -0.000010755334     0.000000376065
       5        0.000039723633     0.000084207524    -0.003032467522
       6       -0.000003941900     0.000001196854    -0.000019167927
       7        0.000003827627     0.000004852814    -0.000005581394
       8        0.000002725961    -0.000001540267    -0.000003419684
       9        0.000004613703    -0.000000817532     0.000011139475
      10        0.000002228307    -0.000001473882    -0.000000999133
      11       -0.000003592164     0.000004289114     0.000003616710
      12        0.000001005679     0.000003471548    -0.000002341487
      13        0.000003514960     0.000000975901     0.000002809132
      14       -0.000000181539    -0.000003557496    -0.000000689785

  **** Optimization is complete! (in 7 steps) ****
    Final optimized geometry and variables:
    Molecular point group: c1

    Geometry (in Angstrom), charge = 0, multiplicity = 1:

    H            2.138709075019    -1.282516120028    -0.856873286434
    O            2.067886777383    -0.853345227987    -0.013146023364
    C            1.057738717194     0.057163157522     0.003981908198
    C           -0.320428745107    -0.561710902304     0.004900712347
    O            1.280117009931     1.214261014335     0.048359164594
    C           -1.455624177866     0.457487722704    -0.000097789924
    H           -0.391505879646    -1.225302860132    -0.855687279655
    H           -0.375940261790    -1.209674774094     0.876096176587
    C           -2.829469712179    -0.210808244563     0.011746088095
    H           -1.361237687702     1.094796377348    -0.873093419762
    H           -1.351686389518     1.107478176935     0.861607894187
    H           -2.970228162408    -0.843744996102    -0.860153972804
    H           -3.620251848570     0.531908428144     0.010447480249
    H           -2.960253218655    -0.830546397681     0.894340170890

  Mulliken Charges: (a.u.)
   Center  Symbol    Alpha    Beta     Spin     Total
       1     H     0.26773  0.26773  0.00000  0.46454
       2     O     4.36730  4.36730  0.00000 -0.73460
       3     C     2.62622  2.62622  0.00000  0.74757
       4     C     3.21309  3.21309  0.00000 -0.42619
       5     O     4.24563  4.24563  0.00000 -0.49126
       6     C     3.15219  3.15219  0.00000 -0.30438
       7     H     0.41300  0.41300  0.00000  0.17399
       8     H     0.39684  0.39684  0.00000  0.20632
       9     C     3.24307  3.24307  0.00000 -0.48613
      10     H     0.41161  0.41161  0.00000  0.17678
      11     H     0.40755  0.40755  0.00000  0.18491
      12     H     0.42195  0.42195  0.00000  0.15610
      13     H     0.41365  0.41365  0.00000  0.17269
      14     H     0.42017  0.42017  0.00000  0.15966

   Total alpha = 24.00000, Total beta = 24.00000, Total charge =  0.00000
