                              Psi4 1.0.54 Driver

  ==> Input File <==

--------------------------------------------------------------------------
set {
	reference rhf
	basis cc-pvtz
}

set_num_threads( 4 )
memory 2 gb

molecule MOL {
0 1

O	 -2.081319	 -0.951530	 -0.502732
N	 -1.613558	 0.006676	 0.014756
C	 -0.329345	 -0.171618	 0.743966
O	 -2.068523	 1.100482	 -0.024385
C	 0.835904	 0.041968	 -0.213982
H	 -0.346048	 -1.174374	 1.137184
H	 -0.333613	 0.555559	 1.538590
C	 2.177039	 -0.130175	 0.494460
H	 0.754456	 -0.665923	 -1.030569
H	 0.765464	 1.037260	 -0.637266
C	 3.361305	 0.099961	 -0.437759
H	 2.237234	 -1.129446	 0.915494
H	 2.235186	 0.561039	 1.330073
H	 3.348322	 -0.599681	 -1.266028
H	 3.344946	 1.102661	 -0.850119
H	 4.299082	 -0.026907	 0.089158

	symmetry c1
}
set optking {
	frozen_dihedral = ("
		11 8 5 9
	")
}

ee,wfn = optimize('scf', return_wfn=True)
oeprop( wfn, 'DIPOLE', 'QUADRUPOLE', 'MULLIKEN_CHARGES')
f=open( 'psi4out.xyz', 'w' )
f.write( "16  " )
f.write( str(ee) + "\n" )
f.write( MOL.save_string_xyz() )
f.close()
--------------------------------------------------------------------------

    Molecular point group: c1
  Charge       = 0
  Multiplicity = 1
  Basis Set: CC-PVTZ
  Basis Set:
  @DF-RHF Final Energy:  -360.90953101193372
    Total Energy =                       -360.9095310119334954
    Molecular point group: c1
  Basis Set: CC-PVTZ
  Basis Set:
  Basis Set: CC-PVTZ
  Basis Set:
  @DF-RHF Final Energy:  -360.90952604601375
    Total Energy =                       -360.9095260460139798
  Basis Set: CC-PVTZ
  Basis Set:
  Basis Set: CC-PVTZ
  Basis Set:
  @DF-RHF Final Energy:  -360.90950325286133
    Total Energy =                       -360.9095032528615548
  Basis Set: CC-PVTZ
  Basis Set:
  Basis Set: CC-PVTZ
  Basis Set:
  @DF-RHF Final Energy:  -360.90953156274963
    Total Energy =                       -360.9095315627500895
  Basis Set: CC-PVTZ
  Basis Set:
  Charge       = 0
  Multiplicity = 1
  Basis Set: CC-PVTZ
  Basis Set:

    Orbital Energies (a.u.)
    -----------------------

    Doubly Occupied:

       1A    -20.589664     2A    -20.589606     3A    -15.836198
       4A    -11.296252     5A    -11.250737     6A    -11.241928
       7A    -11.225937     8A     -1.635183     9A     -1.419489
      10A     -1.136691    11A     -1.060180    12A     -0.948777
      13A     -0.843371    14A     -0.829318    15A     -0.757695
      16A     -0.737930    17A     -0.727977    18A     -0.679627
      19A     -0.615691    20A     -0.607954    21A     -0.567829
      22A     -0.542264    23A     -0.517332    24A     -0.504220
      25A     -0.496895    26A     -0.486061    27A     -0.469956
      28A     -0.452170

  @DF-RHF Final Energy:  -360.90953168662531

   => Energetics <=

    Nuclear Repulsion Energy =            313.0144944538305936
    One-Electron Energy =               -1111.7141883892684291
    Two-Electron Energy =                 437.7901622488127487
    DFT Exchange-Correlation Energy =       0.0000000000000000
    Empirical Dispersion Energy =           0.0000000000000000
    PCM Polarization Energy =               0.0000000000000000
    EFP Energy =                            0.0000000000000000
    Total Energy =                       -360.9095316866250869
    Molecular point group: c1
  Basis Set: CC-PVTZ
  Basis Set:

  -Total Gradient:
     Atom            X                  Y                   Z
    ------   -----------------  -----------------  -----------------
       1        0.000000262569     0.000007888562     0.000000949463
       2        0.000000278553    -0.000005796759    -0.000002537844
       3        0.000005719705    -0.000000112308     0.000000300767
       4       -0.000003364505    -0.000001238831    -0.000001365943
       5        0.000090693676     0.000190819930    -0.000118326038
       6       -0.000000950618    -0.000001848123     0.000001222446
       7        0.000002453127    -0.000001262668    -0.000001716555
       8       -0.000021839370    -0.000201130431    -0.000004919532
       9       -0.000073023574    -0.000114273872     0.000110269361
      10       -0.000001447072     0.000003353079    -0.000005183141
      11        0.000010431499     0.000127451497     0.000013138814
      12       -0.000002341704    -0.000002080271     0.000002566727
      13       -0.000002486408    -0.000000712146     0.000002795322
      14        0.000000875827    -0.000000331204     0.000002125183
      15        0.000000853872    -0.000001589811    -0.000000297819
      16       -0.000006115574     0.000000863360     0.000000978786

  **** Optimization is complete! (in 5 steps) ****
    Final optimized geometry and variables:
    Molecular point group: c1

    Geometry (in Angstrom), charge = 0, multiplicity = 1:

    O           -2.081649243322    -0.953643182150    -0.500124165919
    N           -1.613565935268     0.005718430543     0.015161151432
    C           -0.328908168606    -0.170723025641     0.744017882499
    O           -2.068792184012     1.099375295494    -0.025797835523
    C            0.835944485888     0.041859754182    -0.214769804932
    H           -0.344936598169    -1.172722325261     1.139141462403
    H           -0.333125621964     0.557933608817     1.537329134674
    C            2.177170248695    -0.134027699254     0.492644424275
    H            0.752080185774    -0.665936142039    -1.031242573012
    H            0.766877879502     1.037553189631    -0.637165831765
    C            3.361383103992     0.092758682109    -0.440548056575
    H            2.234519044218    -1.133108296448     0.914407357572
    H            2.238256785973     0.557673618591     1.327709994741
    H            3.344492293804    -0.605056717039    -1.270318704946
    H            3.348803344436     1.096377849399    -0.850729090775
    H            4.299199832774    -0.039307042604     0.085009001700

  Mulliken Charges: (a.u.)
   Center  Symbol    Alpha    Beta     Spin     Total
       1     O     4.17415  4.17415  0.00000 -0.34830
       2     N     3.27558  3.27558  0.00000  0.44883
       3     C     3.04017  3.04017  0.00000 -0.08034
       4     O     4.17414  4.17414  0.00000 -0.34828
       5     C     3.10121  3.10121  0.00000 -0.20242
       6     H     0.43396  0.43396  0.00000  0.13208
       7     H     0.43390  0.43390  0.00000  0.13219
       8     C     3.09352  3.09352  0.00000 -0.18705
       9     H     0.43781  0.43781  0.00000  0.12437
      10     H     0.43793  0.43793  0.00000  0.12415
      11     C     3.14826  3.14826  0.00000 -0.29652
      12     H     0.45020  0.45020  0.00000  0.09960
      13     H     0.45054  0.45054  0.00000  0.09893
      14     H     0.45172  0.45172  0.00000  0.09655
      15     H     0.45172  0.45172  0.00000  0.09656
      16     H     0.44518  0.44518  0.00000  0.10964

   Total alpha = 28.00000, Total beta = 28.00000, Total charge = -0.00000

*** Psi4 exiting successfully. Buy a developer a beer!
