                              Psi4 1.0.54 Driver

  ==> Input File <==

--------------------------------------------------------------------------
set {
	reference rhf
	basis cc-pvtz
}

set_num_threads( 4 )
memory 2 gb

molecule MOL {
0 1

O	 -0.188430	 1.053609	 1.086410
C	 -0.392132	 0.004453	 0.578811
C	 -1.731251	 -0.671639	 0.505915
O	 0.550743	 -0.719877	 0.000412
H	 -1.996836	 -0.840204	 -0.529679
H	 -2.473990	 -0.054673	 0.984690
H	 -1.677349	 -1.636801	 0.992735
C	 1.863204	 -0.194033	 0.000410
H	 2.031502	 0.409177	 -0.879273
H	 2.524488	 -1.045142	 0.000793
H	 2.031291	 0.409823	 0.879686

	symmetry c1
}
set optking {
	frozen_dihedral = ("
		2 4 8 9
	")
}

ee,wfn = optimize('scf', return_wfn=True)
oeprop( wfn, 'DIPOLE', 'QUADRUPOLE', 'MULLIKEN_CHARGES')
f=open( 'psi4out.xyz', 'w' )
f.write( "11  " )
f.write( str(ee) + "\n" )
f.write( MOL.save_string_xyz() )
f.close()
--------------------------------------------------------------------------

    Molecular point group: c1
  Charge       = 0
  Multiplicity = 1
  Basis Set: CC-PVTZ
  Basis Set:
  @DF-RHF Final Energy:  -266.93794927367105
    Total Energy =                       -266.9379492736710517
    Molecular point group: c1
  Basis Set: CC-PVTZ
  Basis Set:
  Basis Set: CC-PVTZ
  Basis Set:
  @DF-RHF Final Energy:  -265.99704382419418
    Total Energy =                       -265.9970438241941224
  Basis Set: CC-PVTZ
  Basis Set:
  Basis Set: CC-PVTZ
  Basis Set:
  @DF-RHF Final Energy:  -266.17773970507153
    Total Energy =                       -266.1777397050716445
  Basis Set: CC-PVTZ
  Basis Set:
  Basis Set: CC-PVTZ
  Basis Set:
  @DF-RHF Final Energy:  -266.52869402569661
    Total Energy =                       -266.5286940256963817
  Basis Set: CC-PVTZ
  Basis Set:
  @DF-RHF Final Energy:  -266.82636201128196
    Total Energy =                       -266.8263620112820718
  @DF-RHF Final Energy:  -266.92501310161481
    Total Energy =                       -266.9250131016151499
  @DF-RHF Final Energy:  -266.93805355476468
    Total Energy =                       -266.9380535547647355
  @DF-RHF Final Energy:  -266.93814208349141
    Total Energy =                       -266.9381420834914707
  Basis Set: CC-PVTZ
  Basis Set:
  @DF-RHF Final Energy:  -266.93808900933141
    Total Energy =                       -266.9380890093314633
  Basis Set: CC-PVTZ
  Basis Set:
  Basis Set: CC-PVTZ
  Basis Set:
  @DF-RHF Final Energy:  -266.93818412541799
    Total Energy =                       -266.9381841254180472
  Basis Set: CC-PVTZ
  Basis Set:
  Basis Set: CC-PVTZ
  Basis Set:
  @DF-RHF Final Energy:  -266.93818582315805
    Total Energy =                       -266.9381858231578235
  Basis Set: CC-PVTZ
  Basis Set:
  Charge       = 0
  Multiplicity = 1
  Basis Set: CC-PVTZ
  Basis Set:

    Orbital Energies (a.u.)
    -----------------------

    Doubly Occupied:

       1A    -20.598280     2A    -20.534869     3A    -11.369433
       4A    -11.279365     5A    -11.232888     6A     -1.472927
       7A     -1.367974     8A     -1.037009     9A     -0.954039
      10A     -0.779572    11A     -0.698774    12A     -0.683316
      13A     -0.681097    14A     -0.597106    15A     -0.592994
      16A     -0.561708    17A     -0.529073    18A     -0.522875
      19A     -0.460697    20A     -0.445731

  @DF-RHF Final Energy:  -266.93818645662185

   => Energetics <=

    Nuclear Repulsion Energy =            183.4542143529931195
    One-Electron Energy =                -727.9853466162310269
    Two-Electron Energy =                 277.5929458066159441
    DFT Exchange-Correlation Energy =       0.0000000000000000
    Empirical Dispersion Energy =           0.0000000000000000
    PCM Polarization Energy =               0.0000000000000000
    EFP Energy =                            0.0000000000000000
    Total Energy =                       -266.9381864566219065
    Molecular point group: c1
  Basis Set: CC-PVTZ
  Basis Set:

  -Total Gradient:
     Atom            X                  Y                   Z
    ------   -----------------  -----------------  -----------------
       1       -0.000031037144    -0.000096443933     0.000080597634
       2        0.000122142067     0.000753611440     0.001183175576
       3        0.000043688974    -0.000012609514    -0.000070491000
       4       -0.000094438326    -0.001344598437    -0.001626352614
       5        0.000000057869    -0.000009728799    -0.000009937837
       6        0.000023478357    -0.000002017950     0.000000140846
       7        0.000008615401     0.000048914975     0.000049306671
       8       -0.000815921182     0.001997643666    -0.000177219266
       9        0.000749477480    -0.001334543347     0.000583754718
      10       -0.000006216880    -0.000015768327    -0.000025521058
      11        0.000000153386     0.000015540225     0.000012546330

  **** Optimization is complete! (in 12 steps) ****
    Final optimized geometry and variables:
    Molecular point group: c1

    Geometry (in Angstrom), charge = 0, multiplicity = 1:

    O           -0.464580298638     1.142418828167    -0.578403491767
    C           -0.463075820602     0.108285475779    -0.004121821848
    C           -1.685722410379    -0.569365124788     0.545435365559
    O            0.627921650653    -0.600366329651     0.235677816739
    H           -1.772086768769    -1.562662185511     0.124824701567
    H           -2.559870222142     0.014297854413     0.307328561960
    H           -1.588713728945    -0.673592934436     1.618567489296
    C            1.875310514793    -0.082443267857    -0.185257153432
    H            2.090592884805    -0.417424931341    -1.190525242111
    H            2.614331254289    -0.485688603406     0.489116092137
    H            1.879772174111     0.993938547805    -0.149508871047

  Mulliken Charges: (a.u.)
   Center  Symbol    Alpha    Beta     Spin     Total
       1     O     4.19701  4.19701  0.00000 -0.39403
       2     C     2.79981  2.79981  0.00000  0.40038
       3     C     3.13902  3.13902  0.00000 -0.27803
       4     O     4.14882  4.14882  0.00000 -0.29764
       5     H     0.44515  0.44515  0.00000  0.10971
       6     H     0.43792  0.43792  0.00000  0.12415
       7     H     0.44586  0.44586  0.00000  0.10827
       8     C     3.03432  3.03432  0.00000 -0.06865
       9     H     0.45643  0.45643  0.00000  0.08713
      10     H     0.44807  0.44807  0.00000  0.10386
      11     H     0.44758  0.44758  0.00000  0.10484

   Total alpha = 20.00000, Total beta = 20.00000, Total charge =  0.00000

*** Psi4 exiting successfully. Buy a developer a beer!
