  ==> Input File <==

--------------------------------------------------------------------------
set {
	reference rhf
	basis 6-31G*
}

set_num_threads( 1 )
memory 2 gb

molecule MOL {
0 1

O	 -2.042549	 -1.228399	 -0.269030
C	 -1.653912	 -0.146171	 0.050137
C	 -0.332303	 0.024011	 0.778412
C	 -2.438579	 1.106236	 -0.272369
C	 0.720398	 0.668223	 -0.137385
H	 -0.464495	 0.627914	 1.671838
H	 0.005100	 -0.960776	 1.082181
C	 2.077748	 0.830040	 0.548505
H	 0.369711	 1.642813	 -0.472462
H	 0.828358	 0.053928	 -1.026277
C	 3.128965	 1.462211	 -0.362817
H	 1.960813	 1.438416	 1.442726
H	 2.427542	 -0.143588	 0.883557
H	 2.822786	 2.452560	 -0.687649
H	 3.291229	 0.858583	 -1.250931
H	 4.081181	 1.561757	 0.148458
H	 -3.277823	 0.863061	 -0.908988
H	 -1.806773	 1.843019	 -0.759671
H	 -2.802853	 1.554979	 0.648059

	symmetry c1
}
set optking {
	frozen_dihedral = ("
		11 8 5 9,
		9 5 3 2
	")
}

ee = energy('scf')
oeprop('DIPOLE', 'QUADRUPOLE', 'MULLIKEN_CHARGES')
f=open( 'psi4out.xyz', 'w' )
f.write( "19  " )
f.write( str(ee) + "\n" )
f.write( MOL.save_string_xyz() )
f.close()
--------------------------------------------------------------------------

    Molecular point group: c1

    Geometry (in Angstrom), charge = 0, multiplicity = 1:

       Center              X                  Y                   Z               Mass
    ------------   -----------------  -----------------  -----------------  -----------------
           O         -1.971116048173    -1.623761927058    -0.306272492833    15.994914619560
           C         -1.582479048173    -0.541533927058     0.012894507167    12.000000000000
           C         -0.260870048173    -0.371351927058     0.741169507167    12.000000000000
           C         -2.367146048173     0.710873072942    -0.309611492833    12.000000000000
           C          0.791830951827     0.272860072942    -0.174627492833    12.000000000000
           H         -0.393062048173     0.232551072942     1.634595507167     1.007825032070
           H          0.076532951827    -1.356138927058     1.044938507167     1.007825032070
           C          2.149180951827     0.434677072942     0.511262507167    12.000000000000
           H          0.441143951827     1.247450072942    -0.509704492833     1.007825032070
           H          0.899790951827    -0.341434927058    -1.063519492833     1.007825032070
           C          3.200397951827     1.066848072942    -0.400059492833    12.000000000000
           H          2.032245951827     1.043053072942     1.405483507167     1.007825032070
           H          2.498974951827    -0.538950927058     0.846314507167     1.007825032070
           H          2.894218951827     2.057197072942    -0.724891492833     1.007825032070
           H          3.362661951827     0.463220072942    -1.288173492833     1.007825032070
           H          4.152613951827     1.166394072942     0.111215507167     1.007825032070
           H         -3.206390048173     0.467698072942    -0.946230492833     1.007825032070
           H         -1.735340048173     1.447656072942    -0.796913492833     1.007825032070
           H         -2.731420048173     1.159616072942     0.610816507167     1.007825032070

  Charge       = 0
  Multiplicity = 1
  Basis Set: 6-31G*
  Basis Set:

    Orbital Energies (a.u.)
    -----------------------

    Doubly Occupied:

       1A    -20.547968     2A    -11.324205     3A    -11.232589
       4A    -11.229348     5A    -11.227822     6A    -11.226514
       7A    -11.216469     8A     -1.393164     9A     -1.094195
      10A     -1.029816    11A     -0.982699    12A     -0.891971
      13A     -0.809156    14A     -0.733703    15A     -0.664121
      16A     -0.646914    17A     -0.624591    18A     -0.614047
      19A     -0.581361    20A     -0.576051    21A     -0.553027
      22A     -0.536175    23A     -0.507078    24A     -0.505324
      25A     -0.485279    26A     -0.477330    27A     -0.469701
      28A     -0.396980

  @DF-RHF Final Energy:  -309.06410164341719

   => Energetics <=

    Nuclear Repulsion Energy =            301.7722429546804506
    One-Electron Energy =               -1016.5174454941301292
    Two-Electron Energy =                 405.6811008960331151
    DFT Exchange-Correlation Energy =       0.0000000000000000
    Empirical Dispersion Energy =           0.0000000000000000
    PCM Polarization Energy =               0.0000000000000000
    EFP Energy =                            0.0000000000000000
    Total Energy =                       -309.0641016434165635

  Mulliken Charges: (a.u.)
   Center  Symbol    Alpha    Beta     Spin     Total
       1     O     4.26054  4.26054  0.00000 -0.52108
       2     C     2.73572  2.73572  0.00000  0.52856
       3     C     3.20218  3.20218  0.00000 -0.40437
       4     C     3.29014  3.29014  0.00000 -0.58028
       5     C     3.16543  3.16543  0.00000 -0.33086
       6     H     0.41410  0.41410  0.00000  0.17180
       7     H     0.39951  0.39951  0.00000  0.20098
       8     C     3.15105  3.15105  0.00000 -0.30211
       9     H     0.42041  0.42041  0.00000  0.15918
      10     H     0.41114  0.41114  0.00000  0.17773
      11     C     3.24034  3.24034  0.00000 -0.48067
      12     H     0.42161  0.42161  0.00000  0.15678
      13     H     0.41852  0.41852  0.00000  0.16296
      14     H     0.42129  0.42129  0.00000  0.15742
      15     H     0.41924  0.41924  0.00000  0.16151
      16     H     0.41695  0.41695  0.00000  0.16611
      17     H     0.39623  0.39623  0.00000  0.20753
      18     H     0.40828  0.40828  0.00000  0.18344
      19     H     0.40732  0.40732  0.00000  0.18536

   Total alpha = 28.00000, Total beta = 28.00000, Total charge = -0.00000
