                              Psi4 1.0.54 Driver

  ==> Input File <==

--------------------------------------------------------------------------
set {
	reference rhf
	basis cc-pvtz
}

set_num_threads( 4 )
memory 2 gb

molecule MOL {
0 1

H	 -3.036670	 -0.745517	 -1.613957
O	 -2.414721	 -1.045747	 -0.968388
C	 -1.353643	 -0.244525	 -1.001435
C	 -0.310616	 -0.658853	 0.000791
O	 -1.278962	 0.669925	 -1.747207
C	 0.926581	 0.227233	 0.000178
H	 -0.056229	 -1.692171	 -0.211974
H	 -0.789494	 -0.667559	 0.974607
C	 2.220156	 -0.582071	 -0.000088
H	 0.899945	 0.878221	 -0.866390
H	 0.900542	 0.878581	 0.866486
C	 3.466689	 0.296012	 -0.000457
H	 2.239073	 -1.234095	 -0.869382
H	 2.239505	 -1.233985	 0.869270
H	 3.493549	 0.935857	 -0.875887
H	 4.368821	 -0.304526	 -0.001199
H	 3.494559	 0.935166	 0.875458

	symmetry c1
}
set optking {
	frozen_dihedral = ("
		7 4 6 10
	")
}

ee,wfn = optimize('scf', return_wfn=True)
oeprop( wfn, 'DIPOLE', 'QUADRUPOLE', 'MULLIKEN_CHARGES')
f=open( 'psi4out.xyz', 'w' )
f.write( "17  " )
f.write( str(ee) + "\n" )
f.write( MOL.save_string_xyz() )
f.close()
--------------------------------------------------------------------------

    Molecular point group: c1
  Charge       = 0
  Multiplicity = 1
  Basis Set: CC-PVTZ
  Basis Set:
  @DF-RHF Final Energy:  -345.04456782611027
    Total Energy =                       -345.0445678261105513
    Molecular point group: c1
  Basis Set: CC-PVTZ
  Basis Set:
  Basis Set: CC-PVTZ
  Basis Set:
  @DF-RHF Final Energy:  -345.04482694085806
    Total Energy =                       -345.0448269408576607
  Basis Set: CC-PVTZ
  Basis Set:
  Basis Set: CC-PVTZ
  Basis Set:
  @DF-RHF Final Energy:  -345.04459467873858
    Total Energy =                       -345.0445946787385196
  Basis Set: CC-PVTZ
  Basis Set:
  Basis Set: CC-PVTZ
  Basis Set:
  @DF-RHF Final Energy:  -345.04491531343888
    Total Energy =                       -345.0449153134389917
  Basis Set: CC-PVTZ
  Basis Set:
  Basis Set: CC-PVTZ
  Basis Set:
  @DF-RHF Final Energy:  -345.04492274349752
    Total Energy =                       -345.0449227434972954
  Basis Set: CC-PVTZ
  Basis Set:
  Charge       = 0
  Multiplicity = 1
  Basis Set: CC-PVTZ
  Basis Set:

    Orbital Energies (a.u.)
    -----------------------

    Doubly Occupied:

       1A    -20.604400     2A    -20.541522     3A    -11.374694
       4A    -11.239274     5A    -11.220557     6A    -11.219475
       7A    -11.209950     8A     -1.478396     9A     -1.369788
      10A     -1.090423    11A     -1.019260    12A     -0.915185
      13A     -0.825708    14A     -0.790455    15A     -0.705114
      16A     -0.693999    17A     -0.662863    18A     -0.630858
      19A     -0.592070    20A     -0.585298    21A     -0.579242
      22A     -0.531552    23A     -0.514219    24A     -0.485462
      25A     -0.482673    26A     -0.474471    27A     -0.468297
      28A     -0.448720

  @DF-RHF Final Energy:  -345.04492302841510

   => Energetics <=

    Nuclear Repulsion Energy =            305.1834337161990902
    One-Electron Energy =               -1074.9488609233249008
    Two-Electron Energy =                 424.7205041787104847
    DFT Exchange-Correlation Energy =       0.0000000000000000
    Empirical Dispersion Energy =           0.0000000000000000
    PCM Polarization Energy =               0.0000000000000000
    EFP Energy =                            0.0000000000000000
    Total Energy =                       -345.0449230284153828
    Molecular point group: c1
  Basis Set: CC-PVTZ
  Basis Set:

  -Total Gradient:
     Atom            X                  Y                   Z
    ------   -----------------  -----------------  -----------------
       1       -0.000020639190    -0.000006711450    -0.000000410998
       2        0.000014559564     0.000012428982    -0.000028056061
       3        0.000012378158     0.000004078523     0.000028276903
       4       -0.000641565673     0.000846362297    -0.002620868946
       5       -0.000004950097     0.000003955281     0.000009161127
       6        0.001466998504    -0.002055132716    -0.000936309206
       7        0.000336773072    -0.000392810304     0.002301048476
       8       -0.000009600488     0.000018239043     0.000017311022
       9       -0.000006352884    -0.000012841674    -0.000005866543
      10       -0.001139021330     0.001576972978     0.001244349733
      11       -0.000009627120    -0.000000920432    -0.000001446775
      12       -0.000000817111     0.000001126286    -0.000005849192
      13        0.000004666020    -0.000000168560     0.000002383179
      14       -0.000009716179     0.000006018991    -0.000004758088
      15        0.000001495128     0.000000862520     0.000003442609
      16        0.000007498542     0.000002002321     0.000000901933
      17       -0.000002078920    -0.000003462088    -0.000003309174

  **** Optimization is complete! (in 6 steps) ****
    Final optimized geometry and variables:
    Molecular point group: c1

    Geometry (in Angstrom), charge = 0, multiplicity = 1:

    H           -3.220452086467    -0.612096367012    -0.949207988852
    O           -2.562418640080    -0.894838489930    -0.332205346378
    C           -1.516655113202    -0.078754996292    -0.429302949595
    C           -0.422840441210    -0.472731446931     0.527765003160
    O           -1.497310897385     0.827468642020    -1.188385694737
    C            0.813922311566     0.432098863441     0.506814432249
    H           -0.166605646579    -1.503792273273     0.308636766194
    H           -0.875205029758    -0.506151408213     1.512585942065
    C            2.126670594943    -0.346242939219     0.510604142067
    H            0.765552643861     1.083119993883    -0.355454981608
    H            0.787974135595     1.087637504952     1.371210546109
    C            3.351522488200     0.560684918262     0.532546861050
    H            2.165285318323    -0.984219715243    -0.368166294399
    H            2.153623129689    -1.009828422931     1.371089319952
    H            3.367289379208     1.215341636175    -0.332047982186
    H            4.267745899482    -0.018150226931     0.527366950309
    H            3.359747325687     1.185551206391     1.419327302444

  Mulliken Charges: (a.u.)
   Center  Symbol    Alpha    Beta     Spin     Total
       1     H     0.38266  0.38266  0.00000  0.23467
       2     O     4.15978  4.15978  0.00000 -0.31955
       3     C     2.80007  2.80007  0.00000  0.39987
       4     C     3.11746  3.11746  0.00000 -0.23492
       5     O     4.19034  4.19034  0.00000 -0.38068
       6     C     3.09271  3.09271  0.00000 -0.18543
       7     H     0.43709  0.43709  0.00000  0.12583
       8     H     0.43346  0.43346  0.00000  0.13308
       9     C     3.08678  3.08678  0.00000 -0.17357
      10     H     0.43500  0.43500  0.00000  0.13000
      11     H     0.45229  0.45229  0.00000  0.09541
      12     C     3.14966  3.14966  0.00000 -0.29933
      13     H     0.45335  0.45335  0.00000  0.09330
      14     H     0.45392  0.45392  0.00000  0.09215
      15     H     0.45247  0.45247  0.00000  0.09507
      16     H     0.44811  0.44811  0.00000  0.10378
      17     H     0.45484  0.45484  0.00000  0.09032

   Total alpha = 28.00000, Total beta = 28.00000, Total charge = -0.00000

*** Psi4 exiting successfully. Buy a developer a beer!
