                              Psi4 1.0.54 Driver

  ==> Input File <==

--------------------------------------------------------------------------
set {
	reference rhf
	basis cc-pvtz
}

set_num_threads( 4 )
memory 2 gb

molecule MOL {
0 1

O	 1.289865	 3.825778	 -1.493121
C	 0.422248	 3.954911	 -2.293543
C	 -0.841064	 3.118944	 -2.261387
C	 0.523050	 4.972177	 -3.407649
C	 -0.899076	 2.107288	 -1.125598
H	 -1.685145	 3.803138	 -2.211639
H	 -0.929521	 2.622170	 -3.224921
C	 -2.187610	 1.289530	 -1.133613
H	 -0.799106	 2.628144	 -0.180173
H	 -0.042697	 1.446208	 -1.194309
C	 -2.258482	 0.271340	 0.000669
H	 -3.042240	 1.959179	 -1.066889
H	 -2.282176	 0.771542	 -2.085457
C	 -3.544441	 -0.550271	 -0.000253
H	 -2.164285	 0.788196	 0.952562
H	 -1.405025	 -0.398990	 -0.065635
C	 -4.804551	 0.308747	 0.000556
H	 -3.553737	 -1.201524	 -0.870151
H	 -3.553831	 -1.203282	 0.868313
H	 -4.842050	 0.949078	 -0.874436
H	 -5.698404	 -0.304480	 -0.000254
H	 -4.842277	 0.947103	 0.876982
H	 -0.303730	 5.671693	 -3.351440
H	 1.457253	 5.506879	 -3.331822
H	 0.462200	 4.478455	 -4.371276

	symmetry c1
}
set optking {
	frozen_dihedral = ("
		15 11 14 18
	")
}

ee,wfn = optimize('scf', return_wfn=True)
oeprop( wfn, 'DIPOLE', 'QUADRUPOLE', 'MULLIKEN_CHARGES')
f=open( 'psi4out.xyz', 'w' )
f.write( "25  " )
f.write( str(ee) + "\n" )
f.write( MOL.save_string_xyz() )
f.close()
--------------------------------------------------------------------------

    Molecular point group: c1
  Charge       = 0
  Multiplicity = 1
  Basis Set: CC-PVTZ
  Basis Set:
  @DF-RHF Final Energy:  -387.27131936785059
    Total Energy =                       -387.2713193678507650
    Molecular point group: c1
  Basis Set: CC-PVTZ
  Basis Set:
  Basis Set: CC-PVTZ
  Basis Set:
  @DF-RHF Final Energy:  -387.27101806133811
    Total Energy =                       -387.2710180613380544
  Basis Set: CC-PVTZ
  Basis Set:
  Basis Set: CC-PVTZ
  Basis Set:
  @DF-RHF Final Energy:  -387.27253852413679
    Total Energy =                       -387.2725385241376443
  Basis Set: CC-PVTZ
  Basis Set:
  Basis Set: CC-PVTZ
  Basis Set:
  @DF-RHF Final Energy:  -387.27263713250471
    Total Energy =                       -387.2726371325049968
  Basis Set: CC-PVTZ
  Basis Set:
  Basis Set: CC-PVTZ
  Basis Set:
  @DF-RHF Final Energy:  -387.27250661060515
    Total Energy =                       -387.2725066106049781
  Basis Set: CC-PVTZ
  Basis Set:
  Basis Set: CC-PVTZ
  Basis Set:
  @DF-RHF Final Energy:  -387.27263460823758
    Total Energy =                       -387.2726346082378086
  Basis Set: CC-PVTZ
  Basis Set:
  Basis Set: CC-PVTZ
  Basis Set:
  @DF-RHF Final Energy:  -387.27264578366106
    Total Energy =                       -387.2726457836613463
  Basis Set: CC-PVTZ
  Basis Set:
  Charge       = 0
  Multiplicity = 1
  Basis Set: CC-PVTZ
  Basis Set:

    Orbital Energies (a.u.)
    -----------------------

    Doubly Occupied:

       1A    -20.538848     2A    -11.320483     3A    -11.230119
       4A    -11.226564     5A    -11.215040     6A    -11.214360
       7A    -11.213986     8A    -11.211836     9A    -11.207176
      10A     -1.398892    11A     -1.095094    12A     -1.056905
      13A     -1.014580    14A     -0.968064    15A     -0.897394
      16A     -0.825074    17A     -0.777999    18A     -0.730560
      19A     -0.659941    20A     -0.654793    21A     -0.628364
      22A     -0.623426    23A     -0.607753    24A     -0.592250
      25A     -0.565914    26A     -0.557829    27A     -0.544858
      28A     -0.521913    29A     -0.513867    30A     -0.495675
      31A     -0.491895    32A     -0.477364    33A     -0.460210
      34A     -0.457152    35A     -0.452681    36A     -0.401445

  @DF-RHF Final Energy:  -387.27264585473932

   => Energetics <=

    Nuclear Repulsion Energy =            443.4572339837911272
    One-Electron Energy =               -1403.7591561810172607
    Two-Electron Energy =                 573.0292763424866962
    DFT Exchange-Correlation Energy =       0.0000000000000000
    Empirical Dispersion Energy =           0.0000000000000000
    PCM Polarization Energy =               0.0000000000000000
    EFP Energy =                            0.0000000000000000
    Total Energy =                       -387.2726458547393804
    Molecular point group: c1
  Basis Set: CC-PVTZ
  Basis Set:

  -Total Gradient:
     Atom            X                  Y                   Z
    ------   -----------------  -----------------  -----------------
       1        0.000004509813     0.000006740853    -0.000002458724
       2       -0.000006797035    -0.000003500402    -0.000009796785
       3        0.000007598634    -0.000003266508    -0.000001378972
       4        0.000004797002     0.000001390227     0.000003747873
       5       -0.000008049475     0.000006758892     0.000010256493
       6        0.000000466208    -0.000004153273     0.000002680218
       7       -0.000001647719     0.000000632595    -0.000000115391
       8       -0.000000333023     0.000015608032     0.000009395321
       9        0.000002388527     0.000002284741    -0.000004336749
      10       -0.000002485604     0.000001806772     0.000000238685
      11       -0.001039711608     0.001391400240    -0.000640061533
      12        0.000009806351     0.000002834867    -0.000001814571
      13       -0.000006221629    -0.000005764078     0.000012103043
      14       -0.000921424739     0.001275025082    -0.000993979555
      15        0.001016640739    -0.001405222052     0.000655405573
      16        0.000018818845     0.000004793562     0.000005422087
      17       -0.000030577804    -0.000003985638    -0.000026503744
      18        0.000947367327    -0.001269320638     0.000976509516
      19        0.000011286373    -0.000011376729    -0.000001652002
      20       -0.000014365150    -0.000002708925     0.000012439050
      21       -0.000001993138     0.000011613761    -0.000001109456
      22        0.000006829675    -0.000010203342    -0.000008390276
      23        0.000001129795    -0.000002512520     0.000001338687
      24        0.000001744641     0.000002066414    -0.000001144433
      25        0.000000222992    -0.000000941936     0.000003205645

  **** Optimization is complete! (in 8 steps) ****
    Final optimized geometry and variables:
    Molecular point group: c1

    Geometry (in Angstrom), charge = 0, multiplicity = 1:

    O            2.695172821549     1.648408803156    -0.242264869924
    C            1.809385261288     1.813768534372    -1.015575037459
    C            0.524215622128     1.012921108869    -0.959543801909
    C            1.907429494471     2.844642841296    -2.117442781982
    C            0.469209953858    -0.013457897582     0.163081424051
    H           -0.298247206160     1.719792095168    -0.876499948177
    H            0.395085023343     0.533137818713    -1.927130072877
    C           -0.840905357695    -0.796900625244     0.178409734509
    H            0.607441242131     0.490803038929     1.112815303955
    H            1.305786983649    -0.695334432784     0.062641951047
    C           -0.901512034163    -1.819607363357     1.310253782748
    H           -1.670452163009    -0.101473211046     0.262628700921
    H           -0.967727102215    -1.309499266808    -0.773268134554
    C           -2.133215341734    -2.727281792491     1.305877523280
    H           -0.835100857298    -1.309673167937     2.268423504152
    H           -0.018424935226    -2.450479847718     1.253864086451
    C           -3.474379335702    -2.002292223872     1.375172800819
    H           -2.104960387604    -3.366477340538     0.427270105603
    H           -2.057252111132    -3.397858589732     2.156757632178
    H           -3.660298179095    -1.405900509631     0.490173532452
    H           -4.288976241800    -2.711606882401     1.466013644774
    H           -3.516133017564    -1.340973603373     2.234981023022
    H            1.102397391746     3.565667532750    -2.027668460160
    H            2.857950123126     3.352342571776    -2.060630931322
    H            1.805872763454     2.367286376533    -3.085873488333

  Mulliken Charges: (a.u.)
   Center  Symbol    Alpha    Beta     Spin     Total
       1     O     4.17088  4.17088  0.00000 -0.34176
       2     C     2.86222  2.86222  0.00000  0.27556
       3     C     3.11329  3.11329  0.00000 -0.22657
       4     C     3.15126  3.15126  0.00000 -0.30251
       5     C     3.08220  3.08220  0.00000 -0.16440
       6     H     0.44576  0.44576  0.00000  0.10848
       7     H     0.44568  0.44568  0.00000  0.10864
       8     C     3.09379  3.09379  0.00000 -0.18757
       9     H     0.44605  0.44605  0.00000  0.10789
      10     H     0.44542  0.44542  0.00000  0.10916
      11     C     3.09604  3.09604  0.00000 -0.19207
      12     H     0.45333  0.45333  0.00000  0.09333
      13     H     0.45567  0.45567  0.00000  0.08866
      14     C     3.09041  3.09041  0.00000 -0.18081
      15     H     0.45174  0.45174  0.00000  0.09652
      16     H     0.44914  0.44914  0.00000  0.10172
      17     C     3.15451  3.15451  0.00000 -0.30903
      18     H     0.45415  0.45415  0.00000  0.09170
      19     H     0.44874  0.44874  0.00000  0.10252
      20     H     0.45385  0.45385  0.00000  0.09229
      21     H     0.44570  0.44570  0.00000  0.10861
      22     H     0.45403  0.45403  0.00000  0.09194
      23     H     0.45039  0.45039  0.00000  0.09921
      24     H     0.43537  0.43537  0.00000  0.12926
      25     H     0.45039  0.45039  0.00000  0.09922

   Total alpha = 36.00000, Total beta = 36.00000, Total charge =  0.00000

*** Psi4 exiting successfully. Buy a developer a beer!
