  ==> Input File <==

--------------------------------------------------------------------------
set {
	reference rhf
	basis 6-31G*
}

set_num_threads( 4 )
memory 2 gb

molecule MOL {
0 1

H	 -2.698709	 -0.000305	 0.034435
C	 -1.693833	 0.000034	 0.434417
O	 -0.828952	 -0.000968	 -0.659236
H	 -1.574200	 0.882896	 1.055746
H	 -1.574147	 -0.881698	 1.057355
C	 0.559449	 -0.000018	 -0.420814
C	 1.269483	 1.168031	 -1.102306
C	 0.898354	 -0.098106	 1.065282
H	 0.891889	 -0.914279	 -0.897932
H	 0.966980	 1.237421	 -2.141645
H	 2.344175	 1.019013	 -1.069645
H	 1.057059	 2.116500	 -0.619142
H	 0.338457	 -0.904554	 1.526383
H	 1.956921	 -0.302814	 1.191751
H	 0.678157	 0.821093	 1.598598

	symmetry c1
}
set optking {
	frozen_dihedral = ("
		9 6 3 2
	")
}

ee = optimize('scf')
oeprop('DIPOLE', 'QUADRUPOLE', 'MULLIKEN_CHARGES')
f=open( 'psi4out.xyz', 'w' )
f.write( "15  " )
f.write( str(ee) + "\n" )
f.write( MOL.save_string_xyz() )
f.close()
--------------------------------------------------------------------------

    Molecular point group: c1
  Charge       = 0
  Multiplicity = 1
  Basis Set: 6-31G*
  Basis Set:
  @DF-RHF Final Energy:  -232.12883473464152
    Total Energy =                       -232.1288347346413730
    Molecular point group: c1
  Basis Set: 6-31G*
  Basis Set:
  Basis Set: 6-31G*
  Basis Set:
  @DF-RHF Final Energy:  -232.12913148636213
    Total Energy =                       -232.1291314863618709
  Basis Set: 6-31G*
  Basis Set:
  Basis Set: 6-31G*
  Basis Set:
  @DF-RHF Final Energy:  -232.13275582766627
    Total Energy =                       -232.1327558276663581
  Basis Set: 6-31G*
  Basis Set:
  Basis Set: 6-31G*
  Basis Set:
  @DF-RHF Final Energy:  -232.13316921970363
    Total Energy =                       -232.1331692197036887
  Basis Set: 6-31G*
  Basis Set:
  Basis Set: 6-31G*
  Basis Set:
  @DF-RHF Final Energy:  -232.13327300111368
    Total Energy =                       -232.1332730011138210
  Basis Set: 6-31G*
  Basis Set:
  Basis Set: 6-31G*
  Basis Set:
  @DF-RHF Final Energy:  -232.13331143938777
    Total Energy =                       -232.1333114393879669
  Basis Set: 6-31G*
  Basis Set:
  Basis Set: 6-31G*
  Basis Set:
  @DF-RHF Final Energy:  -232.13331266019603
    Total Energy =                       -232.1333126601959975
  Basis Set: 6-31G*
  Basis Set:
  Charge       = 0
  Multiplicity = 1
  Basis Set: 6-31G*
  Basis Set:

    Orbital Energies (a.u.)
    -----------------------

    Doubly Occupied:

       1A    -20.544896     2A    -11.274840     3A    -11.262576
       4A    -11.215937     5A    -11.204836     6A     -1.366032
       7A     -1.052894     8A     -0.949064     9A     -0.916671
      10A     -0.782254    11A     -0.675119    12A     -0.642334
      13A     -0.629854    14A     -0.585230    15A     -0.554090
      16A     -0.541528    17A     -0.533033    18A     -0.507433
      19A     -0.492326    20A     -0.446828    21A     -0.397861

  @DF-RHF Final Energy:  -232.13331351320849

   => Energetics <=

    Nuclear Repulsion Energy =            197.8813654042204178
    One-Electron Energy =                -706.8780879903918049
    Two-Electron Energy =                 276.8634090729629520
    DFT Exchange-Correlation Energy =       0.0000000000000000
    Empirical Dispersion Energy =           0.0000000000000000
    PCM Polarization Energy =               0.0000000000000000
    EFP Energy =                            0.0000000000000000
    Total Energy =                       -232.1333135132084067
    Molecular point group: c1
  Basis Set: 6-31G*
  Basis Set:

  -Total Gradient:
     Atom            X                  Y                   Z
    ------   -----------------  -----------------  -----------------
       1       -0.000004371985    -0.000006089615     0.000009700743
       2        0.000025474409     0.000409914480     0.000016213381
       3        0.000067864922    -0.000532874938    -0.000112716525
       4       -0.000001642516    -0.000000168991     0.000014803796
       5        0.000000708440     0.000007508237    -0.000007990594
       6       -0.000092285379    -0.000131936435     0.000420055997
       7       -0.000044856726     0.000017492444     0.000013827077
       8       -0.000016677719     0.000013739683     0.000009597043
       9        0.000085731234     0.000210009697    -0.000377798924
      10       -0.000004704291     0.000008798309    -0.000004701182
      11       -0.000014287198    -0.000020848637     0.000003499587
      12        0.000007598681     0.000007881643     0.000002044431
      13        0.000005676717     0.000010006101    -0.000007096442
      14       -0.000003696682     0.000001536569     0.000001405456
      15       -0.000010531903     0.000005031455     0.000019156158

  **** Optimization is complete! (in 8 steps) ****
    Final optimized geometry and variables:
    Molecular point group: c1

    Geometry (in Angstrom), charge = 0, multiplicity = 1:

    H           -2.739026078599    -0.074672206479     0.046750017649
    C           -1.766487094437    -0.166779666577     0.511612336129
    O           -0.838248911492    -0.187656293458    -0.526287138984
    H           -1.628447492820     0.677743741589     1.180604194268
    H           -1.756466291064    -1.080620272505     1.099214587387
    C            0.552243341223    -0.260665570125    -0.273532427669
    C            1.201972176994     0.927432005691    -0.971976158979
    C            0.954715530463    -0.331661800981     1.197969959143
    H            0.897721501919    -1.171998142730    -0.754345092229
    H            0.903409409416     0.954613786980    -2.013426893983
    H            2.285277526155     0.864868684031    -0.925160085686
    H            0.890533678339     1.858295837016    -0.507335840101
    H            0.512827704889    -1.183147383019     1.702417381896
    H            2.032556722493    -0.439975209136     1.259452057058
    H            0.683713139736     0.568916162994     1.738742341375

  Mulliken Charges: (a.u.)
   Center  Symbol    Alpha    Beta     Spin     Total
       1     H     0.41223  0.41223  0.00000  0.17554
       2     C     3.07535  3.07535  0.00000 -0.15071
       3     O     4.32097  4.32097  0.00000 -0.64193
       4     H     0.43047  0.43047  0.00000  0.13905
       5     H     0.43044  0.43044  0.00000  0.13913
       6     C     2.90007  2.90007  0.00000  0.19985
       7     C     3.23881  3.23881  0.00000 -0.47762
       8     C     3.26469  3.26469  0.00000 -0.52937
       9     H     0.42359  0.42359  0.00000  0.15283
      10     H     0.41103  0.41103  0.00000  0.17793
      11     H     0.42589  0.42589  0.00000  0.14821
      12     H     0.42155  0.42155  0.00000  0.15690
      13     H     0.41399  0.41399  0.00000  0.17202
      14     H     0.41387  0.41387  0.00000  0.17227
      15     H     0.41705  0.41705  0.00000  0.16589

   Total alpha = 21.00000, Total beta = 21.00000, Total charge = -0.00000
