                              Psi4 1.0.54 Driver

  ==> Input File <==

--------------------------------------------------------------------------
set {
	reference rhf
	basis cc-pvtz
}

set_num_threads( 4 )
memory 2 gb

molecule MOL {
0 1

H	 3.273419	 0.176595	 -0.102789
N	 2.433987	 -0.362316	 -0.080024
C	 1.263552	 0.494993	 0.021953
H	 2.497638	 -0.973615	 0.707122
C	 -0.016533	 -0.325589	 -0.026925
H	 1.280915	 1.180773	 -0.818522
H	 1.263064	 1.106893	 0.925038
C	 -1.280353	 0.525521	 0.047747
H	 -0.016686	 -0.912532	 -0.939714
H	 -0.014099	 -1.037598	 0.796369
C	 -1.319178	 1.629575	 -1.003704
H	 -1.356034	 0.969528	 1.036734
H	 -2.153763	 -0.110661	 -0.067578
H	 -0.476089	 2.303305	 -0.894082
H	 -2.225853	 2.218037	 -0.922439
H	 -1.281864	 1.216409	 -2.006242

	symmetry c1
}
set optking {
	frozen_dihedral = ("
		12 8 5 9
	")
}

ee,wfn = optimize('scf', return_wfn=True)
oeprop( wfn, 'DIPOLE', 'QUADRUPOLE', 'MULLIKEN_CHARGES')
f=open( 'psi4out.xyz', 'w' )
f.write( "16  " )
f.write( str(ee) + "\n" )
f.write( MOL.save_string_xyz() )
f.close()
--------------------------------------------------------------------------

    Molecular point group: c1
  Charge       = 0
  Multiplicity = 1
  Basis Set: CC-PVTZ
  Basis Set:
  @DF-RHF Final Energy:  -212.39706589828279
    Total Energy =                       -212.3970658982825626
    Molecular point group: c1
  Basis Set: CC-PVTZ
  Basis Set:
  Basis Set: CC-PVTZ
  Basis Set:
  @DF-RHF Final Energy:  -212.39783256112526
    Total Energy =                       -212.3978325611251989
  Basis Set: CC-PVTZ
  Basis Set:
  Basis Set: CC-PVTZ
  Basis Set:
  @DF-RHF Final Energy:  -212.39834273929395
    Total Energy =                       -212.3983427392940939
  Basis Set: CC-PVTZ
  Basis Set:
  Basis Set: CC-PVTZ
  Basis Set:
  @DF-RHF Final Energy:  -212.39838680403250
    Total Energy =                       -212.3983868040325547
  Basis Set: CC-PVTZ
  Basis Set:
  Basis Set: CC-PVTZ
  Basis Set:
  @DF-RHF Final Energy:  -212.39838963786946
    Total Energy =                       -212.3983896378693430
  Basis Set: CC-PVTZ
  Basis Set:
  Charge       = 0
  Multiplicity = 1
  Basis Set: CC-PVTZ
  Basis Set:

    Orbital Energies (a.u.)
    -----------------------

    Doubly Occupied:

       1A    -15.526466     2A    -11.237692     3A    -11.213250
       4A    -11.208215     5A    -11.205951     6A     -1.178320
       7A     -1.059579     8A     -0.955717     9A     -0.860660
      10A     -0.778479    11A     -0.666106    12A     -0.631386
      13A     -0.605740    14A     -0.596769    15A     -0.549021
      16A     -0.524302    17A     -0.516444    18A     -0.467152
      19A     -0.464666    20A     -0.456220    21A     -0.383960

  @DF-RHF Final Energy:  -212.39838983820155

   => Energetics <=

    Nuclear Repulsion Energy =            189.0827935547922323
    One-Electron Energy =                -660.7901752446130104
    Two-Electron Energy =                 259.3089918516192256
    DFT Exchange-Correlation Energy =       0.0000000000000000
    Empirical Dispersion Energy =           0.0000000000000000
    PCM Polarization Energy =               0.0000000000000000
    EFP Energy =                            0.0000000000000000
    Total Energy =                       -212.3983898382015241
    Molecular point group: c1
  Basis Set: CC-PVTZ
  Basis Set:

  -Total Gradient:
     Atom            X                  Y                   Z
    ------   -----------------  -----------------  -----------------
       1        0.000004193002    -0.000001458963    -0.000000540335
       2        0.000017461170    -0.000003514684    -0.000025026382
       3       -0.000008331059    -0.000000473346     0.000048277278
       4       -0.000008753829     0.000007433430    -0.000002005186
       5        0.000855392333     0.001393739348    -0.000943164762
       6        0.000006171521    -0.000012703358     0.000000752996
       7       -0.000002101170     0.000014913493    -0.000004103323
       8        0.000965380243     0.001475194616    -0.000496550608
       9       -0.000890287551    -0.001390013843     0.000859996227
      10       -0.000001411538     0.000003285549    -0.000000818827
      11        0.000006480999    -0.000000622953    -0.000000109105
      12       -0.000939807174    -0.001484370287     0.000556903338
      13       -0.000006965282    -0.000004030180     0.000004736872
      14        0.000001581053     0.000005646513    -0.000001396517
      15       -0.000000857575    -0.000004479096     0.000001343341
      16        0.000001854857     0.000001453759     0.000001704993

  **** Optimization is complete! (in 6 steps) ****
    Final optimized geometry and variables:
    Molecular point group: c1

    Geometry (in Angstrom), charge = 0, multiplicity = 1:

    H            3.043733392589    -0.296543796729     0.303668521559
    N            2.185030125639    -0.804120171844     0.281441571785
    C            1.043404268138     0.096374208237     0.251632370794
    H            2.162622362152    -1.382954558258     1.094816241826
    C           -0.252843169954    -0.692038698627     0.128335405277
    H            1.164209552613     0.746908257092    -0.605812145752
    H            0.987207247222     0.741520145212     1.130449330599
    C           -1.528966158432     0.148925017090     0.183627542450
    H           -0.229471228642    -1.274470046228    -0.787284292236
    H           -0.289958618642    -1.416948628597     0.938685153863
    C           -1.630481447780     1.239016032218    -0.880041456495
    H           -1.630776222587     0.588612720842     1.172339688069
    H           -2.375559667708    -0.522152383937     0.074796876332
    H           -0.877523851631     2.006827702773    -0.748004164842
    H           -2.599089257178     1.723979120727    -0.840568479661
    H           -1.509041798483     0.824447535393    -1.875664555735

  Mulliken Charges: (a.u.)
   Center  Symbol    Alpha    Beta     Spin     Total
       1     H     0.43000  0.43000  0.00000  0.14001
       2     N     3.68975  3.68975  0.00000 -0.37950
       3     C     3.02733  3.02733  0.00000 -0.05466
       4     H     0.43090  0.43090  0.00000  0.13821
       5     C     3.08729  3.08729  0.00000 -0.17458
       6     H     0.45472  0.45472  0.00000  0.09056
       7     H     0.46827  0.46827  0.00000  0.06346
       8     C     3.09492  3.09492  0.00000 -0.18983
       9     H     0.44852  0.44852  0.00000  0.10296
      10     H     0.45638  0.45638  0.00000  0.08724
      11     C     3.15419  3.15419  0.00000 -0.30839
      12     H     0.45521  0.45521  0.00000  0.08957
      13     H     0.44914  0.44914  0.00000  0.10171
      14     H     0.45408  0.45408  0.00000  0.09184
      15     H     0.44627  0.44627  0.00000  0.10745
      16     H     0.45302  0.45302  0.00000  0.09396

   Total alpha = 21.00000, Total beta = 21.00000, Total charge = -0.00000

*** Psi4 exiting successfully. Buy a developer a beer!
