  ==> Input File <==

--------------------------------------------------------------------------
set {
	reference rhf
	basis 6-31G*
}

set_num_threads( 4 )
memory 2 gb

molecule MOL {
0 1

H	 -2.753005	 -0.654483	 1.146013
C	 -2.706639	 -0.477341	 0.073347
O	 -1.393972	 -0.322926	 -0.360703
H	 -3.121650	 -1.333115	 -0.441006
H	 -3.310914	 0.398864	 -0.158053
C	 -0.725790	 0.754374	 0.215670
C	 0.712736	 0.754527	 -0.245683
H	 -1.196844	 1.692962	 -0.079046
H	 -0.754066	 0.691293	 1.301591
O	 1.392611	 -0.295398	 0.366430
H	 0.741905	 0.655310	 -1.328878
H	 1.173392	 1.707605	 0.017248
C	 2.706965	 -0.449871	 -0.062409
H	 2.756559	 -0.644779	 -1.131878
H	 3.305899	 0.433456	 0.155466
H	 3.125548	 -1.294566	 0.467107

	symmetry c1
}
set optking {
	frozen_dihedral = ("
		7 10 13 14
	")
}

ee = optimize('scf')
oeprop('DIPOLE', 'QUADRUPOLE', 'MULLIKEN_CHARGES')
f=open( 'psi4out.xyz', 'w' )
f.write( "16  " )
f.write( str(ee) + "\n" )
f.write( MOL.save_string_xyz() )
f.close()
--------------------------------------------------------------------------

    Molecular point group: c1
  Charge       = 0
  Multiplicity = 1
  Basis Set: 6-31G*
  Basis Set:
  @DF-RHF Final Energy:  -306.97772888288802
    Total Energy =                       -306.9777288828880728
    Molecular point group: c1
  Basis Set: 6-31G*
  Basis Set:
  Charge       = 0
  Multiplicity = 1
  Basis Set: 6-31G*
  Basis Set:

    Orbital Energies (a.u.)
    -----------------------

    Doubly Occupied:

       1A    -20.553578     2A    -20.553572     3A    -11.269099
       4A    -11.268440     5A    -11.263559     6A    -11.263553
       7A     -1.388262     8A     -1.370649     9A     -1.030825
      10A     -0.936061    11A     -0.891976    12A     -0.824045
      13A     -0.684110    14A     -0.680507    15A     -0.656945
      16A     -0.635742    17A     -0.629883    18A     -0.597181
      19A     -0.550605    20A     -0.535370    21A     -0.509049
      22A     -0.477535    23A     -0.462628    24A     -0.419751
      25A     -0.410541

  @DF-RHF Final Energy:  -306.97772913071412

   => Energetics <=

    Nuclear Repulsion Energy =            258.8286834968776020
    One-Electron Energy =                -931.8858894548583294
    Two-Electron Energy =                 366.0794768272667170
    DFT Exchange-Correlation Energy =       0.0000000000000000
    Empirical Dispersion Energy =           0.0000000000000000
    PCM Polarization Energy =               0.0000000000000000
    EFP Energy =                            0.0000000000000000
    Total Energy =                       -306.9777291307140104
    Molecular point group: c1
  Basis Set: 6-31G*
  Basis Set:

  -Total Gradient:
     Atom            X                  Y                   Z
    ------   -----------------  -----------------  -----------------
       1       -0.000008416811     0.000006040663     0.000000521001
       2        0.000012707908    -0.000053669783    -0.000000956064
       3       -0.000037770604     0.000016624941     0.000034050391
       4       -0.000021620690    -0.000002482861     0.000000699136
       5        0.000022682168     0.000006534900    -0.000005513190
       6       -0.000010760734     0.000036971837    -0.000064058202
       7       -0.000044973074    -0.000023941114    -0.000019435923
       8       -0.000014313561     0.000006387739     0.000011829727
       9        0.000001812408    -0.000012427187    -0.000017563213
      10        0.000102678005     0.000193614893     0.000070107724
      11        0.000001604805    -0.000020983562     0.000022579005
      12        0.000004947062     0.000013861718    -0.000018429045
      13       -0.000028828409    -0.000325004300     0.000007432017
      14        0.000018415340     0.000174491688    -0.000022706777
      15       -0.000052836128     0.000000478340     0.000003171436
      16        0.000054672316    -0.000016497913    -0.000001728023

  **** Optimization is complete! (in 2 steps) ****
    Final optimized geometry and variables:
    Molecular point group: c1

    Geometry (in Angstrom), charge = 0, multiplicity = 1:

    H           -2.750953768569    -0.640409445276     1.148335946115
    C           -2.704296087725    -0.463705766343     0.075607632170
    O           -1.391571183094    -0.309100806701    -0.358343528549
    H           -3.119407406810    -1.319546637442    -0.438548440196
    H           -3.308070404154     0.412664607219    -0.156172201197
    C           -0.723603826527     0.768679393596     0.217527595397
    C            0.715203342742     0.768832725316    -0.243159739151
    H           -1.194894756322     1.707089591941    -0.077352219102
    H           -0.752221208355     0.705788604669     1.303398874834
    O            1.394769638548    -0.281872213952     0.368102445921
    H            0.744698974259     0.669869895590    -1.326295936208
    H            1.176065311037     1.721768956147     0.019989648530
    C            2.709254736204    -0.436669500455    -0.060448329716
    H            2.759355863120    -0.630744683237    -1.130000781232
    H            3.307139115162     0.447339942190     0.157206745053
    H            3.128507814857    -1.280929481677     0.469255590026

  Mulliken Charges: (a.u.)
   Center  Symbol    Alpha    Beta     Spin     Total
       1     H     0.42807  0.42807  0.00000  0.14386
       2     C     3.07950  3.07950  0.00000 -0.15900
       3     O     4.30090  4.30090  0.00000 -0.60180
       4     H     0.41128  0.41128  0.00000  0.17745
       5     H     0.43188  0.43188  0.00000  0.13623
       6     C     2.99336  2.99336  0.00000  0.01327
       7     C     2.99335  2.99335  0.00000  0.01330
       8     H     0.43225  0.43225  0.00000  0.13551
       9     H     0.42276  0.42276  0.00000  0.15448
      10     O     4.30092  4.30092  0.00000 -0.60184
      11     H     0.42274  0.42274  0.00000  0.15453
      12     H     0.43228  0.43228  0.00000  0.13545
      13     C     3.07947  3.07947  0.00000 -0.15894
      14     H     0.42820  0.42820  0.00000  0.14359
      15     H     0.43182  0.43182  0.00000  0.13637
      16     H     0.41123  0.41123  0.00000  0.17754

   Total alpha = 25.00000, Total beta = 25.00000, Total charge = -0.00000
