                              Psi4 1.0.54 Driver

  ==> Input File <==

--------------------------------------------------------------------------
set {
	reference rhf
	basis cc-pvtz
}

set_num_threads( 4 )
memory 2 gb

molecule MOL {
0 1

O	 1.579165	 -0.320380	 -0.438101
C	 0.576499	 0.134701	 -0.003900
C	 -0.765656	 -0.550508	 -0.002152
O	 0.502441	 1.337700	 0.541336
C	 -1.945526	 0.411052	 0.000603
H	 -0.794329	 -1.203792	 -0.868145
H	 -0.791555	 -1.205429	 0.862701
C	 -3.282915	 -0.321280	 0.002596
H	 -1.880300	 1.059126	 -0.864925
H	 -1.877207	 1.057892	 0.866807
H	 -3.388495	 -0.952755	 -0.873419
H	 -4.107811	 0.380864	 0.004116
H	 -3.385717	 -0.953283	 0.878571
C	 1.692924	 2.097413	 0.601316
H	 2.442810	 1.585124	 1.185511
H	 1.426836	 3.029756	 1.072084
H	 2.080548	 2.277445	 -0.390338

	symmetry c1
}
set optking {
	frozen_dihedral = ("
		1 2 3 6
	")
}

ee,wfn = optimize('scf', return_wfn=True)
oeprop( wfn, 'DIPOLE', 'QUADRUPOLE', 'MULLIKEN_CHARGES')
f=open( 'psi4out.xyz', 'w' )
f.write( "17  " )
f.write( str(ee) + "\n" )
f.write( MOL.save_string_xyz() )
f.close()
--------------------------------------------------------------------------

    Molecular point group: c1
  Charge       = 0
  Multiplicity = 1
  Basis Set: CC-PVTZ
  Basis Set:
  @DF-RHF Final Energy:  -345.03220691341437
    Total Energy =                       -345.0322069134143703
    Molecular point group: c1
  Basis Set: CC-PVTZ
  Basis Set:
  Basis Set: CC-PVTZ
  Basis Set:
  @DF-RHF Final Energy:  -345.02955379836231
    Total Energy =                       -345.0295537983625422
  Basis Set: CC-PVTZ
  Basis Set:
  Basis Set: CC-PVTZ
  Basis Set:
  @DF-RHF Final Energy:  -345.03310245270103
    Total Energy =                       -345.0331024527006889
  Basis Set: CC-PVTZ
  Basis Set:
  Basis Set: CC-PVTZ
  Basis Set:
  @DF-RHF Final Energy:  -345.03306653204402
    Total Energy =                       -345.0330665320438470
  Basis Set: CC-PVTZ
  Basis Set:
  Basis Set: CC-PVTZ
  Basis Set:
  @DF-RHF Final Energy:  -345.03319414623371
    Total Energy =                       -345.0331941462341661
  Basis Set: CC-PVTZ
  Basis Set:
  Basis Set: CC-PVTZ
  Basis Set:
  @DF-RHF Final Energy:  -345.03324365988334
    Total Energy =                       -345.0332436598836239
  Basis Set: CC-PVTZ
  Basis Set:
  Charge       = 0
  Multiplicity = 1
  Basis Set: CC-PVTZ
  Basis Set:

    Orbital Energies (a.u.)
    -----------------------

    Doubly Occupied:

       1A    -20.598934     2A    -20.531014     3A    -11.364893
       4A    -11.279499     5A    -11.234365     6A    -11.225532
       7A    -11.215420     8A     -1.473395     9A     -1.364695
      10A     -1.084478    11A     -0.998792    12A     -0.943726
      13A     -0.832249    14A     -0.776975    15A     -0.698985
      16A     -0.686139    17A     -0.675226    18A     -0.639323
      19A     -0.597456    20A     -0.574381    21A     -0.557594
      22A     -0.536050    23A     -0.525296    24A     -0.516223
      25A     -0.490422    26A     -0.483177    27A     -0.458065
      28A     -0.434209

  @DF-RHF Final Energy:  -345.03324397922512

   => Energetics <=

    Nuclear Repulsion Energy =            314.8149675239396288
    One-Electron Energy =               -1094.1033974166416556
    Two-Electron Energy =                 434.2551859134765664
    DFT Exchange-Correlation Energy =       0.0000000000000000
    Empirical Dispersion Energy =           0.0000000000000000
    PCM Polarization Energy =               0.0000000000000000
    EFP Energy =                            0.0000000000000000
    Total Energy =                       -345.0332439792254036
    Molecular point group: c1
  Basis Set: CC-PVTZ
  Basis Set:

  -Total Gradient:
     Atom            X                  Y                   Z
    ------   -----------------  -----------------  -----------------
       1        0.000067943551    -0.000128305538     0.000890365632
       2       -0.000150115050     0.000179128215    -0.001439363709
       3        0.000428348003    -0.000671357681     0.001115198067
       4       -0.000001599299     0.000149875235     0.000046078838
       5       -0.000004006281     0.000022304875     0.000024481721
       6       -0.000302090559     0.000523413571    -0.000607269919
       7       -0.000008300231     0.000010882801    -0.000003430760
       8       -0.000004188659    -0.000013154690    -0.000012671672
       9        0.000008155473    -0.000007927909     0.000006096924
      10        0.000004249032    -0.000016088559    -0.000006988285
      11       -0.000001547970     0.000003397647     0.000006978576
      12        0.000002636581    -0.000004941023    -0.000003112962
      13        0.000000942704     0.000006545392    -0.000002481902
      14       -0.000038817984    -0.000054921865    -0.000014638861
      15        0.000000097827     0.000005023441     0.000000940856
      16       -0.000012903427    -0.000015213959    -0.000000724746
      17        0.000011196290     0.000011340042     0.000000542200

  **** Optimization is complete! (in 7 steps) ****
    Final optimized geometry and variables:
    Molecular point group: c1

    Geometry (in Angstrom), charge = 0, multiplicity = 1:

    O            1.781035082524    -0.822564384223    -0.312198096448
    C            0.781368288342    -0.253888086701    -0.029108378294
    C           -0.565544644229    -0.929771831548     0.064386549465
    O            0.744945907890     1.030508516418     0.277077372325
    C           -1.786711339359    -0.044953943810    -0.170987730220
    H           -0.541834873623    -1.750216592107    -0.640287295142
    H           -0.610773439134    -1.372352380699     1.055695874070
    C           -3.084877121972    -0.842294760350    -0.104188793303
    H           -1.704315228595     0.433115038319    -1.141601532278
    H           -1.807094268146     0.751145783860     0.561660486842
    H           -3.104216548951    -1.628188388399    -0.851562970449
    H           -3.941651943928    -0.201765334684    -0.275537625174
    H           -3.209423216613    -1.308161604876     0.867735697080
    C            1.970106887109     1.735627986834     0.257704742248
    H            2.664194112902     1.311931701830     0.968075173204
    H            1.732424814391     2.751518227945     0.528495083501
    H            2.411208091378     1.704878358286    -0.727299147300

  Mulliken Charges: (a.u.)
   Center  Symbol    Alpha    Beta     Spin     Total
       1     O     4.20197  4.20197  0.00000 -0.40394
       2     C     2.81351  2.81351  0.00000  0.37299
       3     C     3.08380  3.08380  0.00000 -0.16760
       4     O     4.14377  4.14377  0.00000 -0.28754
       5     C     3.08333  3.08333  0.00000 -0.16666
       6     H     0.43663  0.43663  0.00000  0.12675
       7     H     0.44480  0.44480  0.00000  0.11040
       8     C     3.15219  3.15219  0.00000 -0.30437
       9     H     0.45050  0.45050  0.00000  0.09901
      10     H     0.44533  0.44533  0.00000  0.10935
      11     H     0.45397  0.45397  0.00000  0.09206
      12     H     0.44607  0.44607  0.00000  0.10785
      13     H     0.45478  0.45478  0.00000  0.09045
      14     C     3.03592  3.03592  0.00000 -0.07184
      15     H     0.45346  0.45346  0.00000  0.09308
      16     H     0.44650  0.44650  0.00000  0.10701
      17     H     0.45349  0.45349  0.00000  0.09302

   Total alpha = 28.00000, Total beta = 28.00000, Total charge = -0.00000

*** Psi4 exiting successfully. Buy a developer a beer!
