  ==> Input File <==

--------------------------------------------------------------------------
set {
	reference rhf
	basis cc-pvtz
}

set_num_threads( 4 )
memory 2 gb

molecule MOL {
0 1

O	 1.116925	 -0.333420	 0.223001
C	 0.029490	 0.077183	 0.000078
C	 -1.232113	 -0.748027	 0.000015
O	 -0.223529	 1.343740	 -0.284608
C	 -2.501422	 0.088592	 -0.000052
H	 -1.188777	 -1.400384	 -0.865133
H	 -1.188857	 -1.400312	 0.865225
H	 -2.548170	 0.725504	 -0.873205
H	 -3.371613	 -0.556398	 -0.000040
H	 -2.548215	 0.725571	 0.873047
C	 0.874457	 2.233080	 -0.318426
H	 1.365844	 2.268778	 0.642563
H	 0.466910	 3.200197	 -0.564224
H	 1.589024	 1.928001	 -1.068470

	symmetry c1
}
set optking {
	frozen_dihedral = ("
		4 2 3 6
	")
}

ee = optimize('scf')
oeprop('DIPOLE', 'QUADRUPOLE', 'MULLIKEN_CHARGES')
f=open( 'psi4out.xyz', 'w' )
f.write( "14  " )
f.write( str(ee) + "\n" )
f.write( MOL.save_string_xyz() )
f.close()
--------------------------------------------------------------------------

    Molecular point group: c1
  Charge       = 0
  Multiplicity = 1
  Basis Set: CC-PVTZ
  Basis Set:
  @DF-RHF Final Energy:  -305.98393509807022
    Total Energy =                       -305.9839350980702761
    Molecular point group: c1
  Basis Set: CC-PVTZ
  Basis Set:
  Basis Set: CC-PVTZ
  Basis Set:
  @DF-RHF Final Energy:  -305.98476775592951
    Total Energy =                       -305.9847677559295676
  Basis Set: CC-PVTZ
  Basis Set:
  Basis Set: CC-PVTZ
  Basis Set:
  @DF-RHF Final Energy:  -305.98453054289052
    Total Energy =                       -305.9845305428906386
  Basis Set: CC-PVTZ
  Basis Set:
  Basis Set: CC-PVTZ
  Basis Set:
  @DF-RHF Final Energy:  -305.98517915372605
    Total Energy =                       -305.9851791537259942
  Basis Set: CC-PVTZ
  Basis Set:
  Basis Set: CC-PVTZ
  Basis Set:
  @DF-RHF Final Energy:  -305.98518658411086
    Total Energy =                       -305.9851865841109770
  Basis Set: CC-PVTZ
  Basis Set:
  Charge       = 0
  Multiplicity = 1
  Basis Set: CC-PVTZ
  Basis Set:

    Orbital Energies (a.u.)
    -----------------------

    Doubly Occupied:

       1A    -20.600084     2A    -20.530372     3A    -11.365561
       4A    -11.280051     5A    -11.237481     6A    -11.219557
       7A     -1.474178     8A     -1.365029     9A     -1.067096
      10A     -0.976265    11A     -0.888364    12A     -0.777412
      13A     -0.697133    14A     -0.686148    15A     -0.675279
      16A     -0.622251    17A     -0.587310    18A     -0.560280
      19A     -0.549111    20A     -0.524018    21A     -0.517693
      22A     -0.499956    23A     -0.457908    24A     -0.437101

  @DF-RHF Final Energy:  -305.98518970383827

   => Energetics <=

    Nuclear Repulsion Energy =            248.8523894701463632
    One-Electron Energy =                -910.4838789063985587
    Two-Electron Energy =                 355.6462997324142634
    DFT Exchange-Correlation Energy =       0.0000000000000000
    Empirical Dispersion Energy =           0.0000000000000000
    PCM Polarization Energy =               0.0000000000000000
    EFP Energy =                            0.0000000000000000
    Total Energy =                       -305.9851897038379320
    Molecular point group: c1
  Basis Set: CC-PVTZ
  Basis Set:

  -Total Gradient:
     Atom            X                  Y                   Z
    ------   -----------------  -----------------  -----------------
       1       -0.000131766909     0.000061639965    -0.000028141620
       2        0.000256976955    -0.000412353285    -0.000370691704
       3       -0.000231843350     0.000434251459    -0.000139231606
       4       -0.000057475566     0.000252544870     0.000312740229
       5        0.000005153265    -0.000006362149     0.000001600456
       6        0.000197720906    -0.000284253211     0.000220902571
       7       -0.000004062538    -0.000008447943     0.000011140753
       8        0.000003007870     0.000003061628     0.000001784282
       9       -0.000003968983    -0.000001374447    -0.000004403004
      10        0.000004948148    -0.000005926976    -0.000005407152
      11       -0.000068595363    -0.000062209038     0.000002099239
      12        0.000010546690     0.000010007268     0.000003615337
      13        0.000006254467     0.000009690490    -0.000000990594
      14        0.000013104408     0.000009731372    -0.000005017187

  **** Optimization is complete! (in 6 steps) ****
    Final optimized geometry and variables:
    Molecular point group: c1

    Geometry (in Angstrom), charge = 0, multiplicity = 1:

    O            1.400443238204    -0.812005896006     0.285139247487
    C            0.326146251990    -0.363282048740     0.067090884396
    C           -0.933258562013    -1.198667683761     0.066072251559
    O            0.119278894318     0.909552745246    -0.214288534855
    C           -2.256648075611    -0.445504106614     0.067857306569
    H           -0.858974322741    -1.840950107546    -0.805377128586
    H           -0.854792145399    -1.854708385296     0.923289446694
    H           -2.362909837766     0.173144227494    -0.812510490005
    H           -3.077903807792    -1.151510802869     0.087122437310
    H           -2.345115437172     0.195168173129     0.936060034345
    C            1.251495929684     1.755549207412    -0.255388672302
    H            1.751135609558     1.768331309877     0.701629587324
    H            0.879508003628     2.738261009640    -0.495651116861
    H            1.946915529176     1.423510584447    -1.011661796996

  Mulliken Charges: (a.u.)
   Center  Symbol    Alpha    Beta     Spin     Total
       1     O     4.20410  4.20410  0.00000 -0.40820
       2     C     2.80485  2.80485  0.00000  0.39030
       3     C     3.09113  3.09113  0.00000 -0.18226
       4     O     4.14231  4.14231  0.00000 -0.28462
       5     C     3.14037  3.14037  0.00000 -0.28073
       6     H     0.44219  0.44219  0.00000  0.11562
       7     H     0.43672  0.43672  0.00000  0.12655
       8     H     0.44881  0.44881  0.00000  0.10238
       9     H     0.44940  0.44940  0.00000  0.10119
      10     H     0.45089  0.45089  0.00000  0.09822
      11     C     3.03588  3.03588  0.00000 -0.07176
      12     H     0.45324  0.45324  0.00000  0.09352
      13     H     0.44668  0.44668  0.00000  0.10663
      14     H     0.45341  0.45341  0.00000  0.09317

   Total alpha = 24.00000, Total beta = 24.00000, Total charge = -0.00000
