                              Psi4 1.0.54 Driver

  ==> Input File <==

--------------------------------------------------------------------------
set {
	reference rhf
	basis cc-pvtz
}

set_num_threads( 4 )
memory 2 gb

molecule MOL {
0 1

H	 2.614283	 2.028610	 0.296620
O	 3.358864	 1.662087	 -0.142800
C	 3.565468	 0.338079	 0.273842
C	 2.533667	 -0.637565	 -0.272227
H	 4.548038	 0.064914	 -0.086598
H	 3.593945	 0.282242	 1.360360
C	 1.114816	 -0.402372	 0.240993
H	 2.544552	 -0.580764	 -1.356576
H	 2.850574	 -1.642962	 -0.005497
C	 0.113298	 -1.420414	 -0.302504
H	 0.796373	 0.598427	 -0.031033
H	 1.113377	 -0.446476	 1.328807
C	 -1.021236	 -1.786220	 0.656285
H	 -0.309008	 -1.044767	 -1.231360
H	 0.650521	 -2.328758	 -0.560908
C	 -2.004664	 -0.656118	 0.955418
H	 -1.572457	 -2.619778	 0.229831
H	 -0.598216	 -2.151186	 1.589564
C	 -3.171448	 -1.096993	 1.835562
H	 -2.392728	 -0.262132	 0.018588
H	 -1.490837	 0.167331	 1.442158
C	 -4.153256	 0.029822	 2.139265
H	 -3.699313	 -1.912766	 1.349300
H	 -2.785072	 -1.498707	 2.768515
H	 -4.582036	 0.431716	 1.227198
H	 -4.969274	 -0.317215	 2.762793
H	 -3.663775	 0.846220	 2.660084

	symmetry c1
}
set optking {
	frozen_dihedral = ("
		14 10 7 4
	")
}

ee,wfn = optimize('scf', return_wfn=True)
oeprop( wfn, 'DIPOLE', 'QUADRUPOLE', 'MULLIKEN_CHARGES')
f=open( 'psi4out.xyz', 'w' )
f.write( "27  " )
f.write( str(ee) + "\n" )
f.write( MOL.save_string_xyz() )
f.close()
--------------------------------------------------------------------------

    Molecular point group: c1
  Charge       = 0
  Multiplicity = 1
  Basis Set: CC-PVTZ
  Basis Set:
  @DF-RHF Final Energy:  -388.42508172360670
    Total Energy =                       -388.4250817236065814
    Molecular point group: c1
  Basis Set: CC-PVTZ
  Basis Set:
  Basis Set: CC-PVTZ
  Basis Set:
  @DF-RHF Final Energy:  -388.42529727750076
    Total Energy =                       -388.4252972775003627
  Basis Set: CC-PVTZ
  Basis Set:
  Basis Set: CC-PVTZ
  Basis Set:
  @DF-RHF Final Energy:  -388.42539485205816
    Total Energy =                       -388.4253948520579343
  Basis Set: CC-PVTZ
  Basis Set:
  Basis Set: CC-PVTZ
  Basis Set:
  @DF-RHF Final Energy:  -388.42544771380273
    Total Energy =                       -388.4254477138022139
  Basis Set: CC-PVTZ
  Basis Set:
  Basis Set: CC-PVTZ
  Basis Set:
  @DF-RHF Final Energy:  -388.42544904218022
    Total Energy =                       -388.4254490421794799
  Basis Set: CC-PVTZ
  Basis Set:
  Charge       = 0
  Multiplicity = 1
  Basis Set: CC-PVTZ
  Basis Set:

    Orbital Energies (a.u.)
    -----------------------

    Doubly Occupied:

       1A    -20.545285     2A    -11.264925     3A    -11.217275
       4A    -11.214566     5A    -11.214132     6A    -11.213616
       7A    -11.213197     8A    -11.212137     9A    -11.207621
      10A     -1.363221    11A     -1.096194    12A     -1.062156
      13A     -1.012801    14A     -0.948592    15A     -0.888947
      16A     -0.821063    17A     -0.803182    18A     -0.777170
      19A     -0.695616    20A     -0.656909    21A     -0.636618
      22A     -0.616414    23A     -0.596650    24A     -0.587760
      25A     -0.581020    26A     -0.551553    27A     -0.545237
      28A     -0.532029    29A     -0.504883    30A     -0.496772
      31A     -0.486161    32A     -0.474759    33A     -0.467145
      34A     -0.460113    35A     -0.453861    36A     -0.442589
      37A     -0.425351

  @DF-RHF Final Energy:  -388.42544952039299

   => Energetics <=

    Nuclear Repulsion Energy =            459.8671978736433061
    One-Electron Energy =               -1438.0102537383913841
    Two-Electron Energy =                 589.7176063443555449
    DFT Exchange-Correlation Energy =       0.0000000000000000
    Empirical Dispersion Energy =           0.0000000000000000
    PCM Polarization Energy =               0.0000000000000000
    EFP Energy =                            0.0000000000000000
    Total Energy =                       -388.4254495203924762
    Molecular point group: c1
  Basis Set: CC-PVTZ
  Basis Set:

  -Total Gradient:
     Atom            X                  Y                   Z
    ------   -----------------  -----------------  -----------------
       1        0.000010340246    -0.000005290054     0.000003331923
       2        0.000011725458    -0.000000780617    -0.000021896106
       3       -0.000018849657     0.000007062388     0.000050591697
       4        0.000564624566    -0.001681804911     0.002227634881
       5       -0.000004305283     0.000011175215     0.000000112725
       6        0.000013159070     0.000000727865     0.000000211907
       7       -0.001483010810     0.002765432948    -0.002649677564
       8       -0.000024108104     0.000002797636     0.000007957103
       9       -0.000006958356    -0.000009396418    -0.000007821814
      10        0.003811856044    -0.002764382603    -0.001570339689
      11        0.000019606067     0.000003449214    -0.000002347860
      12        0.000009085484     0.000009907325    -0.000006851356
      13       -0.000001279241    -0.000015017012    -0.000037131208
      14       -0.002923203288     0.001676990194     0.002036994441
      15       -0.000020210206    -0.000019917245    -0.000005135387
      16        0.000012333555     0.000012949965    -0.000010696480
      17        0.000002778271    -0.000008729719    -0.000004032924
      18        0.000019781026     0.000008991928    -0.000017075388
      19        0.000012706729    -0.000004126115     0.000001348878
      20       -0.000001281205     0.000004841011     0.000004711187
      21       -0.000002024558     0.000001800328     0.000005498134
      22       -0.000006231176     0.000001356340    -0.000006012508
      23        0.000002344290     0.000000166077     0.000002224970
      24        0.000003063186     0.000000338118    -0.000001189358
      25       -0.000000237624     0.000002319459     0.000004130716
      26        0.000000262062     0.000002793963    -0.000005123233
      27       -0.000001966555    -0.000003655282     0.000000582312

  **** Optimization is complete! (in 6 steps) ****
    Final optimized geometry and variables:
    Molecular point group: c1

    Geometry (in Angstrom), charge = 0, multiplicity = 1:

    H            2.436515226276     2.441747272763    -0.396395854986
    O            3.198796322699     2.085311179750    -0.812826603683
    C            3.446670270896     0.786408025093    -0.343426835215
    C            2.452540231884    -0.244193616752    -0.856851111345
    H            4.440437357064     0.533097346728    -0.687260815865
    H            3.469505734726     0.773814342385     0.744674497110
    C            1.026189604903    -0.050881877420    -0.345912682854
    H            2.463362160230    -0.222587109647    -1.942847675836
    H            2.803771511449    -1.228347539975    -0.557410021750
    C            0.045289666486    -1.100903251512    -0.888716545430
    H            0.670580695768     0.942672906126    -0.597029596422
    H            1.044429713800    -0.105499499116     0.740767902466
    C           -1.101473420563    -1.443524373113     0.064979372019
    H           -0.389372139593    -0.741110178467    -1.817138772885
    H            0.584540499582    -2.012753668654    -1.122228743075
    C           -2.048297020293    -0.281575133791     0.357569430853
    H           -1.674754461774    -2.261728677001    -0.362382227753
    H           -0.690213160622    -1.817176815153     0.999998196093
    C           -3.209177159736    -0.667143371601     1.270434916865
    H           -2.443607242629     0.101381691778    -0.580893386084
    H           -1.499297710924     0.537961734544     0.812752776087
    C           -4.156231514991     0.492620016718     1.559971137248
    H           -3.766564289701    -1.482113468643     0.816880869027
    H           -2.815753733413    -1.052743162875     2.207128966890
    H           -4.592560779326     0.879406956057     0.644984015626
    H           -4.968381410430     0.184578034923     2.208442500619
    H           -3.636229561604     1.310536258153     2.047751818556

  Mulliken Charges: (a.u.)
   Center  Symbol    Alpha    Beta     Spin     Total
       1     H     0.39260  0.39260  0.00000  0.21480
       2     O     4.20540  4.20540  0.00000 -0.41081
       3     C     2.98022  2.98022  0.00000  0.03956
       4     C     3.08881  3.08881  0.00000 -0.17762
       5     H     0.44844  0.44844  0.00000  0.10311
       6     H     0.46996  0.46996  0.00000  0.06007
       7     C     3.10665  3.10665  0.00000 -0.21330
       8     H     0.45064  0.45064  0.00000  0.09873
       9     H     0.45557  0.45557  0.00000  0.08886
      10     C     3.09934  3.09934  0.00000 -0.19867
      11     H     0.45378  0.45378  0.00000  0.09244
      12     H     0.45361  0.45361  0.00000  0.09277
      13     C     3.09794  3.09794  0.00000 -0.19587
      14     H     0.45081  0.45081  0.00000  0.09839
      15     H     0.44700  0.44700  0.00000  0.10600
      16     C     3.08624  3.08624  0.00000 -0.17248
      17     H     0.44826  0.44826  0.00000  0.10348
      18     H     0.45448  0.45448  0.00000  0.09105
      19     C     3.08459  3.08459  0.00000 -0.16918
      20     H     0.45466  0.45466  0.00000  0.09068
      21     H     0.45418  0.45418  0.00000  0.09163
      22     C     3.14970  3.14970  0.00000 -0.29939
      23     H     0.45354  0.45354  0.00000  0.09291
      24     H     0.45459  0.45459  0.00000  0.09082
      25     H     0.45501  0.45501  0.00000  0.08998
      26     H     0.44823  0.44823  0.00000  0.10353
      27     H     0.45575  0.45575  0.00000  0.08851

   Total alpha = 37.00000, Total beta = 37.00000, Total charge = -0.00000

*** Psi4 exiting successfully. Buy a developer a beer!
