                              Psi4 1.0.54 Driver

  ==> Input File <==

--------------------------------------------------------------------------
set {
	reference rhf
	basis cc-pvtz
}

set_num_threads( 4 )
memory 2 gb

molecule MOL {
0 1

H	 2.012744	 -0.722438	 2.703310
O	 2.436932	 -0.199041	 2.046925
C	 1.586703	 0.139294	 1.061419
C	 2.084932	 0.914583	 0.024203
C	 0.265631	 -0.254516	 1.055239
H	 3.115163	 1.209845	 0.048675
C	 1.261221	 1.291248	 -1.011642
H	 -0.145099	 -0.852485	 1.842025
C	 -0.532034	 0.141680	 0.000000
H	 1.655000	 1.890443	 -1.808920
C	 -0.069299	 0.908040	 -1.040121
N	 -1.937041	 -0.281114	 0.000000
H	 -0.720345	 1.192859	 -1.837454
O	 -2.159542	 -1.446261	 0.000000
O	 -2.764978	 0.565773	 0.000000

	symmetry c1
}
set optking {
	frozen_dihedral = ("
		11 9 12 14
	")
}

ee,wfn = optimize('scf', return_wfn=True)
oeprop( wfn, 'DIPOLE', 'QUADRUPOLE', 'MULLIKEN_CHARGES')
f=open( 'psi4out.xyz', 'w' )
f.write( "15  " )
f.write( str(ee) + "\n" )
f.write( MOL.save_string_xyz() )
f.close()
--------------------------------------------------------------------------

    Molecular point group: c1
  Charge       = 0
  Multiplicity = 1
  Basis Set: CC-PVTZ
  Basis Set:
  @DF-RHF Final Energy:  -509.21234000871607
    Total Energy =                       -509.2123400087161826
    Molecular point group: c1
  Basis Set: CC-PVTZ
  Basis Set:
  Basis Set: CC-PVTZ
  Basis Set:
  @DF-RHF Final Energy:  -509.20625362672973
    Total Energy =                       -509.2062536267296764
  Basis Set: CC-PVTZ
  Basis Set:
  Basis Set: CC-PVTZ
  Basis Set:
  @DF-RHF Final Energy:  -509.21182889556104
    Total Energy =                       -509.2118288955605294
  Basis Set: CC-PVTZ
  Basis Set:
  Basis Set: CC-PVTZ
  Basis Set:
  @DF-RHF Final Energy:  -509.21279727852237
    Total Energy =                       -509.2127972785228849
  Basis Set: CC-PVTZ
  Basis Set:
  Basis Set: CC-PVTZ
  Basis Set:
  @DF-RHF Final Energy:  -509.21280841351944
    Total Energy =                       -509.2128084135193831
  Basis Set: CC-PVTZ
  Basis Set:
  Basis Set: CC-PVTZ
  Basis Set:
  @DF-RHF Final Energy:  -509.21283884800590
    Total Energy =                       -509.2128388480058447
  Basis Set: CC-PVTZ
  Basis Set:
  Charge       = 0
  Multiplicity = 1
  Basis Set: CC-PVTZ
  Basis Set:

    Orbital Energies (a.u.)
    -----------------------

    Doubly Occupied:

       1A    -20.610186     2A    -20.599200     3A    -20.598832
       4A    -15.850480     5A    -11.330119     6A    -11.313035
       7A    -11.264843     8A    -11.263948     9A    -11.258471
      10A    -11.252180    11A     -1.646783    12A     -1.443065
      13A     -1.429938    14A     -1.204392    15A     -1.096678
      16A     -1.049771    17A     -0.966909    18A     -0.886001
      19A     -0.833309    20A     -0.793866    21A     -0.766205
      22A     -0.740779    23A     -0.725048    24A     -0.712597
      25A     -0.673677    26A     -0.636210    27A     -0.623415
      28A     -0.597059    29A     -0.565036    30A     -0.549616
      31A     -0.534234    32A     -0.495140    33A     -0.489617
      34A     -0.460208    35A     -0.377262    36A     -0.346565

  @DF-RHF Final Energy:  -509.21283905564695

   => Energetics <=

    Nuclear Repulsion Energy =            504.2066264331863863
    One-Electron Energy =               -1694.8695821488445290
    Two-Electron Energy =                 681.4501166600110764
    DFT Exchange-Correlation Energy =       0.0000000000000000
    Empirical Dispersion Energy =           0.0000000000000000
    PCM Polarization Energy =               0.0000000000000000
    EFP Energy =                            0.0000000000000000
    Total Energy =                       -509.2128390556471231
    Molecular point group: c1
  Basis Set: CC-PVTZ
  Basis Set:

  -Total Gradient:
     Atom            X                  Y                   Z
    ------   -----------------  -----------------  -----------------
       1       -0.000002864291     0.000007287469     0.000003550978
       2        0.000008060984     0.000009943097     0.000021013035
       3       -0.000002917231    -0.000054280795    -0.000040011729
       4       -0.000001051904     0.000013433940     0.000015194172
       5        0.000018930044    -0.000004761497     0.000012062779
       6        0.000000740713    -0.000006838772    -0.000004540068
       7       -0.000016008887     0.000044273292     0.000024013591
       8        0.000001795425     0.000003747840    -0.000004336392
       9       -0.001907735877     0.005416432305     0.001171148824
      10       -0.000002424677    -0.000002233417    -0.000001771207
      11        0.001350939197    -0.003826341305    -0.002159619057
      12        0.000324057632    -0.001564855985     0.006125302051
      13        0.000003290238     0.000000565738     0.000003973901
      14        0.000236313127    -0.000104465065    -0.005162661508
      15       -0.000011124483     0.000068093157    -0.000003319368

  **** Optimization is complete! (in 7 steps) ****
    Final optimized geometry and variables:
    Molecular point group: c1

    Geometry (in Angstrom), charge = 0, multiplicity = 1:

    H            2.041865404445    -0.826224595324     2.478331232777
    O            2.461301854952    -0.295526758095     1.824845989073
    C            1.615340160665     0.028902881340     0.833152394958
    C            2.113475816865     0.798899972376    -0.208325673120
    C            0.297850208695    -0.382872952890     0.817985896139
    H            3.142204616634     1.098362205933    -0.182850288768
    C            1.292863485519     1.159136259365    -1.252024649570
    H           -0.104244266958    -1.006648085479     1.592160440752
    C           -0.497072609488     0.025327699233    -0.230111466114
    H            1.690084744075     1.744748307864    -2.057828474559
    C           -0.039307324824     0.777995020432    -1.278320498911
    N           -1.882381049973    -0.447907150190    -0.263211231221
    H           -0.693103284871     1.063512357364    -2.076080825877
    O           -2.051975190271    -1.620557394378    -0.237745827250
    O           -2.732754767287     0.371432772542    -0.352602213646

  Mulliken Charges: (a.u.)
   Center  Symbol    Alpha    Beta     Spin     Total
       1     H     0.38453  0.38453  0.00000  0.23095
       2     O     4.16729  4.16729  0.00000 -0.33458
       3     C     2.84273  2.84273  0.00000  0.31454
       4     C     3.10465  3.10465  0.00000 -0.20929
       5     C     3.14099  3.14099  0.00000 -0.28197
       6     H     0.41399  0.41399  0.00000  0.17201
       7     C     3.05111  3.05111  0.00000 -0.10222
       8     H     0.42013  0.42013  0.00000  0.15974
       9     C     2.92610  2.92610  0.00000  0.14780
      10     H     0.41629  0.41629  0.00000  0.16741
      11     C     3.10818  3.10818  0.00000 -0.21636
      12     N     3.28272  3.28272  0.00000  0.43456
      13     H     0.41009  0.41009  0.00000  0.17983
      14     O     4.16592  4.16592  0.00000 -0.33184
      15     O     4.16529  4.16529  0.00000 -0.33058

   Total alpha = 36.00000, Total beta = 36.00000, Total charge = -0.00000

*** Psi4 exiting successfully. Buy a developer a beer!
