                              Psi4 1.0.54 Driver

  ==> Input File <==

--------------------------------------------------------------------------
set {
	reference rhf
	basis cc-pvtz
}

set_num_threads( 4 )
memory 2 gb

molecule MOL {
0 1

H	 2.824774	 -2.194498	 2.522768
C	 2.707686	 -1.785646	 1.526154
C	 1.421025	 -0.975451	 1.413279
H	 3.577028	 -1.170856	 1.318028
H	 2.715122	 -2.614841	 0.826586
C	 1.215950	 -0.382441	 0.027187
H	 1.423003	 -0.169511	 2.138691
H	 0.573192	 -1.610524	 1.659123
N	 0.000002	 0.398953	 -0.040851
H	 2.049818	 0.271563	 -0.209690
H	 1.232982	 -1.184917	 -0.716335
C	 -1.215959	 -0.382435	 0.027143
H	 -0.000012	 1.086078	 0.683841
C	 -2.451944	 0.502410	 -0.038737
H	 -1.221867	 -1.069392	 -0.813828
H	 -1.259993	 -0.999709	 0.929424
C	 -3.752217	 -0.292550	 0.005776
H	 -2.407325	 1.093801	 -0.946480
H	 -2.431979	 1.206234	 0.790023
H	 -3.817783	 -0.982946	 -0.828547
H	 -4.612613	 0.364348	 -0.042306
H	 -3.830160	 -0.871666	 0.919868

	symmetry c1
}
set optking {
	frozen_dihedral = ("
		10 6 9 12
	")
}

ee,wfn = optimize('scf', return_wfn=True)
oeprop( wfn, 'DIPOLE', 'QUADRUPOLE', 'MULLIKEN_CHARGES')
f=open( 'psi4out.xyz', 'w' )
f.write( "22  " )
f.write( str(ee) + "\n" )
f.write( MOL.save_string_xyz() )
f.close()
--------------------------------------------------------------------------

    Molecular point group: c1
  Charge       = 0
  Multiplicity = 1
  Basis Set: CC-PVTZ
  Basis Set:
  @DF-RHF Final Energy:  -290.48478237594304
    Total Energy =                       -290.4847823759427001
    Molecular point group: c1
  Basis Set: CC-PVTZ
  Basis Set:
  Basis Set: CC-PVTZ
  Basis Set:
  @DF-RHF Final Energy:  -290.08514880823247
    Total Energy =                       -290.0851488082325886
  Basis Set: CC-PVTZ
  Basis Set:
  Basis Set: CC-PVTZ
  Basis Set:
  @DF-RHF Final Energy:  -290.25175633016647
    Total Energy =                       -290.2517563301664723
  Basis Set: CC-PVTZ
  Basis Set:
  Basis Set: CC-PVTZ
  Basis Set:
  @DF-RHF Final Energy:  -290.42044284314250
    Total Energy =                       -290.4204428431428369
  Basis Set: CC-PVTZ
  Basis Set:
  @DF-RHF Final Energy:  -290.48366807506147
    Total Energy =                       -290.4836680750614164
  @DF-RHF Final Energy:  -290.48704161081855
    Total Energy =                       -290.4870416108187783
  Basis Set: CC-PVTZ
  Basis Set:
  @DF-RHF Final Energy:  -290.48748812761534
    Total Energy =                       -290.4874881276153928
  Basis Set: CC-PVTZ
  Basis Set:
  Basis Set: CC-PVTZ
  Basis Set:
  @DF-RHF Final Energy:  -290.48754123268805
    Total Energy =                       -290.4875412326877040
  Basis Set: CC-PVTZ
  Basis Set:
  Basis Set: CC-PVTZ
  Basis Set:
  @DF-RHF Final Energy:  -290.48754735321586
    Total Energy =                       -290.4875473532159162
  Basis Set: CC-PVTZ
  Basis Set:
  Charge       = 0
  Multiplicity = 1
  Basis Set: CC-PVTZ
  Basis Set:

    Orbital Energies (a.u.)
    -----------------------

    Doubly Occupied:

       1A    -15.526599     2A    -11.236395     3A    -11.235743
       4A    -11.211377     5A    -11.210286     6A    -11.208477
       7A    -11.206746     8A     -1.204221     9A     -1.058018
      10A     -1.027534    11A     -0.929639    12A     -0.872007
      13A     -0.808055    14A     -0.798976    15A     -0.665449
      16A     -0.634986    17A     -0.616294    18A     -0.600989
      19A     -0.580229    20A     -0.555680    21A     -0.543150
      22A     -0.521076    23A     -0.506793    24A     -0.494573
      25A     -0.484702    26A     -0.471423    27A     -0.468232
      28A     -0.460993    29A     -0.353363

  @DF-RHF Final Energy:  -290.48754780710539

   => Energetics <=

    Nuclear Repulsion Energy =            317.0325822318915812
    One-Electron Energy =               -1020.0562509885539839
    Two-Electron Energy =                 412.5361209495569597
    DFT Exchange-Correlation Energy =       0.0000000000000000
    Empirical Dispersion Energy =           0.0000000000000000
    PCM Polarization Energy =               0.0000000000000000
    EFP Energy =                            0.0000000000000000
    Total Energy =                       -290.4875478071053863
    Molecular point group: c1
  Basis Set: CC-PVTZ
  Basis Set:

  -Total Gradient:
     Atom            X                  Y                   Z
    ------   -----------------  -----------------  -----------------
       1       -0.000001703989     0.000002070698    -0.000006005113
       2       -0.000028845423     0.000023357887     0.000003839425
       3        0.000031011508    -0.000019263002    -0.000023823110
       4        0.000003820564    -0.000011684999     0.000000135584
       5        0.000000288570    -0.000001456054     0.000004841902
       6       -0.000029120552     0.000017109129     0.000097739277
       7       -0.000001343630     0.000001043249     0.000001485051
       8        0.000002082785     0.000014485438    -0.000005232066
       9        0.000020789064     0.000023978420     0.000082512350
      10        0.000007446475    -0.000041820098    -0.000099772408
      11        0.000023048140    -0.000000446175    -0.000000964165
      12        0.000005709454    -0.000032640428    -0.000024578030
      13       -0.000023150359    -0.000020601308     0.000003320419
      14       -0.000024608106     0.000014256299    -0.000007050848
      15       -0.000007367732     0.000026344361     0.000002297502
      16       -0.000008118769     0.000009606670    -0.000019356266
      17       -0.000001675837     0.000000611615    -0.000011436363
      18       -0.000002878980    -0.000008275070     0.000014438151
      19        0.000017230428    -0.000016158777    -0.000010027676
      20        0.000003507130     0.000006213611     0.000005778775
      21        0.000009593199     0.000001537696    -0.000002810641
      22        0.000004286055     0.000011730839    -0.000005331752

  **** Optimization is complete! (in 10 steps) ****
    Final optimized geometry and variables:
    Molecular point group: c1

    Geometry (in Angstrom), charge = 0, multiplicity = 1:

    H            3.944336400223     0.322607022321     1.645169561594
    C            3.442065888951     0.582162461009     0.720722160784
    C            1.927967621599     0.461920099298     0.860413245581
    H            3.733177285726     1.594201040857     0.459455152047
    H            3.817088724953    -0.078020672534    -0.054465069615
    C            1.194470031113     0.831918631389    -0.430053236256
    H            1.584195409194     1.112261117496     1.661414193807
    H            1.674363211130    -0.550721955854     1.155185732135
    N           -0.252908329842     0.806368033645    -0.386378113602
    H            1.496843591429     1.831022310632    -0.728061415561
    H            1.515786946516     0.168395602835    -1.227535637347
    C           -0.874092291734    -0.491715303765    -0.227621483089
    H           -0.591666333853     1.441191295818     0.305261191918
    C           -2.386943021874    -0.394903338825    -0.365984819496
    H           -0.485237041536    -1.143304995092    -1.004649490630
    H           -0.636144575728    -0.969515792701     0.724489194830
    C           -3.082156895751    -1.744578977634    -0.226187509355
    H           -2.619419782567     0.048031139079    -1.327778504662
    H           -2.770352390418     0.287475353926     0.388870259194
    H           -2.741504256031    -2.441136495922    -0.985150277193
    H           -4.155844370537    -1.642923217894    -0.331254356506
    H           -2.886742017389    -2.191527160594     0.742928586769

  Mulliken Charges: (a.u.)
   Center  Symbol    Alpha    Beta     Spin     Total
       1     H     0.44761  0.44761  0.00000  0.10478
       2     C     3.15168  3.15168  0.00000 -0.30336
       3     C     3.08630  3.08630  0.00000 -0.17260
       4     H     0.45465  0.45465  0.00000  0.09070
       5     H     0.45467  0.45467  0.00000  0.09065
       6     C     3.04489  3.04489  0.00000 -0.08977
       7     H     0.45892  0.45892  0.00000  0.08217
       8     H     0.45342  0.45342  0.00000  0.09315
       9     N     3.64280  3.64280  0.00000 -0.28560
      10     H     0.44808  0.44808  0.00000  0.10384
      11     H     0.45590  0.45590  0.00000  0.08819
      12     C     3.02222  3.02222  0.00000 -0.04445
      13     H     0.44616  0.44616  0.00000  0.10768
      14     C     3.07913  3.07913  0.00000 -0.15826
      15     H     0.45959  0.45959  0.00000  0.08081
      16     H     0.47239  0.47239  0.00000  0.05521
      17     C     3.15369  3.15369  0.00000 -0.30737
      18     H     0.44924  0.44924  0.00000  0.10152
      19     H     0.45938  0.45938  0.00000  0.08124
      20     H     0.45509  0.45509  0.00000  0.08983
      21     H     0.44773  0.44773  0.00000  0.10455
      22     H     0.45645  0.45645  0.00000  0.08711

   Total alpha = 29.00000, Total beta = 29.00000, Total charge = -0.00000

*** Psi4 exiting successfully. Buy a developer a beer!
