  ==> Input File <==

--------------------------------------------------------------------------
set {
	reference rhf
	basis 6-31G*
}

set_num_threads( 4 )
memory 2 gb

molecule MOL {
0 1

H	 -2.646374	 -0.642757	 1.268656
C	 -2.083525	 -0.384536	 0.393091
O	 -0.807605	 -0.127164	 0.768327
F	 -2.118945	 -1.383102	 -0.486752
F	 -2.621877	 0.670592	 -0.209486
C	 0.084052	 0.273579	 -0.209957
C	 -0.384914	 -0.346212	 -1.519953
Cl	 1.728297	 -0.258250	 0.178413
H	 0.106649	 1.342571	 -0.330452
F	 0.413362	 0.004270	 -2.505883
F	 -1.593816	 0.102650	 -1.792930
F	 -0.431756	 -1.654688	 -1.459377

	symmetry c1
}
set optking {
	frozen_dihedral = ("
		9 6 3 2
	")
}

ee = optimize('scf')
oeprop('DIPOLE', 'QUADRUPOLE', 'MULLIKEN_CHARGES')
f=open( 'psi4out.xyz', 'w' )
f.write( "12  " )
f.write( str(ee) + "\n" )
f.write( MOL.save_string_xyz() )
f.close()
--------------------------------------------------------------------------

    Molecular point group: c1
  Charge       = 0
  Multiplicity = 1
  Basis Set: 6-31G*
  Basis Set:
  @DF-RHF Final Energy: -1146.21946286276579
    Total Energy =                      -1146.2194628627648854
    Molecular point group: c1
  Basis Set: 6-31G*
  Basis Set:
  Basis Set: 6-31G*
  Basis Set:
  @DF-RHF Final Energy: -1146.25448538294086
    Total Energy =                      -1146.2544853829404019
  Basis Set: 6-31G*
  Basis Set:
  Basis Set: 6-31G*
  Basis Set:
  @DF-RHF Final Energy: -1146.27777608437327
    Total Energy =                      -1146.2777760843741817
  Basis Set: 6-31G*
  Basis Set:
  Basis Set: 6-31G*
  Basis Set:
  @DF-RHF Final Energy: -1146.28936479321419
    Total Energy =                      -1146.2893647932139629
  Basis Set: 6-31G*
  Basis Set:
  @DF-RHF Final Energy: -1146.29614149451118
    Total Energy =                      -1146.2961414945111756
  @DF-RHF Final Energy: -1146.29962745114108
    Total Energy =                      -1146.2996274511413048
  @DF-RHF Final Energy: -1146.30102546558464
    Total Energy =                      -1146.3010254655841891
  @DF-RHF Final Energy: -1146.30142268720260
    Total Energy =                      -1146.3014226872023755
  @DF-RHF Final Energy: -1146.30148809521575
    Total Energy =                      -1146.3014880952159729
  Basis Set: 6-31G*
  Basis Set:
  @DF-RHF Final Energy: -1146.30149389960934
    Total Energy =                      -1146.3014938996088858
  Basis Set: 6-31G*
  Basis Set:
  Basis Set: 6-31G*
  Basis Set:
  @DF-RHF Final Energy: -1146.30149535266037
    Total Energy =                      -1146.3014953526601403
  Basis Set: 6-31G*
  Basis Set:
  Basis Set: 6-31G*
  Basis Set:
  @DF-RHF Final Energy: -1146.30149690411645
    Total Energy =                      -1146.3014969041159929
  Basis Set: 6-31G*
  Basis Set:
  Charge       = 0
  Multiplicity = 1
  Basis Set: 6-31G*
  Basis Set:

    Orbital Energies (a.u.)
    -----------------------

    Doubly Occupied:

       1A   -104.844474     2A    -26.361788     3A    -26.360643
       4A    -26.359458     5A    -26.341198     6A    -26.340322
       7A    -20.643743     8A    -11.532004     9A    -11.487296
      10A    -11.404947    11A    -10.579218    12A     -8.048596
      13A     -8.044989    14A     -8.044895    15A     -1.764157
      16A     -1.711744    17A     -1.660022    18A     -1.658158
      19A     -1.634472    20A     -1.476139    21A     -1.182049
      22A     -1.042675    23A     -0.995976    24A     -0.918303
      25A     -0.857366    26A     -0.853245    27A     -0.849121
      28A     -0.826461    29A     -0.812151    30A     -0.769593
      31A     -0.730392    32A     -0.729320    33A     -0.707053
      34A     -0.689584    35A     -0.678982    36A     -0.674089
      37A     -0.660151    38A     -0.658562    39A     -0.649534
      40A     -0.642534    41A     -0.585765    42A     -0.547252
      43A     -0.532341    44A     -0.478106    45A     -0.468389

  @DF-RHF Final Energy: -1146.30149750977807

   => Energetics <=

    Nuclear Repulsion Energy =            753.6447850174250789
    One-Electron Energy =               -3090.2180493340083558
    Two-Electron Energy =                1190.2717668068062267
    DFT Exchange-Correlation Energy =       0.0000000000000000
    Empirical Dispersion Energy =           0.0000000000000000
    PCM Polarization Energy =               0.0000000000000000
    EFP Energy =                            0.0000000000000000
    Total Energy =                      -1146.3014975097771639
    Molecular point group: c1
  Basis Set: 6-31G*
  Basis Set:

  -Total Gradient:
     Atom            X                  Y                   Z
    ------   -----------------  -----------------  -----------------
       1        0.000031857109     0.000005858496     0.000021732071
       2        0.000813540025    -0.004675399552    -0.001011542327
       3       -0.000126712907     0.007306742345     0.002341771806
       4       -0.000064553595    -0.000033678049     0.000081212873
       5        0.000003094010     0.000051155911     0.000067459816
       6       -0.004348678142    -0.002693426632    -0.004888503287
       7       -0.000139683041    -0.000099443307     0.000088013197
       8       -0.000048867794    -0.000024778431     0.000144510344
       9        0.003714754385     0.000092522957     0.003404616029
      10       -0.000056057646     0.000045974272    -0.000065863376
      11        0.000228038649     0.000111615992    -0.000137855168
      12       -0.000006731023    -0.000087144000    -0.000045551997

  **** Optimization is complete! (in 13 steps) ****
    Final optimized geometry and variables:
    Molecular point group: c1

    Geometry (in Angstrom), charge = 0, multiplicity = 1:

    H           -2.005028248754    -0.236099820661     2.218926910365
    C           -1.619683689055    -0.050009476548     1.235037237787
    O           -0.290288461672     0.177527407776     1.370092418517
    F           -1.868746126098    -1.092875618408     0.455216770717
    F           -2.234165687102     1.002758002168     0.702407700516
    C            0.584849143356     0.548281721657     0.354373833365
    C            0.338728411383    -0.022250813858    -1.046915452628
    CL           2.193341585207     0.037453516513     0.902054592307
    H            0.627985061204     1.621908072227     0.282637450824
    F            1.276435685039     0.436215595196    -1.851400454429
    F           -0.818694813362     0.392091037120    -1.517823567710
    F            0.365189636054    -1.330773114815    -1.077593297178

  Mulliken Charges: (a.u.)
   Center  Symbol    Alpha    Beta     Spin     Total
       1     H     0.40291  0.40291  0.00000  0.19418
       2     C     2.56098  2.56098  0.00000  0.87805
       3     O     4.31442  4.31442  0.00000 -0.62884
       4     F     4.68318  4.68318  0.00000 -0.36636
       5     F     4.68720  4.68720  0.00000 -0.37441
       6     C     3.01383  3.01383  0.00000 -0.02766
       7     C     2.45347  2.45347  0.00000  1.09305
       8    CL     8.49866  8.49866  0.00000  0.00267
       9     H     0.37138  0.37138  0.00000  0.25725
      10     F     4.67351  4.67351  0.00000 -0.34702
      11     F     4.67417  4.67417  0.00000 -0.34834
      12     F     4.66629  4.66629  0.00000 -0.33259

   Total alpha = 45.00000, Total beta = 45.00000, Total charge =  0.00000
