  ==> Input File <==

--------------------------------------------------------------------------
set {
	reference rhf
	basis 6-31G*
}

set_num_threads( 1 )
memory 2 gb

molecule MOL {
0 1

O	 -0.988096	 -1.408613	 0.050699
C	 -0.676749	 -0.249230	 -0.009274
C	 -1.746085	 0.827156	 -0.009539
N	 0.623947	 0.147590	 -0.102813
H	 -1.701500	 1.431508	 -0.908902
H	 -2.703425	 0.330732	 0.036390
H	 -1.647323	 1.487769	 0.845106
C	 1.099821	 1.184540	 0.791701
C	 1.475476	 -0.128947	 -1.238891
H	 2.113719	 0.956735	 1.101755
H	 0.463174	 1.230598	 1.658016
H	 1.101024	 2.156989	 0.304093
H	 2.499626	 -0.226082	 -0.898713
H	 1.203685	 -1.053390	 -1.723110
H	 1.441510	 0.670932	 -1.976354

	symmetry c1
}
set optking {
	frozen_dihedral = ("
		2 4 8 10
	")
}

ee = energy('scf')
oeprop('DIPOLE', 'QUADRUPOLE', 'MULLIKEN_CHARGES')
f=open( 'psi4out.xyz', 'w' )
f.write( "15  " )
f.write( str(ee) + "\n" )
f.write( MOL.save_string_xyz() )
f.close()
--------------------------------------------------------------------------

    Molecular point group: c1

    Geometry (in Angstrom), charge = 0, multiplicity = 1:

       Center              X                  Y                   Z               Mass
    ------------   -----------------  -----------------  -----------------  -----------------
           O         -0.960007628375    -1.479577334668     0.140223398370    15.994914619560
           C         -0.648660628375    -0.320194334668     0.080250398370    12.000000000000
           C         -1.717996628375     0.756191665332     0.079985398370    12.000000000000
           N          0.652035371625     0.076625665332    -0.013288601630    14.003074004780
           H         -1.673411628375     1.360543665332    -0.819377601630     1.007825032070
           H         -2.675336628375     0.259767665332     0.125914398370     1.007825032070
           H         -1.619234628375     1.416804665332     0.934630398370     1.007825032070
           C          1.127909371625     1.113575665332     0.881225398370    12.000000000000
           C          1.503564371625    -0.199911334668    -1.149366601630    12.000000000000
           H          2.141807371625     0.885770665332     1.191279398370     1.007825032070
           H          0.491262371625     1.159633665332     1.747540398370     1.007825032070
           H          1.129112371625     2.086024665332     0.393617398370     1.007825032070
           H          2.527714371625    -0.297046334668    -0.809188601630     1.007825032070
           H          1.231773371625    -1.124354334668    -1.633585601630     1.007825032070
           H          1.469598371625     0.599967665332    -1.886829601630     1.007825032070

  Charge       = 0
  Multiplicity = 1
  Basis Set: 6-31G*
  Basis Set:

    Orbital Energies (a.u.)
    -----------------------

    Doubly Occupied:

       1A    -20.534641     2A    -15.560621     3A    -11.345162
       4A    -11.261333     5A    -11.258786     6A    -11.226386
       7A     -1.391096     8A     -1.240171     9A     -1.009862
      10A     -0.972588    11A     -0.920031    12A     -0.739747
      13A     -0.675620    14A     -0.658383    15A     -0.649089
      16A     -0.596053    17A     -0.586069    18A     -0.571875
      19A     -0.560433    20A     -0.551843    21A     -0.534935
      22A     -0.487467    23A     -0.418818    24A     -0.355542

  @DF-RHF Final Energy:  -286.00302750903040

   => Energetics <=

    Nuclear Repulsion Energy =            251.5032141980790072
    One-Electron Energy =                -886.7992469760721406
    Two-Electron Energy =                 349.2930052689628155
    DFT Exchange-Correlation Energy =       0.0000000000000000
    Empirical Dispersion Energy =           0.0000000000000000
    PCM Polarization Energy =               0.0000000000000000
    EFP Energy =                            0.0000000000000000
    Total Energy =                       -286.0030275090302894

  Mulliken Charges: (a.u.)
   Center  Symbol    Alpha    Beta     Spin     Total
       1     O     4.26776  4.26776  0.00000 -0.53552
       2     C     2.65169  2.65169  0.00000  0.69663
       3     C     3.28710  3.28710  0.00000 -0.57421
       4     N     3.81993  3.81993  0.00000 -0.63985
       5     H     0.40727  0.40727  0.00000  0.18545
       6     H     0.39556  0.39556  0.00000  0.20889
       7     H     0.40944  0.40944  0.00000  0.18113
       8     C     3.14196  3.14196  0.00000 -0.28393
       9     C     3.13730  3.13730  0.00000 -0.27459
      10     H     0.40903  0.40903  0.00000  0.18194
      11     H     0.41084  0.41084  0.00000  0.17833
      12     H     0.42411  0.42411  0.00000  0.15177
      13     H     0.41478  0.41478  0.00000  0.17044
      14     H     0.39885  0.39885  0.00000  0.20230
      15     H     0.42438  0.42438  0.00000  0.15123

   Total alpha = 24.00000, Total beta = 24.00000, Total charge =  0.00000
