                              Psi4 1.0.54 Driver

  ==> Input File <==

--------------------------------------------------------------------------
set {
	reference rhf
	basis cc-pvtz
}

set_num_threads( 4 )
memory 2 gb

molecule MOL {
0 1

H	 -2.644180	 -0.653737	 1.272255
C	 -2.092774	 -0.380414	 0.391915
O	 -0.808934	 -0.154049	 0.752536
F	 -2.163230	 -1.351640	 -0.507133
F	 -2.627232	 0.691260	 -0.169301
C	 0.085006	 0.250800	 -0.215074
C	 0.303524	 -0.929741	 -1.158392
Cl	 1.627599	 0.748661	 0.504705
H	 -0.281011	 1.079588	 -0.795408
F	 1.136366	 -0.604404	 -2.114192
F	 -0.841517	 -1.251450	 -1.712196
F	 0.767377	 -1.979638	 -0.538062

	symmetry c1
}
set optking {
	frozen_dihedral = ("
		9 6 3 2
	")
}

ee,wfn = optimize('scf', return_wfn=True)
oeprop( wfn, 'DIPOLE', 'QUADRUPOLE', 'MULLIKEN_CHARGES')
f=open( 'psi4out.xyz', 'w' )
f.write( "12  " )
f.write( str(ee) + "\n" )
f.write( MOL.save_string_xyz() )
f.close()
--------------------------------------------------------------------------

    Molecular point group: c1
  Charge       = 0
  Multiplicity = 1
  Basis Set: CC-PVTZ
  Basis Set:
  @DF-RHF Final Energy: -1146.54785358324534
    Total Energy =                      -1146.5478535832448870
    Molecular point group: c1
  Basis Set: CC-PVTZ
  Basis Set:
  Basis Set: CC-PVTZ
  Basis Set:
  @DF-RHF Final Energy: -1146.58653392002975
    Total Energy =                      -1146.5865339200299786
  Basis Set: CC-PVTZ
  Basis Set:
  Basis Set: CC-PVTZ
  Basis Set:
  @DF-RHF Final Energy: -1146.59970020258834
    Total Energy =                      -1146.5997002025894744
  Basis Set: CC-PVTZ
  Basis Set:
  Basis Set: CC-PVTZ
  Basis Set:
  @DF-RHF Final Energy: -1146.60734684040972
    Total Energy =                      -1146.6073468404092637
  Basis Set: CC-PVTZ
  Basis Set:
  @DF-RHF Final Energy: -1146.61088760361008
    Total Energy =                      -1146.6108876036100810
  @DF-RHF Final Energy: -1146.61210868366015
    Total Energy =                      -1146.6121086836610630
  @DF-RHF Final Energy: -1146.61245663645559
    Total Energy =                      -1146.6124566364564998
  @DF-RHF Final Energy: -1146.61257933505044
    Total Energy =                      -1146.6125793350497588
  Basis Set: CC-PVTZ
  Basis Set:
  @DF-RHF Final Energy: -1146.61260311568049
    Total Energy =                      -1146.6126031156798035
  Basis Set: CC-PVTZ
  Basis Set:
  Basis Set: CC-PVTZ
  Basis Set:
  @DF-RHF Final Energy: -1146.61260840463092
    Total Energy =                      -1146.6126084046313736
  Basis Set: CC-PVTZ
  Basis Set:
  Basis Set: CC-PVTZ
  Basis Set:
  @DF-RHF Final Energy: -1146.61261009437521
    Total Energy =                      -1146.6126100943758956
  Basis Set: CC-PVTZ
  Basis Set:
  Charge       = 0
  Multiplicity = 1
  Basis Set: CC-PVTZ
  Basis Set:

    Orbital Energies (a.u.)
    -----------------------

    Doubly Occupied:

       1A   -104.859153     2A    -26.353788     3A    -26.353475
       4A    -26.352981     5A    -26.345990     6A    -26.336415
       7A    -20.636735     8A    -11.519584     9A    -11.482929
      10A    -11.402117    11A    -10.584610    12A     -8.051434
      13A     -8.049402    14A     -8.049330    15A     -1.767795
      16A     -1.722393    17A     -1.662517    18A     -1.660897
      19A     -1.644059    20A     -1.479952    21A     -1.181361
      22A     -1.044490    23A     -0.995576    24A     -0.923442
      25A     -0.859289    26A     -0.855173    27A     -0.851438
      28A     -0.837622    29A     -0.822626    30A     -0.789989
      31A     -0.733323    32A     -0.730837    33A     -0.713283
      34A     -0.699510    35A     -0.682986    36A     -0.680262
      37A     -0.666680    38A     -0.662238    39A     -0.649654
      40A     -0.644562    41A     -0.593634    42A     -0.559271
      43A     -0.531823    44A     -0.481378    45A     -0.470167

  @DF-RHF Final Energy: -1146.61261068784688

   => Energetics <=

    Nuclear Repulsion Energy =            747.9096884810467145
    One-Electron Energy =               -3079.0922537601077238
    Two-Electron Energy =                1184.5699545912134454
    DFT Exchange-Correlation Energy =       0.0000000000000000
    Empirical Dispersion Energy =           0.0000000000000000
    PCM Polarization Energy =               0.0000000000000000
    EFP Energy =                            0.0000000000000000
    Total Energy =                      -1146.6126106878477913
    Molecular point group: c1
  Basis Set: CC-PVTZ
  Basis Set:

  -Total Gradient:
     Atom            X                  Y                   Z
    ------   -----------------  -----------------  -----------------
       1       -0.000010735522    -0.000015908569    -0.000003569536
       2        0.000089877674    -0.002599327001    -0.000646094270
       3        0.000234994361     0.004392070298     0.001570575505
       4        0.000017989591     0.000039081167     0.000047792247
       5        0.000008713090     0.000003284897     0.000018009333
       6       -0.001992161698    -0.003409451120    -0.002763020203
       7       -0.000100549028    -0.000016738402     0.000018720954
       8       -0.000032590773    -0.000011895903    -0.000017455916
       9        0.001696933257     0.001595159398     0.001870000772
      10        0.000001611432    -0.000015811028    -0.000027608625
      11        0.000076414088    -0.000002189400    -0.000060324658
      12        0.000009503505     0.000041725721    -0.000007025577

  **** Optimization is complete! (in 12 steps) ****
    Final optimized geometry and variables:
    Molecular point group: c1

    Geometry (in Angstrom), charge = 0, multiplicity = 1:

    H           -2.256976199741     0.428880425671     1.977627044456
    C           -1.808780198412     0.272607794214     1.013168226961
    O           -0.462843501377     0.300399479593     1.175292423502
    F           -2.212894939261    -0.885248127867     0.527592324903
    F           -2.208655763903     1.215049792768     0.171801945552
    C            0.411295199276     0.597158027334     0.142644784230
    C            0.565764303463    -0.533143122269    -0.880908481534
    CL           1.975071477841     0.916264086182     0.904549489996
    H            0.129925849552     1.497942364543    -0.373785677634
    F            1.525943688673    -0.248898718948    -1.724383948772
    F           -0.541052079234    -0.657648746999    -1.574539485958
    F            0.829150571101    -1.677493147464    -0.313610693138

  Mulliken Charges: (a.u.)
   Center  Symbol    Alpha    Beta     Spin     Total
       1     H     0.44863  0.44863  0.00000  0.10274
       2     C     2.74237  2.74237  0.00000  0.51525
       3     O     4.15846  4.15846  0.00000 -0.31692
       4     F     4.61178  4.61178  0.00000 -0.22356
       5     F     4.62093  4.62093  0.00000 -0.24186
       6     C     2.93386  2.93386  0.00000  0.13229
       7     C     2.68006  2.68006  0.00000  0.63988
       8    CL     8.57086  8.57086  0.00000 -0.14172
       9     H     0.42563  0.42563  0.00000  0.14873
      10     F     4.60239  4.60239  0.00000 -0.20479
      11     F     4.60441  4.60441  0.00000 -0.20882
      12     F     4.60061  4.60061  0.00000 -0.20123

   Total alpha = 45.00000, Total beta = 45.00000, Total charge = -0.00000

*** Psi4 exiting successfully. Buy a developer a beer!
