  ==> Input File <==

--------------------------------------------------------------------------
set {
	reference rhf
	basis 6-31G*
}

set_num_threads( 4 )
memory 2 gb

molecule MOL {
0 1

H	 3.078537	 1.337006	 -0.796766
C	 2.364254	 1.134346	 -0.007047
C	 1.322923	 0.120767	 -0.479465
H	 2.915717	 0.764628	 0.851773
H	 1.901233	 2.076234	 0.270535
C	 0.306652	 -0.176050	 0.621399
H	 1.808372	 -0.805801	 -0.767975
H	 0.797101	 0.498503	 -1.348423
N	 -1.068537	 -0.011044	 0.085269
H	 0.372515	 -1.192590	 0.973735
H	 0.391664	 0.520566	 1.441230
O	 -1.656956	 -0.997225	 -0.235017
O	 -1.478635	 1.104830	 -0.018026

	symmetry c1
}
set optking {
	frozen_dihedral = ("
		7 3 6 9
	")
}

ee = optimize('scf')
oeprop('DIPOLE', 'QUADRUPOLE', 'MULLIKEN_CHARGES')
f=open( 'psi4out.xyz', 'w' )
f.write( "13  " )
f.write( str(ee) + "\n" )
f.write( MOL.save_string_xyz() )
f.close()
--------------------------------------------------------------------------

    Molecular point group: c1
  Charge       = 0
  Multiplicity = 1
  Basis Set: 6-31G*
  Basis Set:
  @DF-RHF Final Energy:  -321.72984263766205
    Total Energy =                       -321.7298426376621592
    Molecular point group: c1
  Basis Set: 6-31G*
  Basis Set:
  Basis Set: 6-31G*
  Basis Set:
  @DF-RHF Final Energy:  -321.72615581068419
    Total Energy =                       -321.7261558106840766
  Basis Set: 6-31G*
  Basis Set:
  Basis Set: 6-31G*
  Basis Set:
  @DF-RHF Final Energy:  -321.72244678511231
    Total Energy =                       -321.7224467851121972
  Basis Set: 6-31G*
  Basis Set:
  Basis Set: 6-31G*
  Basis Set:
  @DF-RHF Final Energy:  -321.73005275953773
    Total Energy =                       -321.7300527595377844
  Basis Set: 6-31G*
  Basis Set:
  @DF-RHF Final Energy:  -321.72986409982036
    Total Energy =                       -321.7298640998204746
  @DF-RHF Final Energy:  -321.73028957373515
    Total Energy =                       -321.7302895737350923
  @DF-RHF Final Energy:  -321.73032167673637
    Total Energy =                       -321.7303216767365939
  @DF-RHF Final Energy:  -321.73035060980692
    Total Energy =                       -321.7303506098069192
  Basis Set: 6-31G*
  Basis Set:
  @DF-RHF Final Energy:  -321.73036408942971
    Total Energy =                       -321.7303640894297132
  Basis Set: 6-31G*
  Basis Set:
  Basis Set: 6-31G*
  Basis Set:
  @DF-RHF Final Energy:  -321.73036481791991
    Total Energy =                       -321.7303648179197921
  Basis Set: 6-31G*
  Basis Set:
  Basis Set: 6-31G*
  Basis Set:
  @DF-RHF Final Energy:  -321.73036655207545
    Total Energy =                       -321.7303665520753952
  Basis Set: 6-31G*
  Basis Set:
  Charge       = 0
  Multiplicity = 1
  Basis Set: 6-31G*
  Basis Set:

    Orbital Energies (a.u.)
    -----------------------

    Doubly Occupied:

       1A    -20.603802     2A    -20.598509     3A    -15.847822
       4A    -11.299954     5A    -11.254624     6A    -11.235295
       7A     -1.631239     8A     -1.416664     9A     -1.130980
      10A     -1.026652    11A     -0.884695    12A     -0.830675
      13A     -0.760721    14A     -0.734889    15A     -0.723027
      16A     -0.661841    17A     -0.611445    18A     -0.586569
      19A     -0.543543    20A     -0.518981    21A     -0.511579
      22A     -0.483222    23A     -0.473970    24A     -0.448455

  @DF-RHF Final Energy:  -321.73036660590060

   => Energetics <=

    Nuclear Repulsion Energy =            247.9054947304769030
    One-Electron Energy =                -929.6334132108582935
    Two-Electron Energy =                 359.9975518744808483
    DFT Exchange-Correlation Energy =       0.0000000000000000
    Empirical Dispersion Energy =           0.0000000000000000
    PCM Polarization Energy =               0.0000000000000000
    EFP Energy =                            0.0000000000000000
    Total Energy =                       -321.7303666059005423
    Molecular point group: c1
  Basis Set: 6-31G*
  Basis Set:

  -Total Gradient:
     Atom            X                  Y                   Z
    ------   -----------------  -----------------  -----------------
       1       -0.000000853492     0.000000602686     0.000000261924
       2        0.000002993677     0.000002534036     0.000003955112
       3       -0.001313185352     0.000168434346    -0.001206445340
       4        0.000000520973     0.000000858020    -0.000002088533
       5        0.000000291465    -0.000001804987    -0.000000680157
       6        0.000240093666    -0.001424383706    -0.000257778082
       7        0.001074747297     0.000178032516     0.001088480197
       8       -0.000001542702    -0.000002266165     0.000002379877
       9       -0.000011330432     0.001024523989     0.000383672395
      10        0.000004792145    -0.000002417304     0.000000626690
      11       -0.000002904774    -0.000000511259    -0.000000294039
      12        0.000012272318     0.000021548462    -0.000001280889
      13       -0.000005894780     0.000034849369    -0.000010809156

  **** Optimization is complete! (in 12 steps) ****
    Final optimized geometry and variables:
    Molecular point group: c1

    Geometry (in Angstrom), charge = 0, multiplicity = 1:

    H            3.194609736553     1.171500346514    -0.759401054017
    C            2.462501549886     0.957447568734     0.011248266557
    C            1.414624107347    -0.029378529166    -0.503889907995
    H            2.994102012644     0.559296961035     0.870697296430
    H            1.999413683617     1.893880976438     0.304209306014
    C            0.381883016686    -0.400450077806     0.575173050554
    H            1.906517151480    -0.935014158475    -0.840159092783
    H            0.905381711704     0.400097262795    -1.355930880505
    N           -1.014027099824    -0.228930849356     0.086386976495
    H            0.454100254086    -1.422342614064     0.905678639732
    H            0.444076903847     0.262305054757     1.426974281564
    O           -1.736565733118    -1.174932871576     0.128846585362
    O           -1.320650512815     0.857924871465    -0.301179395508

  Mulliken Charges: (a.u.)
   Center  Symbol    Alpha    Beta     Spin     Total
       1     H     0.41040  0.41040  0.00000  0.17921
       2     C     3.24797  3.24797  0.00000 -0.49595
       3     C     3.17348  3.17348  0.00000 -0.34697
       4     H     0.41797  0.41797  0.00000  0.16407
       5     H     0.40970  0.40970  0.00000  0.18060
       6     C     3.09006  3.09006  0.00000 -0.18012
       7     H     0.40700  0.40700  0.00000  0.18600
       8     H     0.39065  0.39065  0.00000  0.21871
       9     N     3.22485  3.22485  0.00000  0.55030
      10     H     0.38344  0.38344  0.00000  0.23312
      11     H     0.38620  0.38620  0.00000  0.22761
      12     O     4.22645  4.22645  0.00000 -0.45289
      13     O     4.23184  4.23184  0.00000 -0.46367

   Total alpha = 24.00000, Total beta = 24.00000, Total charge =  0.00000
