  ==> Input File <==

--------------------------------------------------------------------------
set {
	reference rhf
	basis 6-31G*
}

set_num_threads( 4 )
memory 2 gb

molecule MOL {
0 1

H	 -1.280471	 0.862152	 0.874220
C	 -0.790252	 0.431209	 0.000000
N	 0.538815	 0.649616	 0.000000
O	 -1.401205	 -0.160675	 -0.840011
C	 1.521968	 -0.411503	 0.000000
H	 0.852804	 1.592852	 0.000000
H	 2.150599	 -0.357004	 -0.881901
H	 0.999455	 -1.354525	 0.000000
H	 2.150599	 -0.357004	 0.881901

	symmetry c1
}
set optking {
	frozen_dihedral = ("
		1 2 3 6
	")
}

ee = optimize('scf')
oeprop('DIPOLE', 'QUADRUPOLE', 'MULLIKEN_CHARGES')
f=open( 'psi4out.xyz', 'w' )
f.write( "9  " )
f.write( str(ee) + "\n" )
f.write( MOL.save_string_xyz() )
f.close()
--------------------------------------------------------------------------

    Molecular point group: c1
  Charge       = 0
  Multiplicity = 1
  Basis Set: 6-31G*
  Basis Set:
  @DF-RHF Final Energy:  -207.92884679280399
    Total Energy =                       -207.9288467928039665
    Molecular point group: c1
  Basis Set: 6-31G*
  Basis Set:
  Basis Set: 6-31G*
  Basis Set:
  @DF-RHF Final Energy:  -207.93623097331152
    Total Energy =                       -207.9362309733115239
  Basis Set: 6-31G*
  Basis Set:
  Basis Set: 6-31G*
  Basis Set:
  @DF-RHF Final Energy:  -207.94463402708578
    Total Energy =                       -207.9446340270857263
  Basis Set: 6-31G*
  Basis Set:
  Basis Set: 6-31G*
  Basis Set:
  @DF-RHF Final Energy:  -207.94912799176927
    Total Energy =                       -207.9491279917692736
  Basis Set: 6-31G*
  Basis Set:
  @DF-RHF Final Energy:  -207.95043184579725
    Total Energy =                       -207.9504318457973113
  @DF-RHF Final Energy:  -207.95065373162947
    Total Energy =                       -207.9506537316295294
  @DF-RHF Final Energy:  -207.95077925651276
    Total Energy =                       -207.9507792565126465
  @DF-RHF Final Energy:  -207.95088437290337
    Total Energy =                       -207.9508843729034027
  @DF-RHF Final Energy:  -207.95097858023402
    Total Energy =                       -207.9509785802339366
  @DF-RHF Final Energy:  -207.95073301597967
    Total Energy =                       -207.9507330159797220
  @DF-RHF Final Energy:  -207.95109003210132
    Total Energy =                       -207.9510900321013196
  @DF-RHF Final Energy:  -207.95119127291107
    Total Energy =                       -207.9511912729110463
  @DF-RHF Final Energy:  -207.95121425604506
    Total Energy =                       -207.9512142560451480
  @DF-RHF Final Energy:  -207.95127825415841
    Total Energy =                       -207.9512782541584670
  @DF-RHF Final Energy:  -207.95127194231540
    Total Energy =                       -207.9512719423154579
  @DF-RHF Final Energy:  -207.95140565125334
    Total Energy =                       -207.9514056512534239
  @DF-RHF Final Energy:  -207.95146800940972
    Total Energy =                       -207.9514680094097230
  @DF-RHF Final Energy:  -207.95151444755368
    Total Energy =                       -207.9515144475537625
  @DF-RHF Final Energy:  -207.95157644783109
    Total Energy =                       -207.9515764478311155
  @DF-RHF Final Energy:  -207.95138302934180
    Total Energy =                       -207.9513830293418550
  @DF-RHF Final Energy:  -207.86891995692420
    Total Energy =                       -207.8689199569242021
  @DF-RHF Final Energy:  -207.86776277596624
    Total Energy =                       -207.8677627759662130
  @DF-RHF Final Energy:  -207.93070623643695
    Total Energy =                       -207.9307062364369472
  @DF-RHF Final Energy:  -207.94947367828564
    Total Energy =                       -207.9494736782856990
  @DF-RHF Final Energy:  -207.95136503735881
    Total Energy =                       -207.9513650373587836
  @DF-RHF Final Energy:  -207.95172718489388
    Total Energy =                       -207.9517271848938833
  @DF-RHF Final Energy:  -207.95177229756143
    Total Energy =                       -207.9517722975614902
  @DF-RHF Final Energy:  -207.95179677318384
    Total Energy =                       -207.9517967731838723
  @DF-RHF Final Energy:  -207.95180636762345
    Total Energy =                       -207.9518063676235329
  @DF-RHF Final Energy:  -207.95088246732621
    Total Energy =                       -207.9508824673261529
  @DF-RHF Final Energy:  -207.95181473679287
    Total Energy =                       -207.9518147367928123
  @DF-RHF Final Energy:  -207.95181587205587
    Total Energy =                       -207.9518158720558461
  @DF-RHF Final Energy:  -207.94384585944962
    Total Energy =                       -207.9438458594495387
  @DF-RHF Final Energy:  -207.95169140068958
    Total Energy =                       -207.9516914006895547
  @DF-RHF Final Energy:  -207.95181790197023
    Total Energy =                       -207.9518179019701165
  @DF-RHF Final Energy:  -207.95181329530149
    Total Energy =                       -207.9518132953015197
  Basis Set: 6-31G*
  Basis Set:
  @DF-RHF Final Energy:  -207.94866457488396
    Total Energy =                       -207.9486645748839067
  Basis Set: 6-31G*
  Basis Set:
  Basis Set: 6-31G*
  Basis Set:
  @DF-RHF Final Energy:  -207.95181260533036
    Total Energy =                       -207.9518126053302467
  Basis Set: 6-31G*
  Basis Set:
  Basis Set: 6-31G*
  Basis Set:
  @DF-RHF Final Energy:  -207.95182220742510
    Total Energy =                       -207.9518222074250389
  Basis Set: 6-31G*
  Basis Set:
  Charge       = 0
  Multiplicity = 1
  Basis Set: 6-31G*
  Basis Set:

    Orbital Energies (a.u.)
    -----------------------

    Doubly Occupied:

       1A    -20.549387     2A    -15.585751     3A    -11.349461
       4A    -11.254020     5A     -1.407082     6A     -1.231889
       7A     -0.955515     8A     -0.806391     9A     -0.734781
      10A     -0.647819    11A     -0.642852    12A     -0.574389
      13A     -0.549004    14A     -0.532597    15A     -0.437956
      16A     -0.408106

  @DF-RHF Final Energy:  -207.95181320038117

   => Energetics <=

    Nuclear Repulsion Energy =            122.8328221136364107
    One-Electron Energy =                -526.2352721446939086
    Two-Electron Energy =                 195.4506368306762454
    DFT Exchange-Correlation Energy =       0.0000000000000000
    Empirical Dispersion Energy =           0.0000000000000000
    PCM Polarization Energy =               0.0000000000000000
    EFP Energy =                            0.0000000000000000
    Total Energy =                       -207.9518132003812241
    Molecular point group: c1
  Basis Set: 6-31G*
  Basis Set:

  -Total Gradient:
     Atom            X                  Y                   Z
    ------   -----------------  -----------------  -----------------
       1       -0.002030503460    -0.008371981477     0.006946252235
       2        0.004748029376     0.011224387929    -0.012510033885
       3       -0.007485594481    -0.000483978551     0.018151489207
       4       -0.000209177197    -0.000888883523    -0.000215694211
       5       -0.001706229070     0.000830428584    -0.001496253013
       6        0.005075663147    -0.001480174758    -0.011269594762
       7        0.000239656041    -0.000771698482     0.000421824166
       8        0.000588763913     0.000075208810    -0.000440351330
       9        0.000779391737    -0.000133308532     0.000412361593

    Molecular point group: c1

    Geometry (in Angstrom), charge = 0, multiplicity = 1:

    H           -1.511189170031     1.088794251591     0.538810956847
    C           -0.799890440261     0.416894024727     0.058864050622
    N            0.466784037673     0.501417706701     0.600849983010
    O           -1.152788254946    -0.403787480156    -0.727082698652
    C            1.426283958344    -0.486795405434     0.117928005441
    H            0.842838311592     1.426131506256     0.514534573953
    H            1.605229881645    -0.419474824433    -0.949946288895
    H            1.055568766259    -1.477072957828     0.334500012388
    H            2.359117146869    -0.344547126966     0.647977957385

  Mulliken Charges: (a.u.)
   Center  Symbol    Alpha    Beta     Spin     Total
       1     H     0.41794  0.41794  0.00000  0.16412
       2     C     2.76585  2.76585  0.00000  0.46831
       3     N     3.86047  3.86047  0.00000 -0.72094
       4     O     4.25937  4.25937  0.00000 -0.51875
       5     C     3.15223  3.15223  0.00000 -0.30446
       6     H     0.31656  0.31656  0.00000  0.36689
       7     H     0.41336  0.41336  0.00000  0.17329
       8     H     0.40008  0.40008  0.00000  0.19983
       9     H     0.41415  0.41415  0.00000  0.17171

   Total alpha = 16.00000, Total beta = 16.00000, Total charge =  0.00000
