                              Psi4 1.0.54 Driver

  ==> Input File <==

--------------------------------------------------------------------------
set {
	reference rhf
	basis cc-pvtz
}

set_num_threads( 4 )
memory 2 gb

molecule MOL {
0 1

H	 -2.988748	 -0.764690	 -0.884330
O	 -2.658848	 -0.704215	 -0.000460
C	 -1.605397	 0.107680	 0.001145
C	 -0.310616	 -0.658853	 0.000791
O	 -1.718351	 1.284629	 -0.000627
C	 0.926581	 0.227233	 0.000178
H	 -0.327628	 -1.313681	 -0.864448
H	 -0.327041	 -1.313334	 0.866298
C	 2.220156	 -0.582071	 -0.000088
H	 0.899945	 0.878221	 -0.866390
H	 0.900542	 0.878581	 0.866486
C	 3.466689	 0.296012	 -0.000457
H	 2.239073	 -1.234095	 -0.869382
H	 2.239505	 -1.233985	 0.869270
H	 3.493549	 0.935857	 -0.875887
H	 4.368821	 -0.304526	 -0.001199
H	 3.494559	 0.935166	 0.875458

	symmetry c1
}
set optking {
	frozen_dihedral = ("
		1 2 3 5
	")
}

ee,wfn = optimize('scf', return_wfn=True)
oeprop( wfn, 'DIPOLE', 'QUADRUPOLE', 'MULLIKEN_CHARGES')
f=open( 'psi4out.xyz', 'w' )
f.write( "17  " )
f.write( str(ee) + "\n" )
f.write( MOL.save_string_xyz() )
f.close()
--------------------------------------------------------------------------

    Molecular point group: c1
  Charge       = 0
  Multiplicity = 1
  Basis Set: CC-PVTZ
  Basis Set:
  @DF-RHF Final Energy:  -345.02865552790433
    Total Energy =                       -345.0286555279043910
    Molecular point group: c1
  Basis Set: CC-PVTZ
  Basis Set:
  Basis Set: CC-PVTZ
  Basis Set:
  @DF-RHF Final Energy:  -345.02692365745077
    Total Energy =                       -345.0269236574507659
  Basis Set: CC-PVTZ
  Basis Set:
  Basis Set: CC-PVTZ
  Basis Set:
  @DF-RHF Final Energy:  -345.03015355863738
    Total Energy =                       -345.0301535586374939
  Basis Set: CC-PVTZ
  Basis Set:
  Basis Set: CC-PVTZ
  Basis Set:
  @DF-RHF Final Energy:  -345.03018486218934
    Total Energy =                       -345.0301848621895147
  Basis Set: CC-PVTZ
  Basis Set:
  Basis Set: CC-PVTZ
  Basis Set:
  @DF-RHF Final Energy:  -345.03033387463012
    Total Energy =                       -345.0303338746300028
  Basis Set: CC-PVTZ
  Basis Set:
  Basis Set: CC-PVTZ
  Basis Set:
  @DF-RHF Final Energy:  -345.03033697710271
    Total Energy =                       -345.0303369771025928
  Basis Set: CC-PVTZ
  Basis Set:
  Charge       = 0
  Multiplicity = 1
  Basis Set: CC-PVTZ
  Basis Set:

    Orbital Energies (a.u.)
    -----------------------

    Doubly Occupied:

       1A    -20.586451     2A    -20.550484     3A    -11.374320
       4A    -11.240716     5A    -11.222481     6A    -11.221857
       7A    -11.211716     8A     -1.463770     9A     -1.370219
      10A     -1.093265    11A     -1.018610    12A     -0.910629
      13A     -0.824294    14A     -0.794888    15A     -0.710227
      16A     -0.677862    17A     -0.666705    18A     -0.640816
      19A     -0.593880    20A     -0.587281    21A     -0.542489
      22A     -0.531799    23A     -0.519271    24A     -0.500922
      25A     -0.481645    26A     -0.474660    27A     -0.474295
      28A     -0.445753

  @DF-RHF Final Energy:  -345.03033707050793

   => Energetics <=

    Nuclear Repulsion Energy =            303.9754864493648938
    One-Electron Energy =               -1072.5490444373212995
    Two-Electron Energy =                 423.5432209174487070
    DFT Exchange-Correlation Energy =       0.0000000000000000
    Empirical Dispersion Energy =           0.0000000000000000
    PCM Polarization Energy =               0.0000000000000000
    EFP Energy =                            0.0000000000000000
    Total Energy =                       -345.0303370705076986
    Molecular point group: c1
  Basis Set: CC-PVTZ
  Basis Set:

  -Total Gradient:
     Atom            X                  Y                   Z
    ------   -----------------  -----------------  -----------------
       1        0.003171188548    -0.004279280651    -0.001179027454
       2       -0.003781201749     0.005374894994     0.003663653164
       3        0.000212033322    -0.001078877841    -0.007271451225
       4        0.000009208001     0.000015636232    -0.000022655025
       5        0.000409032132    -0.000023905095     0.004783627232
       6        0.000001944009     0.000003663184     0.000017825399
       7        0.000002702255    -0.000006370517     0.000007660114
       8       -0.000000834246     0.000001403072     0.000009868850
       9       -0.000003084808    -0.000011601124    -0.000003232051
      10       -0.000001479366     0.000000782239    -0.000004934378
      11       -0.000004223316    -0.000000349542     0.000000471505
      12       -0.000010190375     0.000006584529    -0.000001689211
      13        0.000000803210    -0.000001902757    -0.000000260495
      14       -0.000001312766     0.000000353831     0.000001277467
      15        0.000001754610     0.000001740138    -0.000001082179
      16       -0.000006691952    -0.000002922908    -0.000000520242
      17        0.000000352482     0.000000152216     0.000000468528

  **** Optimization is complete! (in 7 steps) ****
    Final optimized geometry and variables:
    Molecular point group: c1

    Geometry (in Angstrom), charge = 0, multiplicity = 1:

    H           -3.129837973203    -0.795441095875    -0.745431889294
    O           -2.690218795496    -0.710014886049     0.084289417862
    C           -1.608844159349     0.109653408141     0.000073533174
    C           -0.307122131345    -0.645569435571    -0.009818871152
    O           -1.717593332684     1.278920594896     0.014599586014
    C            0.930031135714     0.239713712503    -0.012449843288
    H           -0.323699497371    -1.302981230377    -0.875046791643
    H           -0.323209507479    -1.304217898783     0.852875593335
    C            2.224680619394    -0.567972788859    -0.016780633075
    H            0.901703674731     0.893015139828    -0.877591765132
    H            0.904680989791     0.889186629049     0.855311978521
    C            3.470281429657     0.311367236431    -0.018704020411
    H            2.242610196895    -1.218957742149    -0.887011020693
    H            2.246445135165    -1.220862501045     0.851686772050
    H            3.494936116369     0.952121977316    -0.893569971507
    H            4.372996213405    -0.288260254977    -0.021636204340
    H            3.498975301754     0.949639104510     0.857756956099

  Mulliken Charges: (a.u.)
   Center  Symbol    Alpha    Beta     Spin     Total
       1     H     0.38659  0.38659  0.00000  0.22682
       2     O     4.17682  4.17682  0.00000 -0.35364
       3     C     2.80014  2.80014  0.00000  0.39972
       4     C     3.11409  3.11409  0.00000 -0.22818
       5     O     4.16333  4.16333  0.00000 -0.32666
       6     C     3.08382  3.08382  0.00000 -0.16764
       7     H     0.44674  0.44674  0.00000  0.10652
       8     H     0.43656  0.43656  0.00000  0.12689
       9     C     3.08605  3.08605  0.00000 -0.17211
      10     H     0.44715  0.44715  0.00000  0.10569
      11     H     0.44491  0.44491  0.00000  0.11019
      12     C     3.14911  3.14911  0.00000 -0.29823
      13     H     0.45543  0.45543  0.00000  0.08914
      14     H     0.45425  0.45425  0.00000  0.09150
      15     H     0.45389  0.45389  0.00000  0.09222
      16     H     0.44789  0.44789  0.00000  0.10422
      17     H     0.45323  0.45323  0.00000  0.09355

   Total alpha = 28.00000, Total beta = 28.00000, Total charge =  0.00000

*** Psi4 exiting successfully. Buy a developer a beer!
