  ==> Input File <==

--------------------------------------------------------------------------
set {
	reference rhf
	basis cc-pvtz
}

set_num_threads( 4 )
memory 2 gb

molecule MOL {
0 1

H	 -1.088256	 -1.364742	 0.152233
O	 -1.432053	 -0.565244	 -0.200812
C	 -0.727158	 0.534527	 0.310686
C	 0.680222	 0.664433	 -0.252229
H	 -1.306802	 1.408001	 0.044211
H	 -0.690821	 0.490158	 1.397609
C	 1.710092	 -0.217387	 0.447633
H	 0.653140	 0.427089	 -1.310608
H	 0.979712	 1.705558	 -0.168478
H	 1.476164	 -1.270196	 0.333629
H	 2.698906	 -0.063345	 0.032819
H	 1.760511	 0.003418	 1.509546

	symmetry c1
}
set optking {
	frozen_dihedral = ("
		8 4 3 2
	")
}

ee = optimize('scf')
oeprop('DIPOLE', 'QUADRUPOLE', 'MULLIKEN_CHARGES')
f=open( 'psi4out.xyz', 'w' )
f.write( "12  " )
f.write( str(ee) + "\n" )
f.write( MOL.save_string_xyz() )
f.close()
--------------------------------------------------------------------------

    Molecular point group: c1
  Charge       = 0
  Multiplicity = 1
  Basis Set: CC-PVTZ
  Basis Set:
  @DF-RHF Final Energy:  -193.18914789838726
    Total Energy =                       -193.1891478983872901
    Molecular point group: c1
  Basis Set: CC-PVTZ
  Basis Set:
  Basis Set: CC-PVTZ
  Basis Set:
  @DF-RHF Final Energy:  -193.18932882615573
    Total Energy =                       -193.1893288261558723
  Basis Set: CC-PVTZ
  Basis Set:
  Basis Set: CC-PVTZ
  Basis Set:
  @DF-RHF Final Energy:  -193.18936030603891
    Total Energy =                       -193.1893603060391342
  Basis Set: CC-PVTZ
  Basis Set:
  Charge       = 0
  Multiplicity = 1
  Basis Set: CC-PVTZ
  Basis Set:

    Orbital Energies (a.u.)
    -----------------------

    Doubly Occupied:

       1A    -20.546432     2A    -11.265768     3A    -11.216634
       4A    -11.215036     5A     -1.364018     6A     -1.051883
       7A     -0.926233     8A     -0.812429     9A     -0.698274
      10A     -0.639961    11A     -0.595676    12A     -0.589354
      13A     -0.547947    14A     -0.510385    15A     -0.490726
      16A     -0.468880    17A     -0.433430

  @DF-RHF Final Energy:  -193.18936082520509

   => Energetics <=

    Nuclear Repulsion Energy =            132.6810102115139216
    One-Electron Energy =                -524.9946055350432061
    Two-Electron Energy =                 199.1242344983243129
    DFT Exchange-Correlation Energy =       0.0000000000000000
    Empirical Dispersion Energy =           0.0000000000000000
    PCM Polarization Energy =               0.0000000000000000
    EFP Energy =                            0.0000000000000000
    Total Energy =                       -193.1893608252049717
    Molecular point group: c1
  Basis Set: CC-PVTZ
  Basis Set:

  -Total Gradient:
     Atom            X                  Y                   Z
    ------   -----------------  -----------------  -----------------
       1       -0.000007123075     0.000037770506     0.000013497151
       2       -0.001067352784     0.001731097807    -0.002293051641
       3        0.001625156153    -0.003167515246     0.003303358908
       4       -0.001220502570     0.005058289159    -0.001853581572
       5       -0.000013264646    -0.000020472367    -0.000002678210
       6       -0.000011733220     0.000001245584    -0.000003600877
       7       -0.000008051410     0.000025837411    -0.000002007002
       8        0.000697808365    -0.003643133932     0.000819773717
       9       -0.000000717192    -0.000011261280    -0.000001667921
      10       -0.000004847770    -0.000000953910    -0.000000980004
      11       -0.000007035997     0.000001638611     0.000005052416
      12        0.000017664149    -0.000012542343     0.000015885035

  **** Optimization is complete! (in 4 steps) ****
    Final optimized geometry and variables:
    Molecular point group: c1

    Geometry (in Angstrom), charge = 0, multiplicity = 1:

    H           -1.072291986256    -1.440646968194     0.059055144832
    O           -1.439866625285    -0.646837908017    -0.283553866593
    C           -0.760471109698     0.468319293594     0.230830268806
    C            0.651287056842     0.616801963704    -0.324457172385
    H           -1.356483082075     1.323284146303    -0.058617609925
    H           -0.741904648925     0.441605847712     1.318162064025
    C            1.673366428566    -0.288358332025     0.361045548421
    H            0.619644290729     0.370849173014    -1.380152048355
    H            0.964000843096     1.651572758278    -0.230219663016
    H            1.401637003642    -1.335647282160     0.270704942222
    H            2.656063107222    -0.174311940889    -0.080849779401
    H            1.756611123674    -0.057838387879     1.418014591458

  Mulliken Charges: (a.u.)
   Center  Symbol    Alpha    Beta     Spin     Total
       1     H     0.39378  0.39378  0.00000  0.21244
       2     O     4.20388  4.20388  0.00000 -0.40777
       3     C     2.97227  2.97227  0.00000  0.05545
       4     C     3.08968  3.08968  0.00000 -0.17936
       5     H     0.45054  0.45054  0.00000  0.09891
       6     H     0.47238  0.47238  0.00000  0.05525
       7     C     3.15169  3.15169  0.00000 -0.30338
       8     H     0.44945  0.44945  0.00000  0.10109
       9     H     0.45507  0.45507  0.00000  0.08986
      10     H     0.46136  0.46136  0.00000  0.07728
      11     H     0.44556  0.44556  0.00000  0.10888
      12     H     0.45433  0.45433  0.00000  0.09134

   Total alpha = 17.00000, Total beta = 17.00000, Total charge = -0.00000
