                              Psi4 1.0.54 Driver

  ==> Input File <==

--------------------------------------------------------------------------
set {
	reference rhf
	basis cc-pvtz
}

set_num_threads( 4 )
memory 2 gb

molecule MOL {
0 1

H	 3.722191	 -0.933094	 -0.066052
O	 2.824555	 -1.154317	 0.131448
C	 2.076742	 -0.067388	 -0.038238
C	 0.626302	 -0.337600	 0.258228
O	 2.538572	 0.965401	 -0.381606
C	 -0.267042	 0.883117	 0.076477
H	 0.325904	 -1.161501	 -0.378016
H	 0.574821	 -0.713703	 1.275248
C	 -1.726538	 0.642604	 0.463826
H	 -0.210519	 1.217573	 -0.953510
H	 0.130204	 1.693092	 0.675666
C	 -2.480607	 -0.340624	 -0.429865
H	 -2.242814	 1.597631	 0.438596
H	 -1.776258	 0.301190	 1.495529
C	 -3.955649	 -0.460146	 -0.060485
H	 -2.393471	 -0.020503	 -1.464739
H	 -2.023960	 -1.323655	 -0.374373
H	 -4.467389	 -1.160962	 -0.709840
H	 -4.458633	 0.497269	 -0.144518
H	 -4.076174	 -0.806918	 0.960484

	symmetry c1
}
ee,wfn = energy('scf', return_wfn=True)
oeprop( wfn, 'DIPOLE', 'QUADRUPOLE', 'MULLIKEN_CHARGES')
oeprop( wfn, 'GRID_ESP')
f=open( 'psi4out.xyz', 'w' )
f.write( "20  " )
f.write( str(ee) + "\n" )
f.write( MOL.save_string_xyz() )
f.close()
--------------------------------------------------------------------------

    Molecular point group: c1

    Geometry (in Angstrom), charge = 0, multiplicity = 1:

       Center              X                  Y                   Z               Mass
    ------------   -----------------  -----------------  -----------------  -----------------
           H          3.721907205275    -0.933076025150    -0.066038552290     1.007825032070
           O          2.824271205275    -1.154299025150     0.131461447710    15.994914619560
           C          2.076458205275    -0.067370025150    -0.038224552290    12.000000000000
           C          0.626018205275    -0.337582025150     0.258241447710    12.000000000000
           O          2.538288205275     0.965418974850    -0.381592552290    15.994914619560
           C         -0.267325794725     0.883134974850     0.076490447710    12.000000000000
           H          0.325620205275    -1.161483025150    -0.378002552290     1.007825032070
           H          0.574537205275    -0.713685025150     1.275261447710     1.007825032070
           C         -1.726821794725     0.642621974850     0.463839447710    12.000000000000
           H         -0.210802794725     1.217590974850    -0.953496552290     1.007825032070
           H          0.129920205275     1.693109974850     0.675679447710     1.007825032070
           C         -2.480890794725    -0.340606025150    -0.429851552290    12.000000000000
           H         -2.243097794725     1.597648974850     0.438609447710     1.007825032070
           H         -1.776541794725     0.301207974850     1.495542447710     1.007825032070
           C         -3.955932794725    -0.460128025150    -0.060471552290    12.000000000000
           H         -2.393754794725    -0.020485025150    -1.464725552290     1.007825032070
           H         -2.024243794725    -1.323637025150    -0.374359552290     1.007825032070
           H         -4.467672794725    -1.160944025150    -0.709826552290     1.007825032070
           H         -4.458916794725     0.497286974850    -0.144504552290     1.007825032070
           H         -4.076457794725    -0.806900025150     0.960497447710     1.007825032070

  Charge       = 0
  Multiplicity = 1
  Basis Set: CC-PVTZ
  Basis Set:

    Orbital Energies (a.u.)
    -----------------------

    Doubly Occupied:

       1A    -20.603825     2A    -20.540425     3A    -11.373362
       4A    -11.238663     5A    -11.221041     6A    -11.218782
       7A    -11.218171     8A    -11.210532     9A     -1.477459
      10A     -1.368924    11A     -1.097594    12A     -1.042286
      13A     -0.962553    14A     -0.870372    15A     -0.817796
      16A     -0.778058    17A     -0.703653    18A     -0.692981
      19A     -0.666703    20A     -0.637341    21A     -0.605079
      22A     -0.596474    23A     -0.576938    24A     -0.556946
      25A     -0.541233    26A     -0.513692    27A     -0.496050
      28A     -0.484491    29A     -0.471635    30A     -0.468316
      31A     -0.458273    32A     -0.446433

  @DF-RHF Final Energy:  -384.09502558744873

   => Energetics <=

    Nuclear Repulsion Energy =            376.5910196110615971
    One-Electron Energy =               -1269.4596267324172914
    Two-Electron Energy =                 508.7735815339065084
    DFT Exchange-Correlation Energy =       0.0000000000000000
    Empirical Dispersion Energy =           0.0000000000000000
    PCM Polarization Energy =               0.0000000000000000
    EFP Energy =                            0.0000000000000000
    Total Energy =                       -384.0950255874491859

  Mulliken Charges: (a.u.)
   Center  Symbol    Alpha    Beta     Spin     Total
       1     H     0.38236  0.38236  0.00000  0.23529
       2     O     4.16027  4.16027  0.00000 -0.32055
       3     C     2.80348  2.80348  0.00000  0.39304
       4     C     3.11193  3.11193  0.00000 -0.22387
       5     O     4.19127  4.19127  0.00000 -0.38255
       6     C     3.09279  3.09279  0.00000 -0.18559
       7     H     0.43712  0.43712  0.00000  0.12576
       8     H     0.43779  0.43779  0.00000  0.12443
       9     C     3.09926  3.09926  0.00000 -0.19851
      10     H     0.44560  0.44560  0.00000  0.10880
      11     H     0.43931  0.43931  0.00000  0.12139
      12     C     3.08691  3.08691  0.00000 -0.17382
      13     H     0.44550  0.44550  0.00000  0.10900
      14     H     0.45397  0.45397  0.00000  0.09205
      15     C     3.14954  3.14954  0.00000 -0.29909
      16     H     0.45251  0.45251  0.00000  0.09497
      17     H     0.45422  0.45422  0.00000  0.09156
      18     H     0.44772  0.44772  0.00000  0.10456
      19     H     0.45362  0.45362  0.00000  0.09275
      20     H     0.45481  0.45481  0.00000  0.09039

   Total alpha = 32.00000, Total beta = 32.00000, Total charge = -0.00000

*** Psi4 exiting successfully. Buy a developer a beer!
