  ==> Input File <==

--------------------------------------------------------------------------
set {
	reference rhf
	basis 6-31G*
}

set_num_threads( 4 )
memory 2 gb

molecule MOL {
0 1

H	 2.591676	 2.013956	 0.335017
O	 3.341076	 1.666752	 -0.126416
C	 3.569581	 0.339145	 0.272707
C	 2.539767	 -0.640285	 -0.279495
H	 4.553106	 0.084646	 -0.100901
H	 3.608576	 0.269204	 1.359154
C	 1.115811	 -0.397273	 0.226630
H	 2.556196	 -0.582511	 -1.364741
H	 2.852081	 -1.648031	 -0.010655
C	 0.115918	 -1.429151	 -0.302766
H	 0.797950	 0.599468	 -0.066350
H	 1.109961	 -0.420744	 1.316472
C	 0.536300	 -2.125310	 -1.602375
H	 -0.064766	 -2.179239	 0.465068
H	 -0.837399	 -0.932601	 -0.471065
C	 1.764100	 -3.031931	 -1.479807
H	 -0.301469	 -2.722349	 -1.956641
H	 0.717499	 -1.374425	 -2.369952
C	 2.080731	 -3.784817	 -2.773772
H	 1.601085	 -3.750594	 -0.677897
H	 2.634260	 -2.446746	 -1.192261
C	 3.309682	 -4.685643	 -2.656067
H	 1.219969	 -4.384982	 -3.060792
H	 2.234353	 -3.068631	 -3.578361
H	 3.174041	 -5.434524	 -1.880824
H	 3.506718	 -5.206619	 -3.587945
H	 4.196131	 -4.109479	 -2.405852

	symmetry c1
}
set optking {
	frozen_dihedral = ("
		14 10 7 4
	")
}

ee = optimize('scf')
oeprop('DIPOLE', 'QUADRUPOLE', 'MULLIKEN_CHARGES')
f=open( 'psi4out.xyz', 'w' )
f.write( "27  " )
f.write( str(ee) + "\n" )
f.write( MOL.save_string_xyz() )
f.close()
--------------------------------------------------------------------------

    Molecular point group: c1
  Charge       = 0
  Multiplicity = 1
  Basis Set: 6-31G*
  Basis Set:
  @DF-RHF Final Energy:  -388.24492123929730
    Total Energy =                       -388.2449212392967866
    Molecular point group: c1
  Basis Set: 6-31G*
  Basis Set:
  Basis Set: 6-31G*
  Basis Set:
  @DF-RHF Final Energy:  -388.26430802870675
    Total Energy =                       -388.2643080287057273
  Basis Set: 6-31G*
  Basis Set:
  Basis Set: 6-31G*
  Basis Set:
  @DF-RHF Final Energy:  -388.26952028207165
    Total Energy =                       -388.2695202820714258
  Basis Set: 6-31G*
  Basis Set:
  Basis Set: 6-31G*
  Basis Set:
  @DF-RHF Final Energy:  -388.27102249383131
    Total Energy =                       -388.2710224938318788
  Basis Set: 6-31G*
  Basis Set:
  @DF-RHF Final Energy:  -388.27139115403668
    Total Energy =                       -388.2713911540366780
  @DF-RHF Final Energy:  -388.27171182976969
    Total Energy =                       -388.2717118297699699
  Basis Set: 6-31G*
  Basis Set:
  @DF-RHF Final Energy:  -388.27173646674868
    Total Energy =                       -388.2717364667494166
  Basis Set: 6-31G*
  Basis Set:
  Basis Set: 6-31G*
  Basis Set:
  @DF-RHF Final Energy:  -388.27174327051574
    Total Energy =                       -388.2717432705153442
  Basis Set: 6-31G*
  Basis Set:
  Basis Set: 6-31G*
  Basis Set:
  @DF-RHF Final Energy:  -388.27174546972219
    Total Energy =                       -388.2717454697216226
  Basis Set: 6-31G*
  Basis Set:
  Charge       = 0
  Multiplicity = 1
  Basis Set: 6-31G*
  Basis Set:

    Orbital Energies (a.u.)
    -----------------------

    Doubly Occupied:

       1A    -20.552570     2A    -11.267370     3A    -11.221115
       4A    -11.217750     5A    -11.215020     6A    -11.214767
       7A    -11.214328     8A    -11.211992     9A    -11.208187
      10A     -1.359327    11A     -1.091594    12A     -1.058392
      13A     -1.009038    14A     -0.951388    15A     -0.886946
      16A     -0.832547    17A     -0.793595    18A     -0.768711
      19A     -0.696192    20A     -0.647997    21A     -0.638097
      22A     -0.612389    23A     -0.603532    24A     -0.586209
      25A     -0.566243    26A     -0.552768    27A     -0.551430
      28A     -0.519810    29A     -0.515039    30A     -0.496714
      31A     -0.481648    32A     -0.473211    33A     -0.466372
      34A     -0.455930    35A     -0.451861    36A     -0.434210
      37A     -0.423316

  @DF-RHF Final Energy:  -388.27174604922169

   => Energetics <=

    Nuclear Repulsion Energy =            468.2810146612610538
    One-Electron Energy =               -1454.6103125291929246
    Two-Electron Energy =                 598.0575518187099533
    DFT Exchange-Correlation Energy =       0.0000000000000000
    Empirical Dispersion Energy =           0.0000000000000000
    PCM Polarization Energy =               0.0000000000000000
    EFP Energy =                            0.0000000000000000
    Total Energy =                       -388.2717460492219743
    Molecular point group: c1
  Basis Set: 6-31G*
  Basis Set:

  -Total Gradient:
     Atom            X                  Y                   Z
    ------   -----------------  -----------------  -----------------
       1       -0.000005349138     0.000001564556    -0.000002682485
       2       -0.000022410540    -0.000004704250     0.000011419953
       3        0.000040541342     0.000006058685    -0.000027268529
       4       -0.001009083355     0.002579833589    -0.003581137707
       5        0.000008473925    -0.000010042647     0.000006236945
       6       -0.000011259326    -0.000003262023    -0.000016367814
       7        0.000316976823    -0.003068798924     0.005731291505
       8        0.000013730818     0.000011411722     0.000017766531
       9       -0.000005604643    -0.000007747694    -0.000009805926
      10        0.005541658880    -0.002293175945    -0.004171198521
      11        0.000004904592     0.000026690289     0.000036699828
      12        0.000016283935    -0.000032061133    -0.000015095068
      13        0.000022574880     0.000021717242    -0.000015169817
      14       -0.004909332446     0.002806350273     0.002054425707
      15        0.000008539861    -0.000010246774    -0.000009758811
      16       -0.000008742537    -0.000015915090    -0.000024141552
      17        0.000010913771    -0.000002476837    -0.000003445183
      18       -0.000012789682    -0.000016537125    -0.000003032928
      19        0.000012420535    -0.000010621786     0.000002801865
      20        0.000007447444     0.000004050567    -0.000003520819
      21       -0.000011802490     0.000018149608     0.000016718657
      22       -0.000004378612    -0.000001045627    -0.000002034013
      23       -0.000002438258    -0.000003463469    -0.000004420589
      24       -0.000000680075    -0.000000981844     0.000013641249
      25       -0.000000721041     0.000005848446    -0.000000041934
      26       -0.000001355261    -0.000001169408    -0.000000970486
      27        0.000001480595     0.000000575586    -0.000000910055

  **** Optimization is complete! (in 10 steps) ****
    Final optimized geometry and variables:
    Molecular point group: c1

    Geometry (in Angstrom), charge = 0, multiplicity = 1:

    H            0.118871929051     3.779105946807     1.290803387455
    O            0.953513843434     3.556956425886     0.905154537809
    C            1.402700335355     2.328393016588     1.417918503529
    C            0.658322912269     1.124844696038     0.846021556845
    H            2.450281408853     2.265101825965     1.152659480065
    H            1.344324859417     2.324656694045     2.505627214770
    C           -0.822513124810     1.096659249580     1.237092688443
    H            0.764886753075     1.144141124325    -0.233149088830
    H            1.159773831471     0.228760159110     1.203902041876
    C           -1.709272748493    -0.042426952552     0.672451948630
    H           -1.257605394999     2.036964716424     0.906215478896
    H           -0.904714251095     1.092832926627     2.321732830382
    C           -1.334277450446    -0.675093075235    -0.676924688708
    H           -1.836872692026    -0.815638516320     1.426806703606
    H           -2.705724521313     0.379069044909     0.564804870646
    C           -0.310975326715    -1.813315406520    -0.612806615738
    H           -2.244965365415    -1.075874639212    -1.116338979901
    H           -0.990811882194     0.093938205693    -1.364963970329
    C           -0.032428719367    -2.438027926415    -1.981667453656
    H           -0.683308985747    -2.582525966566     0.062099327733
    H            0.624516578345    -1.464244089176    -0.187663690344
    C            0.970114950236    -3.589945277020    -1.919912253504
    H           -0.965718240250    -2.795232351931    -2.411979163559
    H            0.340768943971    -1.671579266205    -2.657696724250
    H            0.610360952869    -4.388799123801    -1.277459901977
    H            1.146377687208    -4.011854374815    -2.904577174369
    H            1.926765329186    -3.256877485694    -1.527198458923

  Mulliken Charges: (a.u.)
   Center  Symbol    Alpha    Beta     Spin     Total
       1     H     0.27960  0.27960  0.00000  0.44080
       2     O     4.37104  4.37104  0.00000 -0.74208
       3     C     2.99721  2.99721  0.00000  0.00557
       4     C     3.16447  3.16447  0.00000 -0.32893
       5     H     0.41429  0.41429  0.00000  0.17143
       6     H     0.43204  0.43204  0.00000  0.13593
       7     C     3.16188  3.16188  0.00000 -0.32375
       8     H     0.41322  0.41322  0.00000  0.17356
       9     H     0.42335  0.42335  0.00000  0.15330
      10     C     3.15609  3.15609  0.00000 -0.31218
      11     H     0.42683  0.42683  0.00000  0.14634
      12     H     0.42222  0.42222  0.00000  0.15555
      13     C     3.15798  3.15798  0.00000 -0.31595
      14     H     0.42131  0.42131  0.00000  0.15738
      15     H     0.41972  0.41972  0.00000  0.16057
      16     C     3.15236  3.15236  0.00000 -0.30472
      17     H     0.42099  0.42099  0.00000  0.15803
      18     H     0.41999  0.41999  0.00000  0.16001
      19     C     3.15191  3.15191  0.00000 -0.30383
      20     H     0.42475  0.42475  0.00000  0.15051
      21     H     0.42018  0.42018  0.00000  0.15964
      22     C     3.23915  3.23915  0.00000 -0.47829
      23     H     0.42330  0.42330  0.00000  0.15341
      24     H     0.42274  0.42274  0.00000  0.15452
      25     H     0.42207  0.42207  0.00000  0.15587
      26     H     0.41928  0.41928  0.00000  0.16144
      27     H     0.42205  0.42205  0.00000  0.15590

   Total alpha = 37.00000, Total beta = 37.00000, Total charge =  0.00000
