                              Psi4 1.0.54 Driver

  ==> Input File <==

--------------------------------------------------------------------------
set {
	reference rhf
	basis cc-pvtz
}

set_num_threads( 4 )
memory 2 gb

molecule MOL {
0 1

H	 -0.000105	 1.988529	 0.748933
O	 -0.000098	 1.879786	 -0.188206
C	 -0.000014	 0.545691	 -0.532416
C	 -1.426633	 -0.005693	 -0.509768
C	 0.990286	 -0.225313	 0.342017
H	 0.351541	 0.465639	 -1.550582
F	 -2.164122	 0.665903	 -1.359432
F	 -1.476950	 -1.269982	 -0.845555
F	 -1.971226	 0.124127	 0.681004
F	 2.191867	 0.270071	 0.175720
F	 1.034924	 -1.498235	 0.039710
F	 0.687177	 -0.117422	 1.617893

	symmetry c1
}
set optking {
	frozen_dihedral = ("
		6 3 2 1
	")
}

ee,wfn = optimize('scf', return_wfn=True)
oeprop( wfn, 'DIPOLE', 'QUADRUPOLE', 'MULLIKEN_CHARGES')
f=open( 'psi4out.xyz', 'w' )
f.write( "12  " )
f.write( str(ee) + "\n" )
f.write( MOL.save_string_xyz() )
f.close()
--------------------------------------------------------------------------

    Molecular point group: c1
  Charge       = 0
  Multiplicity = 1
  Basis Set: CC-PVTZ
  Basis Set:
  @DF-RHF Final Energy:  -786.58863733067642
    Total Energy =                       -786.5886373306766473
    Molecular point group: c1
  Basis Set: CC-PVTZ
  Basis Set:
  Basis Set: CC-PVTZ
  Basis Set:
  @DF-RHF Final Energy:  -786.58872341365213
    Total Energy =                       -786.5887234136521329
  Basis Set: CC-PVTZ
  Basis Set:
  Basis Set: CC-PVTZ
  Basis Set:
  @DF-RHF Final Energy:  -786.58875928630914
    Total Energy =                       -786.5887592863093687
  Basis Set: CC-PVTZ
  Basis Set:
  Basis Set: CC-PVTZ
  Basis Set:
  @DF-RHF Final Energy:  -786.58876358261818
    Total Energy =                       -786.5887635826177302
  Basis Set: CC-PVTZ
  Basis Set:
  Charge       = 0
  Multiplicity = 1
  Basis Set: CC-PVTZ
  Basis Set:

    Orbital Energies (a.u.)
    -----------------------

    Doubly Occupied:

       1A    -26.362314     2A    -26.360661     3A    -26.357260
       4A    -26.354735     5A    -26.354195     6A    -26.350819
       7A    -20.609356     8A    -11.523506     9A    -11.516600
      10A    -11.351683    11A     -1.773831    12A     -1.765051
      13A     -1.669880    14A     -1.665725    15A     -1.661246
      16A     -1.659003    17A     -1.439211    18A     -1.103516
      19A     -1.002244    20A     -0.945280    21A     -0.872323
      22A     -0.869128    23A     -0.860526    24A     -0.851457
      25A     -0.839729    26A     -0.820459    27A     -0.750165
      28A     -0.736308    29A     -0.729718    30A     -0.725501
      31A     -0.697106    32A     -0.694212    33A     -0.690701
      34A     -0.680598    35A     -0.676488    36A     -0.670974
      37A     -0.662184    38A     -0.658063    39A     -0.624766
      40A     -0.553391    41A     -0.509836

  @DF-RHF Final Energy:  -786.58876401368082

   => Energetics <=

    Nuclear Repulsion Energy =            670.8813882994498954
    One-Electron Energy =               -2428.9408095501512435
    Two-Electron Energy =                 971.4706572370205322
    DFT Exchange-Correlation Energy =       0.0000000000000000
    Empirical Dispersion Energy =           0.0000000000000000
    PCM Polarization Energy =               0.0000000000000000
    EFP Energy =                            0.0000000000000000
    Total Energy =                       -786.5887640136807022
    Molecular point group: c1
  Basis Set: CC-PVTZ
  Basis Set:

  -Total Gradient:
     Atom            X                  Y                   Z
    ------   -----------------  -----------------  -----------------
       1        0.002475189695    -0.000071962415    -0.000077898276
       2       -0.002584390077     0.000032141238     0.000276011349
       3       -0.001930677639     0.000301233392    -0.000817548160
       4       -0.000027793715     0.000001506320    -0.000043111612
       5        0.000004732579     0.000061320146     0.000010200500
       6        0.002003015932    -0.000271385209     0.000649451093
       7       -0.000031530063     0.000002007994    -0.000049356351
       8        0.000018048902     0.000032564905     0.000017456007
       9        0.000035504220    -0.000016511814     0.000049294360
      10        0.000061372751     0.000013921560     0.000013050912
      11       -0.000011970507    -0.000063825064     0.000012541359
      12       -0.000011502082    -0.000021011054    -0.000040091182

  **** Optimization is complete! (in 5 steps) ****
    Final optimized geometry and variables:
    Molecular point group: c1

    Geometry (in Angstrom), charge = 0, multiplicity = 1:

    H            0.309454196748     1.969175261515     0.792330926281
    O            0.272384593764     1.865369263932    -0.144086685838
    C            0.215047215898     0.534688307285    -0.500152814837
    C           -1.226241372943     0.030722030466    -0.413080481011
    C            1.217756655386    -0.279772373535     0.318849969088
    H            0.526636585438     0.447566985156    -1.531047874867
    F           -1.993814769436     0.781496355831    -1.162913216590
    F           -1.339172293316    -1.204996186803    -0.835609162358
    F           -1.685444219786     0.086447873277     0.816874447097
    F            2.433357846205     0.131297297573     0.048502421901
    F            1.156841183364    -1.559346132332     0.058050997791
    F            1.024085050182    -0.113990339179     1.611021214591

  Mulliken Charges: (a.u.)
   Center  Symbol    Alpha    Beta     Spin     Total
       1     H     0.38141  0.38141  0.00000  0.23718
       2     O     4.19007  4.19007  0.00000 -0.38014
       3     C     3.00367  3.00367  0.00000 -0.00733
       4     C     2.68366  2.68366  0.00000  0.63268
       5     C     2.68623  2.68623  0.00000  0.62753
       6     H     0.42641  0.42641  0.00000  0.14718
       7     F     4.60164  4.60164  0.00000 -0.20329
       8     F     4.60435  4.60435  0.00000 -0.20869
       9     F     4.60870  4.60870  0.00000 -0.21739
      10     F     4.60275  4.60275  0.00000 -0.20550
      11     F     4.60008  4.60008  0.00000 -0.20017
      12     F     4.61103  4.61103  0.00000 -0.22206

   Total alpha = 41.00000, Total beta = 41.00000, Total charge = -0.00000

*** Psi4 exiting successfully. Buy a developer a beer!
