  ==> Input File <==

--------------------------------------------------------------------------
set {
	reference rhf
	basis 6-31G*
}

set_num_threads( 1 )
memory 2 gb

molecule MOL {
0 1

H	 -0.564533	 -1.557110	 0.438355
N	 -0.626943	 -0.667432	 -0.000092
C	 -1.884486	 -0.289651	 -0.603899
C	 0.469286	 0.129090	 0.000148
H	 -2.162557	 -0.984548	 -1.389266
H	 -1.771439	 0.693673	 -1.030540
H	 -2.678438	 -0.263734	 0.135019
C	 1.788933	 -0.616240	 -0.000037
O	 0.411098	 1.327768	 -0.000049
H	 1.872803	 -1.245775	 -0.880381
H	 2.595421	 0.101576	 0.003713
H	 1.870096	 -1.252171	 0.875943

	symmetry c1
}
set optking {
	frozen_dihedral = ("
		4 2 3 5
	")
}

ee = energy('scf')
oeprop('DIPOLE', 'QUADRUPOLE', 'MULLIKEN_CHARGES')
f=open( 'psi4out.xyz', 'w' )
f.write( "12  " )
f.write( str(ee) + "\n" )
f.write( MOL.save_string_xyz() )
f.close()
--------------------------------------------------------------------------

    Molecular point group: c1

    Geometry (in Angstrom), charge = 0, multiplicity = 1:

       Center              X                  Y                   Z               Mass
    ------------   -----------------  -----------------  -----------------  -----------------
           H         -0.584189131667    -1.530094720473     0.563047600478     1.007825032070
           N         -0.646599131667    -0.640416720473     0.124600600478    14.003074004780
           C         -1.904142131667    -0.262635720473    -0.479206399522    12.000000000000
           C          0.449629868333     0.156105279527     0.124840600478    12.000000000000
           H         -2.182213131667    -0.957532720473    -1.264573399522     1.007825032070
           H         -1.791095131667     0.720688279527    -0.905847399522     1.007825032070
           H         -2.698094131667    -0.236718720473     0.259711600478     1.007825032070
           C          1.769276868333    -0.589224720473     0.124655600478    12.000000000000
           O          0.391441868333     1.354783279527     0.124643600478    15.994914619560
           H          1.853146868333    -1.218759720473    -0.755688399522     1.007825032070
           H          2.575764868333     0.128591279527     0.128405600478     1.007825032070
           H          1.850439868333    -1.225155720473     1.000635600478     1.007825032070

  Charge       = 0
  Multiplicity = 1
  Basis Set: 6-31G*
  Basis Set:

    Orbital Energies (a.u.)
    -----------------------

    Doubly Occupied:

       1A    -20.521850     2A    -15.574129     3A    -11.343908
       4A    -11.255780     5A    -11.228352     6A     -1.386406
       7A     -1.226414     8A     -1.013690     9A     -0.932445
      10A     -0.785740    11A     -0.687992    12A     -0.647546
      13A     -0.633660    14A     -0.585446    15A     -0.581346
      16A     -0.557072    17A     -0.546861    18A     -0.501244
      19A     -0.415413    20A     -0.380694

  @DF-RHF Final Energy:  -246.99586319694293

   => Energetics <=

    Nuclear Repulsion Energy =            181.1241066362226775
    One-Electron Energy =                -694.6278207016348460
    Two-Electron Energy =                 266.5078508684694611
    DFT Exchange-Correlation Energy =       0.0000000000000000
    Empirical Dispersion Energy =           0.0000000000000000
    PCM Polarization Energy =               0.0000000000000000
    EFP Energy =                            0.0000000000000000
    Total Energy =                       -246.9958631969427074

  Mulliken Charges: (a.u.)
   Center  Symbol    Alpha    Beta     Spin     Total
       1     H     0.31156  0.31156  0.00000  0.37687
       2     N     3.89200  3.89200  0.00000 -0.78400
       3     C     3.13898  3.13898  0.00000 -0.27797
       4     C     2.63880  2.63880  0.00000  0.72240
       5     H     0.41779  0.41779  0.00000  0.16442
       6     H     0.39191  0.39191  0.00000  0.21617
       7     H     0.41576  0.41576  0.00000  0.16848
       8     C     3.28953  3.28953  0.00000 -0.57906
       9     O     4.29174  4.29174  0.00000 -0.58349
      10     H     0.40545  0.40545  0.00000  0.18910
      11     H     0.39445  0.39445  0.00000  0.21111
      12     H     0.41202  0.41202  0.00000  0.17597

   Total alpha = 20.00000, Total beta = 20.00000, Total charge = -0.00000
