                              Psi4 1.0.54 Driver

  ==> Input File <==

--------------------------------------------------------------------------
set {
	reference rhf
	basis cc-pvtz
}

set_num_threads( 4 )
memory 2 gb

molecule MOL {
0 1

H	 2.183650	 -1.324264	 0.007013
N	 2.433987	 -0.362316	 -0.080024
C	 1.263552	 0.494993	 0.021953
H	 2.879608	 -0.252990	 -0.967045
C	 -0.016533	 -0.325589	 -0.026925
H	 1.280915	 1.180773	 -0.818522
H	 1.263064	 1.106893	 0.925038
C	 -1.280353	 0.525521	 0.047747
H	 -0.016686	 -0.912532	 -0.939714
H	 -0.014099	 -1.037598	 0.796369
C	 -2.560681	 -0.301323	 -0.007747
H	 -1.279957	 1.241025	 -0.770189
H	 -1.270445	 1.110526	 0.963468
H	 -2.617064	 -0.872870	 -0.928010
H	 -3.439525	 0.331102	 0.043462
H	 -2.609427	 -1.002736	 0.818585

	symmetry c1
}
set optking {
	frozen_dihedral = ("
		1 2 3 6
	")
}

ee,wfn = optimize('scf', return_wfn=True)
oeprop( wfn, 'DIPOLE', 'QUADRUPOLE', 'MULLIKEN_CHARGES')
f=open( 'psi4out.xyz', 'w' )
f.write( "16  " )
f.write( str(ee) + "\n" )
f.write( MOL.save_string_xyz() )
f.close()
--------------------------------------------------------------------------

    Molecular point group: c1
  Charge       = 0
  Multiplicity = 1
  Basis Set: CC-PVTZ
  Basis Set:
  @DF-RHF Final Energy:  -212.39565093500480
    Total Energy =                       -212.3956509350049373
    Molecular point group: c1
  Basis Set: CC-PVTZ
  Basis Set:
  Basis Set: CC-PVTZ
  Basis Set:
  @DF-RHF Final Energy:  -212.39654066104859
    Total Energy =                       -212.3965406610486752
  Basis Set: CC-PVTZ
  Basis Set:
  Basis Set: CC-PVTZ
  Basis Set:
  @DF-RHF Final Energy:  -212.39671177338997
    Total Energy =                       -212.3967117733901659
  Basis Set: CC-PVTZ
  Basis Set:
  Basis Set: CC-PVTZ
  Basis Set:
  @DF-RHF Final Energy:  -212.39671503842598
    Total Energy =                       -212.3967150384260094
  Basis Set: CC-PVTZ
  Basis Set:
  Charge       = 0
  Multiplicity = 1
  Basis Set: CC-PVTZ
  Basis Set:

    Orbital Energies (a.u.)
    -----------------------

    Doubly Occupied:

       1A    -15.523904     2A    -11.238038     3A    -11.216041
       4A    -11.213585     5A    -11.208759     6A     -1.175752
       7A     -1.063591     8A     -0.961235     9A     -0.847806
      10A     -0.798117    11A     -0.669098    12A     -0.634958
      13A     -0.597655    14A     -0.585860    15A     -0.565086
      16A     -0.520934    17A     -0.511146    18A     -0.476110
      19A     -0.472623    20A     -0.465594    21A     -0.378025

  @DF-RHF Final Energy:  -212.39671555442496

   => Energetics <=

    Nuclear Repulsion Energy =            186.4678181697713342
    One-Electron Energy =                -655.4812292364382529
    Two-Electron Energy =                 256.6166955122421314
    DFT Exchange-Correlation Energy =       0.0000000000000000
    Empirical Dispersion Energy =           0.0000000000000000
    PCM Polarization Energy =               0.0000000000000000
    EFP Energy =                            0.0000000000000000
    Total Energy =                       -212.3967155544247589
    Molecular point group: c1
  Basis Set: CC-PVTZ
  Basis Set:

  -Total Gradient:
     Atom            X                  Y                   Z
    ------   -----------------  -----------------  -----------------
       1       -0.000118100017    -0.000121411900    -0.001474007923
       2        0.000020702348    -0.000117214506     0.001662222609
       3        0.000741130154     0.001125965743     0.000585779873
       4        0.000000675624    -0.000005147607    -0.000017359688
       5        0.000045981365     0.000015339664    -0.000007308382
       6       -0.000638535477    -0.000912298912    -0.000762630992
       7       -0.000032399344     0.000010919745     0.000006259567
       8        0.000016069111    -0.000006845108     0.000000896943
       9        0.000011182293     0.000007543304     0.000002132185
      10       -0.000005811954    -0.000002423046    -0.000011126078
      11       -0.000026382847     0.000007855771     0.000017405622
      12        0.000004240730    -0.000006588969     0.000000680651
      13       -0.000011023744     0.000006090672    -0.000006146165
      14        0.000006952007     0.000008492085     0.000002921967
      15       -0.000013535708    -0.000007612996     0.000002571775
      16       -0.000001144545    -0.000002663940    -0.000002291964

  **** Optimization is complete! (in 5 steps) ****
    Final optimized geometry and variables:
    Molecular point group: c1

    Geometry (in Angstrom), charge = 0, multiplicity = 1:

    H            2.264970460759    -1.299343174640     0.050530477881
    N            2.477046599907    -0.328520395597    -0.031108602226
    C            1.267625017244     0.489706989420     0.011076836088
    H            2.969454956982    -0.209584678232    -0.888600180452
    C           -0.020619974028    -0.323899294450    -0.033771083083
    H            1.272099076320     1.183019282806    -0.823875622435
    H            1.273740441187     1.091066265542     0.915026196139
    C           -1.279123832816     0.531744228727     0.071888744931
    H           -0.046265792564    -0.898748127307    -0.956724451297
    H           -0.008820532975    -1.046039020157     0.780315778663
    C           -2.564892097118    -0.287763921577     0.036525049175
    H           -1.291262106988     1.254421779559    -0.739538767269
    H           -1.245171777169     1.107935073657     0.992100481448
    H           -2.645458960275    -0.849961256626    -0.887865722929
    H           -3.438579547333     0.349090858536     0.113084162111
    H           -2.599495590190    -0.996555094294     0.857133501525

  Mulliken Charges: (a.u.)
   Center  Symbol    Alpha    Beta     Spin     Total
       1     H     0.42862  0.42862  0.00000  0.14277
       2     N     3.69578  3.69578  0.00000 -0.39156
       3     C     3.01721  3.01721  0.00000 -0.03442
       4     H     0.42814  0.42814  0.00000  0.14372
       5     C     3.08840  3.08840  0.00000 -0.17681
       6     H     0.46199  0.46199  0.00000  0.07602
       7     H     0.46134  0.46134  0.00000  0.07733
       8     C     3.08987  3.08987  0.00000 -0.17973
       9     H     0.45756  0.45756  0.00000  0.08489
      10     H     0.45577  0.45577  0.00000  0.08845
      11     C     3.14904  3.14904  0.00000 -0.29809
      12     H     0.45478  0.45478  0.00000  0.09043
      13     H     0.45345  0.45345  0.00000  0.09311
      14     H     0.45519  0.45519  0.00000  0.08961
      15     H     0.44816  0.44816  0.00000  0.10368
      16     H     0.45470  0.45470  0.00000  0.09060

   Total alpha = 21.00000, Total beta = 21.00000, Total charge = -0.00000

*** Psi4 exiting successfully. Buy a developer a beer!
