  ==> Input File <==

--------------------------------------------------------------------------
set {
	reference rhf
	basis 6-31G*
}

set_num_threads( 4 )
memory 2 gb

molecule MOL {
0 1

O	 2.520214	 0.067785	 0.865725
C	 1.705091	 0.115954	 0.001797
C	 0.381791	 -0.609817	 0.001258
O	 1.857836	 0.837773	 -1.101282
C	 -0.823008	 0.326187	 0.001381
H	 0.371250	 -1.265087	 -0.865474
H	 0.370908	 -1.265746	 0.867490
C	 -2.149452	 -0.435131	 -0.000098
H	 -0.770201	 0.977095	 -0.865636
H	 -0.771220	 0.975655	 0.869608
C	 -3.368779	 0.488503	 -0.000883
H	 -2.193746	 -1.087250	 -0.871175
H	 -2.195311	 -1.087803	 0.870418
C	 -4.693822	 -0.272754	 -0.001129
H	 -3.325798	 1.139422	 -0.871284
H	 -3.326423	 1.139959	 0.869145
H	 -4.781274	 -0.907928	 -0.878124
H	 -5.538651	 0.408946	 -0.001420
H	 -4.781694	 -0.907783	 0.875984
C	 3.061366	 1.573145	 -1.226572
H	 3.156516	 2.286481	 -0.420579
H	 2.996914	 2.085493	 -2.173789
H	 3.914595	 0.910266	 -1.216656

	symmetry c1
}
set optking {
	frozen_dihedral = ("
		1 2 3 6
	")
}

ee = optimize('scf')
oeprop('DIPOLE', 'QUADRUPOLE', 'MULLIKEN_CHARGES')
f=open( 'psi4out.xyz', 'w' )
f.write( "23  " )
f.write( str(ee) + "\n" )
f.write( MOL.save_string_xyz() )
f.close()
--------------------------------------------------------------------------

    Molecular point group: c1
  Charge       = 0
  Multiplicity = 1
  Basis Set: 6-31G*
  Basis Set:
  @DF-RHF Final Energy:  -422.97473337670624
    Total Energy =                       -422.9747333767063537
    Molecular point group: c1
  Basis Set: 6-31G*
  Basis Set:
  Basis Set: 6-31G*
  Basis Set:
  @DF-RHF Final Energy:  -422.97490221406935
    Total Energy =                       -422.9749022140692887
  Basis Set: 6-31G*
  Basis Set:
  Basis Set: 6-31G*
  Basis Set:
  @DF-RHF Final Energy:  -422.97413363289155
    Total Energy =                       -422.9741336328916077
  Basis Set: 6-31G*
  Basis Set:
  Basis Set: 6-31G*
  Basis Set:
  @DF-RHF Final Energy:  -422.97503687116381
    Total Energy =                       -422.9750368711639794
  Basis Set: 6-31G*
  Basis Set:
  Basis Set: 6-31G*
  Basis Set:
  @DF-RHF Final Energy:  -422.97504050032347
    Total Energy =                       -422.9750405003233027
  Basis Set: 6-31G*
  Basis Set:
  Charge       = 0
  Multiplicity = 1
  Basis Set: 6-31G*
  Basis Set:

    Orbital Energies (a.u.)
    -----------------------

    Doubly Occupied:

       1A    -20.604055     2A    -20.543615     3A    -11.370838
       4A    -11.280791     5A    -11.234144     6A    -11.228171
       7A    -11.221636     8A    -11.220013     9A    -11.212106
      10A     -1.468638    11A     -1.361208    12A     -1.097078
      13A     -1.045610    14A     -0.983873    15A     -0.934919
      16A     -0.847621    17A     -0.798492    18A     -0.773383
      19A     -0.693325    20A     -0.680478    21A     -0.672609
      22A     -0.653534    23A     -0.608629    24A     -0.593169
      25A     -0.578673    26A     -0.570514    27A     -0.545435
      28A     -0.531565    29A     -0.523652    30A     -0.506388
      31A     -0.491145    32A     -0.477558    33A     -0.470414
      34A     -0.468434    35A     -0.454097    36A     -0.426797

  @DF-RHF Final Energy:  -422.97504112715029

   => Energetics <=

    Nuclear Repulsion Energy =            454.9219457369849238
    One-Electron Energy =               -1477.4487600188567740
    Two-Electron Energy =                 599.5517731547217863
    DFT Exchange-Correlation Energy =       0.0000000000000000
    Empirical Dispersion Energy =           0.0000000000000000
    PCM Polarization Energy =               0.0000000000000000
    EFP Energy =                            0.0000000000000000
    Total Energy =                       -422.9750411271500070
    Molecular point group: c1
  Basis Set: 6-31G*
  Basis Set:

  -Total Gradient:
     Atom            X                  Y                   Z
    ------   -----------------  -----------------  -----------------
       1        0.000107725181    -0.000206118593    -0.000168665065
       2       -0.000102131321     0.000214936103     0.000287734322
       3       -0.000111662480     0.000244688544    -0.000281818191
       4       -0.000013601531     0.000027335881     0.000003581867
       5       -0.000020902717     0.000000304597    -0.000027072071
       6        0.000139549590    -0.000233899825     0.000208943569
       7        0.000007861789    -0.000032100846    -0.000031219480
       8       -0.000002197132     0.000005728111     0.000003639238
       9        0.000008869493     0.000007061702    -0.000002826428
      10       -0.000006015412    -0.000013324590    -0.000022010277
      11       -0.000003881517    -0.000002109091     0.000032540377
      12       -0.000004943655     0.000001664284     0.000002577265
      13        0.000005863113    -0.000007043780     0.000001442216
      14       -0.000003024562     0.000003576575    -0.000012920263
      15        0.000006916136    -0.000001579020     0.000008722941
      16       -0.000007891251     0.000003576226     0.000007090228
      17       -0.000000689478    -0.000006183312     0.000000002741
      18       -0.000001604125    -0.000000821541    -0.000006612663
      19        0.000000703893     0.000005542824     0.000000836844
      20       -0.000006901130    -0.000023748444    -0.000006755140
      21        0.000000248024     0.000002937157     0.000002639404
      22        0.000004671332     0.000005824262     0.000000432130
      23        0.000003037756     0.000003752775    -0.000000283566

  **** Optimization is complete! (in 6 steps) ****
    Final optimized geometry and variables:
    Molecular point group: c1

    Geometry (in Angstrom), charge = 0, multiplicity = 1:

    O            2.652106035164    -0.208081682039     1.028084680497
    C            1.838446899256    -0.137218441139     0.163992908606
    C            0.518156213387    -0.866901153875     0.156366690315
    O            2.000437345303     0.606243936882    -0.923819949760
    C           -0.690216521083     0.078775185579     0.139959979753
    H            0.495344059708    -1.507135870425    -0.720828320798
    H            0.500491067565    -1.499239946803     1.034524835409
    C           -2.017610909087    -0.679884846173     0.175313653259
    H           -0.646344641478     0.701879098376    -0.747028906803
    H           -0.633055189928     0.746624027552     0.996599288618
    C           -3.235853149718     0.245176437314     0.166344034800
    H           -2.070667987338    -1.352223465085    -0.679392658454
    H           -2.051156711571    -1.309795876065     1.062318429448
    C           -4.561103970090    -0.515239623683     0.195987262902
    H           -3.201465260521     0.876576326104    -0.718769775548
    H           -3.184982161777     0.915234398287     1.021744779715
    H           -4.657037843626    -1.169954697602    -0.665561682402
    H           -5.405460220805     0.166876925404     0.188343440589
    H           -4.640616682612    -1.129998276271     1.088053358530
    C            3.205868843412     1.342165778772    -1.025324348241
    H            3.297284150209     2.036763909520    -0.202776769347
    H            3.148191604676     1.875871628969    -1.961189609721
    H            4.057505459048     0.677245739943    -1.025024676135

  Mulliken Charges: (a.u.)
   Center  Symbol    Alpha    Beta     Spin     Total
       1     O     4.28549  4.28549  0.00000 -0.57097
       2     C     2.61453  2.61453  0.00000  0.77095
       3     C     3.19735  3.19735  0.00000 -0.39471
       4     O     4.30265  4.30265  0.00000 -0.60530
       5     C     3.16399  3.16399  0.00000 -0.32797
       6     H     0.40431  0.40431  0.00000  0.19137
       7     H     0.39871  0.39871  0.00000  0.20259
       8     C     3.15236  3.15236  0.00000 -0.30472
       9     H     0.40783  0.40783  0.00000  0.18434
      10     H     0.41500  0.41500  0.00000  0.17000
      11     C     3.15226  3.15226  0.00000 -0.30451
      12     H     0.42217  0.42217  0.00000  0.15565
      13     H     0.42108  0.42108  0.00000  0.15785
      14     C     3.23980  3.23980  0.00000 -0.47961
      15     H     0.42179  0.42179  0.00000  0.15641
      16     H     0.42148  0.42148  0.00000  0.15705
      17     H     0.42128  0.42128  0.00000  0.15743
      18     H     0.41820  0.41820  0.00000  0.16361
      19     H     0.42092  0.42092  0.00000  0.15817
      20     C     3.09222  3.09222  0.00000 -0.18445
      21     H     0.40894  0.40894  0.00000  0.18213
      22     H     0.40891  0.40891  0.00000  0.18219
      23     H     0.40875  0.40875  0.00000  0.18251

   Total alpha = 36.00000, Total beta = 36.00000, Total charge = -0.00000
