  ==> Input File <==

--------------------------------------------------------------------------
set {
	reference rhf
	basis cc-pvtz
}

set_num_threads( 4 )
memory 2 gb

molecule MOL {
0 1

H	 1.128311	 0.207724	 1.465118
C	 1.134565	 0.093781	 0.372499
C	 0.062554	 0.862911	 -0.350953
O	 1.948932	 -0.587720	 -0.146651
C	 -0.102573	 2.288903	 0.183739
H	 -0.863168	 0.305552	 -0.288632
H	 0.359602	 0.905030	 -1.396449
C	 -0.648419	 2.343856	 1.607706
H	 -0.768298	 2.828559	 -0.479702
H	 0.853142	 2.803593	 0.137384
H	 -1.620893	 1.868388	 1.669213
H	 -0.756923	 3.369557	 1.939074
H	 0.006891	 1.838496	 2.308574

	symmetry c1
}
set optking {
	frozen_dihedral = ("
		6 3 2 4
	")
}

ee = optimize('scf')
oeprop('DIPOLE', 'QUADRUPOLE', 'MULLIKEN_CHARGES')
f=open( 'psi4out.xyz', 'w' )
f.write( "13  " )
f.write( str(ee) + "\n" )
f.write( MOL.save_string_xyz() )
f.close()
--------------------------------------------------------------------------

    Molecular point group: c1
  Charge       = 0
  Multiplicity = 1
  Basis Set: CC-PVTZ
  Basis Set:
  @DF-RHF Final Energy:  -231.06778448923802
    Total Energy =                       -231.0677844892382495
    Molecular point group: c1
  Basis Set: CC-PVTZ
  Basis Set:
  Basis Set: CC-PVTZ
  Basis Set:
  @DF-RHF Final Energy:  -231.06837346445494
    Total Energy =                       -231.0683734644547940
  Basis Set: CC-PVTZ
  Basis Set:
  Basis Set: CC-PVTZ
  Basis Set:
  @DF-RHF Final Energy:  -231.06874300078516
    Total Energy =                       -231.0687430007849343
  Basis Set: CC-PVTZ
  Basis Set:
  Basis Set: CC-PVTZ
  Basis Set:
  @DF-RHF Final Energy:  -231.06878791863298
    Total Energy =                       -231.0687879186330349
  Basis Set: CC-PVTZ
  Basis Set:
  Basis Set: CC-PVTZ
  Basis Set:
  @DF-RHF Final Energy:  -231.06881173075945
    Total Energy =                       -231.0688117307592506
  Basis Set: CC-PVTZ
  Basis Set:
  Basis Set: CC-PVTZ
  Basis Set:
  @DF-RHF Final Energy:  -231.06881803198297
    Total Energy =                       -231.0688180319831417
  Basis Set: CC-PVTZ
  Basis Set:
  Charge       = 0
  Multiplicity = 1
  Basis Set: CC-PVTZ
  Basis Set:

    Orbital Energies (a.u.)
    -----------------------

    Doubly Occupied:

       1A    -20.551484     2A    -11.321274     3A    -11.237037
       4A    -11.234760     5A    -11.223940     6A     -1.406395
       7A     -1.087399     8A     -0.974946     9A     -0.852806
      10A     -0.788068    11A     -0.676045    12A     -0.652162
      13A     -0.608494    14A     -0.598715    15A     -0.582779
      16A     -0.529835    17A     -0.508011    18A     -0.495648
      19A     -0.486248    20A     -0.411271

  @DF-RHF Final Energy:  -231.06881803967346

   => Energetics <=

    Nuclear Repulsion Energy =            172.3571660636496006
    One-Electron Energy =                -654.3973421464079365
    Two-Electron Energy =                 250.9713580430848197
    DFT Exchange-Correlation Energy =       0.0000000000000000
    Empirical Dispersion Energy =           0.0000000000000000
    PCM Polarization Energy =               0.0000000000000000
    EFP Energy =                            0.0000000000000000
    Total Energy =                       -231.0688180396734879
    Molecular point group: c1
  Basis Set: CC-PVTZ
  Basis Set:

  -Total Gradient:
     Atom            X                  Y                   Z
    ------   -----------------  -----------------  -----------------
       1        0.000055528431     0.000011640383    -0.000019283249
       2        0.000339566846     0.000263467240    -0.000108350403
       3       -0.000110041514     0.000084468009     0.000250171497
       4       -0.000275643453    -0.000241291234     0.000080696710
       5       -0.000006441629     0.000008085009     0.000057748514
       6        0.000073779939    -0.000180408568    -0.000358237980
       7       -0.000018225046    -0.000053160194     0.000024444467
       8       -0.000003910312     0.000075225933     0.000045381652
       9       -0.000008006691    -0.000004157776     0.000030444394
      10       -0.000011831538     0.000017660255    -0.000028555267
      11       -0.000004696759     0.000009597175    -0.000004329308
      12       -0.000008865671    -0.000012895361     0.000035702636
      13       -0.000021212609     0.000021769133    -0.000005833666

  **** Optimization is complete! (in 7 steps) ****
    Final optimized geometry and variables:
    Molecular point group: c1

    Geometry (in Angstrom), charge = 0, multiplicity = 1:

    H            0.776939447402    -0.822285288306     1.096064588572
    C            0.697237731932    -0.916569386041     0.007321114004
    C           -0.403397171306    -0.127285170697    -0.652516010889
    O            1.448187407861    -1.619918320616    -0.576233616840
    C           -0.567244684146     1.297740742524    -0.110760878458
    H           -1.327303545950    -0.683421380892    -0.505623058321
    H           -0.200219102524    -0.120359238892    -1.715044905178
    C           -1.186769081557     1.381040166380     1.282625508035
    H           -1.193155041909     1.847462558079    -0.804082762428
    H            0.396610512169     1.798415474931    -0.115209664683
    H           -2.169624469142     0.922293074207     1.297079059923
    H           -1.299893027490     2.414093794098     1.588541868283
    H           -0.581107657648     0.886292315015     2.032554255471

  Mulliken Charges: (a.u.)
   Center  Symbol    Alpha    Beta     Spin     Total
       1     H     0.46341  0.46341  0.00000  0.07318
       2     C     2.90366  2.90366  0.00000  0.19269
       3     C     3.08815  3.08815  0.00000 -0.17630
       4     O     4.16556  4.16556  0.00000 -0.33112
       5     C     3.10080  3.10080  0.00000 -0.20160
       6     H     0.44957  0.44957  0.00000  0.10087
       7     H     0.43632  0.43632  0.00000  0.12737
       8     C     3.14909  3.14909  0.00000 -0.29819
       9     H     0.44398  0.44398  0.00000  0.11203
      10     H     0.44777  0.44777  0.00000  0.10447
      11     H     0.45306  0.45306  0.00000  0.09389
      12     H     0.44427  0.44427  0.00000  0.11146
      13     H     0.45437  0.45437  0.00000  0.09126

   Total alpha = 20.00000, Total beta = 20.00000, Total charge = -0.00000
