  ==> Input File <==

--------------------------------------------------------------------------
set {
	reference rhf
	basis 6-31G*
}

set_num_threads( 1 )
memory 2 gb

molecule MOL {
0 1

O	 1.938744	 1.128194	 0.579634
C	 1.705091	 0.115954	 0.001797
C	 0.381791	 -0.609817	 0.001258
O	 2.602496	 -0.520235	 -0.740539
C	 -0.823008	 0.326187	 0.001381
H	 0.371250	 -1.265087	 -0.865474
H	 0.370908	 -1.265746	 0.867490
C	 -2.149452	 -0.435131	 -0.000098
H	 -0.770201	 0.977095	 -0.865636
H	 -0.771220	 0.975655	 0.869608
C	 -3.368779	 0.488503	 -0.000883
H	 -2.193746	 -1.087250	 -0.871175
H	 -2.195311	 -1.087803	 0.870418
C	 -4.693822	 -0.272754	 -0.001129
H	 -3.325798	 1.139422	 -0.871284
H	 -3.326423	 1.139959	 0.869145
H	 -4.781274	 -0.907928	 -0.878124
H	 -5.538651	 0.408946	 -0.001420
H	 -4.781694	 -0.907783	 0.875984
C	 3.891818	 0.058683	 -0.826889
H	 3.836084	 1.048044	 -1.257686
H	 4.466703	 -0.594903	 -1.464235
H	 4.346122	 0.122446	 0.151399

	symmetry c1
}
set optking {
	frozen_dihedral = ("
		15 11 8 12,
		9 5 8 12,
		9 5 3 6,
		1 2 4 20
	")
}

ee = energy('scf')
oeprop('DIPOLE', 'QUADRUPOLE', 'MULLIKEN_CHARGES')
f=open( 'psi4out.xyz', 'w' )
f.write( "23  " )
f.write( str(ee) + "\n" )
f.write( MOL.save_string_xyz() )
f.close()
--------------------------------------------------------------------------

    Molecular point group: c1

    Geometry (in Angstrom), charge = 0, multiplicity = 1:

       Center              X                  Y                   Z               Mass
    ------------   -----------------  -----------------  -----------------  -----------------
           O          1.957534881912     1.093846348494     0.695388017061    15.994914619560
           C          1.723881881912     0.081606348494     0.117551017061    12.000000000000
           C          0.400581881912    -0.644164651506     0.117012017061    12.000000000000
           O          2.621286881912    -0.554582651506    -0.624784982939    15.994914619560
           C         -0.804217118088     0.291839348494     0.117135017061    12.000000000000
           H          0.390040881912    -1.299434651506    -0.749719982939     1.007825032070
           H          0.389698881912    -1.300093651506     0.983244017061     1.007825032070
           C         -2.130661118088    -0.469478651506     0.115656017061    12.000000000000
           H         -0.751410118088     0.942747348494    -0.749881982939     1.007825032070
           H         -0.752429118088     0.941307348494     0.985362017061     1.007825032070
           C         -3.349988118088     0.454155348494     0.114871017061    12.000000000000
           H         -2.174955118088    -1.121597651506    -0.755420982939     1.007825032070
           H         -2.176520118088    -1.122150651506     0.986172017061     1.007825032070
           C         -4.675031118088    -0.307101651506     0.114625017061    12.000000000000
           H         -3.307007118088     1.105074348494    -0.755529982939     1.007825032070
           H         -3.307632118088     1.105611348494     0.984899017061     1.007825032070
           H         -4.762483118088    -0.942275651506    -0.762369982939     1.007825032070
           H         -5.519860118088     0.374598348494     0.114334017061     1.007825032070
           H         -4.762903118088    -0.942130651506     0.991738017061     1.007825032070
           C          3.910608881912     0.024335348494    -0.711134982939    12.000000000000
           H          3.854874881912     1.013696348494    -1.141931982939     1.007825032070
           H          4.485493881912    -0.629250651506    -1.348480982939     1.007825032070
           H          4.364912881912     0.088098348494     0.267153017061     1.007825032070

  Charge       = 0
  Multiplicity = 1
  Basis Set: 6-31G*
  Basis Set:

    Orbital Energies (a.u.)
    -----------------------

    Doubly Occupied:

       1A    -20.604771     2A    -20.544167     3A    -11.371989
       4A    -11.280577     5A    -11.234351     6A    -11.222544
       7A    -11.219255     8A    -11.217544     9A    -11.210410
      10A     -1.469373    11A     -1.362314    12A     -1.094458
      13A     -1.044179    14A     -0.987163    15A     -0.932588
      16A     -0.844761    17A     -0.796266    18A     -0.769276
      19A     -0.695552    20A     -0.682546    21A     -0.671562
      22A     -0.652329    23A     -0.607664    24A     -0.599378
      25A     -0.574187    26A     -0.566672    27A     -0.549387
      28A     -0.526124    29A     -0.522822    30A     -0.508274
      31A     -0.484314    32A     -0.472375    33A     -0.466599
      34A     -0.463316    35A     -0.455266    36A     -0.432863

  @DF-RHF Final Energy:  -422.97514940336271

   => Energetics <=

    Nuclear Repulsion Energy =            452.2647706253547994
    One-Electron Energy =               -1472.2054603080262041
    Two-Electron Energy =                 596.9655402793077883
    DFT Exchange-Correlation Energy =       0.0000000000000000
    Empirical Dispersion Energy =           0.0000000000000000
    PCM Polarization Energy =               0.0000000000000000
    EFP Energy =                            0.0000000000000000
    Total Energy =                       -422.9751494033636163

  Mulliken Charges: (a.u.)
   Center  Symbol    Alpha    Beta     Spin     Total
       1     O     4.28619  4.28619  0.00000 -0.57238
       2     C     2.60427  2.60427  0.00000  0.79147
       3     C     3.20991  3.20991  0.00000 -0.41983
       4     O     4.30576  4.30576  0.00000 -0.61151
       5     C     3.15700  3.15700  0.00000 -0.31400
       6     H     0.40048  0.40048  0.00000  0.19905
       7     H     0.40007  0.40007  0.00000  0.19985
       8     C     3.15299  3.15299  0.00000 -0.30598
       9     H     0.41646  0.41646  0.00000  0.16708
      10     H     0.40558  0.40558  0.00000  0.18885
      11     C     3.15193  3.15193  0.00000 -0.30386
      12     H     0.42327  0.42327  0.00000  0.15346
      13     H     0.42285  0.42285  0.00000  0.15429
      14     C     3.23970  3.23970  0.00000 -0.47941
      15     H     0.42186  0.42186  0.00000  0.15629
      16     H     0.42074  0.42074  0.00000  0.15852
      17     H     0.42172  0.42172  0.00000  0.15656
      18     H     0.41832  0.41832  0.00000  0.16336
      19     H     0.42148  0.42148  0.00000  0.15704
      20     C     3.09322  3.09322  0.00000 -0.18644
      21     H     0.40878  0.40878  0.00000  0.18245
      22     H     0.40843  0.40843  0.00000  0.18314
      23     H     0.40900  0.40900  0.00000  0.18200

   Total alpha = 36.00000, Total beta = 36.00000, Total charge = -0.00000
