  ==> Input File <==

--------------------------------------------------------------------------
set {
	reference rhf
	basis 6-31G*
}

set_num_threads( 1 )
memory 2 gb

molecule MOL {
0 1

H	 2.176868	 -0.646004	 -0.217325
O	 1.337496	 -0.537251	 0.205931
C	 0.702312	 0.627605	 -0.264544
C	 -0.714990	 0.596302	 0.266387
H	 0.682322	 0.642550	 -1.350929
H	 1.215941	 1.520383	 0.085680
O	 -1.405996	 -0.526611	 -0.195820
H	 -1.257453	 1.468809	 -0.075599
H	 -0.688972	 0.618407	 1.353696
H	 -2.062966	 -0.228090	 -0.811684

	symmetry c1
}
set optking {
	frozen_dihedral = ("
		5 3 4 7
	")
}

ee = energy('scf')
oeprop('DIPOLE', 'QUADRUPOLE', 'MULLIKEN_CHARGES')
f=open( 'psi4out.xyz', 'w' )
f.write( "10  " )
f.write( str(ee) + "\n" )
f.write( MOL.save_string_xyz() )
f.close()
--------------------------------------------------------------------------

    Molecular point group: c1

    Geometry (in Angstrom), charge = 0, multiplicity = 1:

       Center              X                  Y                   Z               Mass
    ------------   -----------------  -----------------  -----------------  -----------------
           H          2.195913689423    -0.663299786330    -0.203780262211     1.007825032070
           O          1.356541689423    -0.554546786330     0.219475737789    15.994914619560
           C          0.721357689423     0.610309213670    -0.250999262211    12.000000000000
           C         -0.695944310577     0.579006213670     0.279931737789    12.000000000000
           H          0.701367689423     0.625254213670    -1.337384262211     1.007825032070
           H          1.234986689423     1.503087213670     0.099224737789     1.007825032070
           O         -1.386950310577    -0.543906786330    -0.182275262211    15.994914619560
           H         -1.238407310577     1.451513213670    -0.062054262211     1.007825032070
           H         -0.669926310577     0.601111213670     1.367240737789     1.007825032070
           H         -2.043920310577    -0.245385786330    -0.798139262211     1.007825032070

  Charge       = 0
  Multiplicity = 1
  Basis Set: 6-31G*
  Basis Set:

    Orbital Energies (a.u.)
    -----------------------

    Doubly Occupied:

       1A    -20.551674     2A    -20.551234     3A    -11.270605
       4A    -11.269930     5A     -1.371152     6A     -1.348081
       7A     -0.999500     8A     -0.835203     9A     -0.722787
      10A     -0.677869    11A     -0.649300    12A     -0.593207
      13A     -0.572598    14A     -0.516418    15A     -0.489322
      16A     -0.441029    17A     -0.431592

  @DF-RHF Final Energy:  -228.91514735329764

   => Energetics <=

    Nuclear Repulsion Energy =            133.8160601337955882
    One-Electron Energy =                -578.8794576502455129
    Two-Electron Energy =                 216.1482501631521131
    DFT Exchange-Correlation Energy =       0.0000000000000000
    Empirical Dispersion Energy =           0.0000000000000000
    PCM Polarization Energy =               0.0000000000000000
    EFP Energy =                            0.0000000000000000
    Total Energy =                       -228.9151473532978116

  Mulliken Charges: (a.u.)
   Center  Symbol    Alpha    Beta     Spin     Total
       1     H     0.28038  0.28038  0.00000  0.43925
       2     O     4.36520  4.36520  0.00000 -0.73040
       3     C     2.99732  2.99732  0.00000  0.00535
       4     C     3.00373  3.00373  0.00000 -0.00745
       5     H     0.43210  0.43210  0.00000  0.13579
       6     H     0.43207  0.43207  0.00000  0.13586
       7     O     4.36132  4.36132  0.00000 -0.72263
       8     H     0.43369  0.43369  0.00000  0.13262
       9     H     0.41346  0.41346  0.00000  0.17308
      10     H     0.28074  0.28074  0.00000  0.43853

   Total alpha = 17.00000, Total beta = 17.00000, Total charge =  0.00000
