  ==> Input File <==

--------------------------------------------------------------------------
set {
	reference rhf
	basis 6-31G*
}

set_num_threads( 1 )
memory 2 gb

molecule MOL {
0 1

H	 -2.646374	 -0.642757	 1.268656
C	 -2.083525	 -0.384536	 0.393091
O	 -0.807605	 -0.127164	 0.768327
F	 -2.118945	 -1.383102	 -0.486752
F	 -2.621877	 0.670592	 -0.209486
C	 -0.434912	 1.195757	 0.922169
C	 0.900084	 1.367476	 0.209107
Cl	 -0.284695	 1.613985	 2.636734
H	 -1.143678	 1.874843	 0.481411
F	 1.314019	 2.613303	 0.302447
F	 0.738422	 1.084572	 -1.068105
F	 1.825945	 0.577359	 0.695388

	symmetry c1
}
set optking {
	frozen_dihedral = ("
		10 7 6 9,
		9 6 3 2
	")
}

ee = energy('scf')
oeprop('DIPOLE', 'QUADRUPOLE', 'MULLIKEN_CHARGES')
f=open( 'psi4out.xyz', 'w' )
f.write( "12  " )
f.write( str(ee) + "\n" )
f.write( MOL.save_string_xyz() )
f.close()
--------------------------------------------------------------------------

    Molecular point group: c1

    Geometry (in Angstrom), charge = 0, multiplicity = 1:

       Center              X                  Y                   Z               Mass
    ------------   -----------------  -----------------  -----------------  -----------------
           H         -2.306658852312    -1.455260233689     0.670809786810     1.007825032070
           C         -1.743809852312    -1.197039233689    -0.204755213190    12.000000000000
           O         -0.467889852312    -0.939667233689     0.170480786810    15.994914619560
           F         -1.779229852312    -2.195605233689    -1.084598213190    18.998403224000
           F         -2.282161852312    -0.141911233689    -0.807332213190    18.998403224000
           C         -0.095196852312     0.383253766311     0.324322786810    12.000000000000
           C          1.239799147688     0.554972766311    -0.388739213190    12.000000000000
          CL          0.055020147688     0.801481766311     2.038887786810    34.968852682000
           H         -0.803962852312     1.062339766311    -0.116435213190     1.007825032070
           F          1.653734147688     1.800799766311    -0.295399213190    18.998403224000
           F          1.078137147688     0.272068766311    -1.665951213190    18.998403224000
           F          2.165660147688    -0.235144233689     0.097541786810    18.998403224000

  Charge       = 0
  Multiplicity = 1
  Basis Set: 6-31G*
  Basis Set:

    Orbital Energies (a.u.)
    -----------------------

    Doubly Occupied:

       1A   -104.848276     2A    -26.360557     3A    -26.358872
       4A    -26.357547     5A    -26.357093     6A    -26.343145
       7A    -20.649350     8A    -11.527534     9A    -11.491713
      10A    -11.401869    11A    -10.583085    12A     -8.052420
      13A     -8.048960    14A     -8.048814    15A     -1.761082
      16A     -1.721358    17A     -1.657752    18A     -1.656058
      19A     -1.641011    20A     -1.488109    21A     -1.182798
      22A     -1.054171    23A     -0.985597    24A     -0.920437
      25A     -0.860290    26A     -0.848627    27A     -0.845245
      28A     -0.836768    29A     -0.823936    30A     -0.789210
      31A     -0.727286    32A     -0.725135    33A     -0.699228
      34A     -0.697682    35A     -0.680486    36A     -0.673644
      37A     -0.662460    38A     -0.658031    39A     -0.654219
      40A     -0.634145    41A     -0.607186    42A     -0.581331
      43A     -0.514125    44A     -0.482589    45A     -0.472553

  @DF-RHF Final Energy: -1146.30599599183233

   => Energetics <=

    Nuclear Repulsion Energy =            733.4485114176769684
    One-Electron Energy =               -3049.5653266341569179
    Two-Electron Energy =                1169.8108192246475028
    DFT Exchange-Correlation Energy =       0.0000000000000000
    Empirical Dispersion Energy =           0.0000000000000000
    PCM Polarization Energy =               0.0000000000000000
    EFP Energy =                            0.0000000000000000
    Total Energy =                      -1146.3059959918325603

  Mulliken Charges: (a.u.)
   Center  Symbol    Alpha    Beta     Spin     Total
       1     H     0.41260  0.41260  0.00000  0.17479
       2     C     2.56324  2.56324  0.00000  0.87351
       3     O     4.30267  4.30267  0.00000 -0.60533
       4     F     4.67507  4.67507  0.00000 -0.35015
       5     F     4.68335  4.68335  0.00000 -0.36670
       6     C     3.04948  3.04948  0.00000 -0.09896
       7     C     2.43142  2.43142  0.00000  1.13715
       8    CL     8.50513  8.50513  0.00000 -0.01026
       9     H     0.35877  0.35877  0.00000  0.28246
      10     F     4.67410  4.67410  0.00000 -0.34821
      11     F     4.67590  4.67590  0.00000 -0.35181
      12     F     4.66825  4.66825  0.00000 -0.33651

   Total alpha = 45.00000, Total beta = 45.00000, Total charge =  0.00000
