  ==> Input File <==

--------------------------------------------------------------------------
set {
	reference rhf
	basis cc-pvtz
}

set_num_threads( 4 )
memory 2 gb

molecule MOL {
0 1

H	 -3.294565	 0.569785	 0.000000
C	 -2.246225	 0.343737	 0.000000
C	 -1.809462	 -0.973484	 0.000000
C	 -1.312577	 1.353775	 0.000000
H	 -2.523539	 -1.775124	 0.000000
C	 -0.467257	 -1.267606	 0.000000
H	 -1.631287	 2.379013	 0.000000
C	 0.046966	 1.074396	 0.000000
H	 -0.119372	 -2.281828	 0.000000
C	 0.471772	 -0.241514	 0.000000
H	 0.748162	 1.882966	 0.000000
O	 1.760432	 -0.625184	 0.000000
C	 2.129679	 -1.827784	 -0.604622
H	 1.645650	 -2.675429	 -0.132477
H	 3.197107	 -1.917163	 -0.478224
H	 1.897941	 -1.828039	 -1.663869

	symmetry c1
}
set optking {
	frozen_dihedral = ("
		13 12 10 8
	")
}

ee = optimize('scf')
oeprop('DIPOLE', 'QUADRUPOLE', 'MULLIKEN_CHARGES')
f=open( 'psi4out.xyz', 'w' )
f.write( "16  " )
f.write( str(ee) + "\n" )
f.write( MOL.save_string_xyz() )
f.close()
--------------------------------------------------------------------------

    Molecular point group: c1
  Charge       = 0
  Multiplicity = 1
  Basis Set: CC-PVTZ
  Basis Set:
  @DF-RHF Final Energy:  -344.69446855445011
    Total Energy =                       -344.6944685544498270
    Molecular point group: c1
  Basis Set: CC-PVTZ
  Basis Set:
  Basis Set: CC-PVTZ
  Basis Set:
  @DF-RHF Final Energy:  -344.69860401083184
    Total Energy =                       -344.6986040108319571
  Basis Set: CC-PVTZ
  Basis Set:
  Basis Set: CC-PVTZ
  Basis Set:
  @DF-RHF Final Energy:  -344.70205662237424
    Total Energy =                       -344.7020566223742435
  Basis Set: CC-PVTZ
  Basis Set:
  Basis Set: CC-PVTZ
  Basis Set:
  @DF-RHF Final Energy:  -344.70237726915479
    Total Energy =                       -344.7023772691550221
  Basis Set: CC-PVTZ
  Basis Set:
  Basis Set: CC-PVTZ
  Basis Set:
  @DF-RHF Final Energy:  -344.70241335515288
    Total Energy =                       -344.7024133551527711
  Basis Set: CC-PVTZ
  Basis Set:
  Basis Set: CC-PVTZ
  Basis Set:
  @DF-RHF Final Energy:  -344.70241818116807
    Total Energy =                       -344.7024181811678432
  Basis Set: CC-PVTZ
  Basis Set:
  Charge       = 0
  Multiplicity = 1
  Basis Set: CC-PVTZ
  Basis Set:

    Orbital Energies (a.u.)
    -----------------------

    Doubly Occupied:

       1A    -20.576254     2A    -11.291603     3A    -11.277490
       4A    -11.231631     5A    -11.230316     6A    -11.222833
       7A    -11.218958     8A    -11.218669     9A     -1.415299
      10A     -1.151471    11A     -1.024494    12A     -1.017206
      13A     -0.942144    14A     -0.835626    15A     -0.808847
      16A     -0.723852    17A     -0.668133    18A     -0.666985
      19A     -0.655897    20A     -0.618329    21A     -0.592140
      22A     -0.582196    23A     -0.530268    24A     -0.519322
      25A     -0.510649    26A     -0.483561    27A     -0.458911
      28A     -0.339845    29A     -0.313400

  @DF-RHF Final Energy:  -344.70241886950987

   => Energetics <=

    Nuclear Repulsion Energy =            348.7991882270218866
    One-Electron Energy =               -1158.7505557467438848
    Two-Electron Energy =                 465.2489486502121849
    DFT Exchange-Correlation Energy =       0.0000000000000000
    Empirical Dispersion Energy =           0.0000000000000000
    PCM Polarization Energy =               0.0000000000000000
    EFP Energy =                            0.0000000000000000
    Total Energy =                       -344.7024188695098132
    Molecular point group: c1
  Basis Set: CC-PVTZ
  Basis Set:

  -Total Gradient:
     Atom            X                  Y                   Z
    ------   -----------------  -----------------  -----------------
       1       -0.000006103957    -0.000009707268    -0.000003876739
       2        0.000023623307     0.000062350324    -0.000023483787
       3        0.000051041674    -0.000047905811     0.000039024565
       4       -0.000062172883    -0.000027040197     0.000017748706
       5       -0.000008525822     0.000008691593    -0.000005388744
       6       -0.000057732757    -0.000020443317    -0.000007721626
       7        0.000004877117    -0.000003364722    -0.000002391242
       8        0.000108425842    -0.000047522881    -0.001792686087
       9        0.000015551235    -0.000003538426    -0.000006161367
      10        0.000014357549     0.000514207618     0.001805310672
      11        0.000011138237    -0.000001062853    -0.000005196130
      12       -0.000271482361    -0.001310442319     0.001544093308
      13        0.000194095790     0.000839530248    -0.001577055500
      14       -0.000002712234    -0.000000947727    -0.000004816580
      15       -0.000009641649     0.000020256782     0.000014391871
      16       -0.000004739091     0.000026938959     0.000008208679

  **** Optimization is complete! (in 7 steps) ****
    Final optimized geometry and variables:
    Molecular point group: c1

    Geometry (in Angstrom), charge = 0, multiplicity = 1:

    H           -3.190760624909     0.981888037102     0.081837015985
    C           -2.154777039741     0.704226805828     0.082572835636
    C           -1.787054749333    -0.623681770399     0.067640761374
    C           -1.167087465345     1.675609422538     0.096162234012
    H           -2.540147432183    -1.388739595455     0.056525554284
    C           -0.451857333084    -0.993258716949     0.069261709197
    H           -1.436621919692     2.714730489478     0.102640679651
    C            0.163936808684     1.322960849111     0.091513468146
    H           -0.189692864891    -2.031820034210     0.062814774493
    C            0.527303188631    -0.016157514296     0.086272716983
    H            0.936793151238     2.066160468465     0.097314963090
    O            1.848937418696    -0.283235798734     0.107764867094
    C            2.322809792310    -1.448612564111    -0.503723435873
    H            2.098224749959    -2.331661390579     0.083327929266
    H            3.394516534553    -1.344676788517    -0.574142938330
    H            1.907149516913    -1.565894214040    -1.497987733545

  Mulliken Charges: (a.u.)
   Center  Symbol    Alpha    Beta     Spin     Total
       1     H     0.42420  0.42420  0.00000  0.15160
       2     C     3.09767  3.09767  0.00000 -0.19534
       3     C     3.06167  3.06167  0.00000 -0.12334
       4     C     3.06039  3.06039  0.00000 -0.12078
       5     H     0.42305  0.42305  0.00000  0.15391
       6     C     3.13152  3.13152  0.00000 -0.26304
       7     H     0.42273  0.42273  0.00000  0.15454
       8     C     3.11060  3.11060  0.00000 -0.22120
       9     H     0.42288  0.42288  0.00000  0.15423
      10     C     2.85821  2.85821  0.00000  0.28358
      11     H     0.41961  0.41961  0.00000  0.16078
      12     O     4.15878  4.15878  0.00000 -0.31756
      13     C     3.04541  3.04541  0.00000 -0.09082
      14     H     0.46179  0.46179  0.00000  0.07643
      15     H     0.44061  0.44061  0.00000  0.11877
      16     H     0.46089  0.46089  0.00000  0.07823

   Total alpha = 29.00000, Total beta = 29.00000, Total charge =  0.00000
