                              Psi4 1.0.54 Driver

  ==> Input File <==

--------------------------------------------------------------------------
set {
	reference rhf
	basis cc-pvtz
}

set_num_threads( 4 )
memory 2 gb

molecule MOL {
0 1

H	 -0.997980	 5.541467	 4.830176
C	 -1.767556	 4.780716	 4.767921
C	 -1.682589	 4.017124	 3.450714
H	 -1.641394	 4.112691	 5.612931
H	 -2.728757	 5.272886	 4.875906
C	 -2.760034	 2.942536	 3.322877
H	 -0.703715	 3.559490	 3.365185
H	 -1.775075	 4.717082	 2.623473
C	 -2.703581	 2.165753	 2.011272
H	 -2.677530	 2.246672	 4.148585
H	 -3.737335	 3.410209	 3.400002
C	 -1.534955	 1.201816	 1.894553
H	 -3.602722	 1.565049	 1.899622
H	 -2.693191	 2.840163	 1.160048
C	 -1.180025	 0.697761	 0.509157
O	 -0.930138	 0.835592	 2.850248
C	 -2.285431	 -0.137488	 -0.145671
H	 -0.277347	 0.110086	 0.607399
H	 -0.955003	 1.554612	 -0.120420
C	 -3.646545	 0.082747	 0.508954
H	 -2.348635	 0.118247	 -1.199806
H	 -2.034895	 -1.192387	 -0.096473
C	 -4.757412	 -0.737227	 -0.138149
H	 -3.900211	 1.137405	 0.459735
H	 -3.580878	 -0.166775	 1.564416
H	 -4.867876	 -0.486707	 -1.187777
H	 -4.549650	 -1.800049	 -0.072540
H	 -5.709585	 -0.556397	 0.346597

	symmetry c1
}
set optking {
	frozen_dihedral = ("
		12 15 17 21
	")
}

ee,wfn = optimize('scf', return_wfn=True)
oeprop( wfn, 'DIPOLE', 'QUADRUPOLE', 'MULLIKEN_CHARGES')
f=open( 'psi4out.xyz', 'w' )
f.write( "28  " )
f.write( str(ee) + "\n" )
f.write( MOL.save_string_xyz() )
f.close()
--------------------------------------------------------------------------

    Molecular point group: c1
  Charge       = 0
  Multiplicity = 1
  Basis Set: CC-PVTZ
  Basis Set:
  @DF-RHF Final Energy:  -426.28269366451161
    Total Energy =                       -426.2826936645119531
    Molecular point group: c1
  Basis Set: CC-PVTZ
  Basis Set:
  Basis Set: CC-PVTZ
  Basis Set:
  @DF-RHF Final Energy:  -426.30117145881172
    Total Energy =                       -426.3011714588119503
  Basis Set: CC-PVTZ
  Basis Set:
  Basis Set: CC-PVTZ
  Basis Set:
  @DF-RHF Final Energy:  -426.30636633617439
    Total Energy =                       -426.3063663361740510
  Basis Set: CC-PVTZ
  Basis Set:
  Basis Set: CC-PVTZ
  Basis Set:
  @DF-RHF Final Energy:  -426.30706691210048
    Total Energy =                       -426.3070669121007086
  Basis Set: CC-PVTZ
  Basis Set:
  @DF-RHF Final Energy:  -426.30844689757623
    Total Energy =                       -426.3084468975758909
  @DF-RHF Final Energy:  -426.30904148764898
    Total Energy =                       -426.3090414876488694
  @DF-RHF Final Energy:  -426.30978885872150
    Total Energy =                       -426.3097888587219586
  @DF-RHF Final Energy:  -426.31029040717124
    Total Energy =                       -426.3102904071713510
  @DF-RHF Final Energy:  -426.31071421491413
    Total Energy =                       -426.3107142149139008
  @DF-RHF Final Energy:  -426.27823633450714
    Total Energy =                       -426.2782363345075964
  @DF-RHF Final Energy:  -426.31045785241565
    Total Energy =                       -426.3104578524164481
  @DF-RHF Final Energy:  -426.31148878457179
    Total Energy =                       -426.3114887845716794
  @DF-RHF Final Energy:  -426.31163628859281
    Total Energy =                       -426.3116362885934905
  @DF-RHF Final Energy:  -426.31234905464248
    Total Energy =                       -426.3123490546428229
  @DF-RHF Final Energy:  -426.31233172208169
    Total Energy =                       -426.3123317220827175
  Basis Set: CC-PVTZ
  Basis Set:
  @DF-RHF Final Energy:  -426.31240942508327
    Total Energy =                       -426.3124094250831604
  Basis Set: CC-PVTZ
  Basis Set:
  Basis Set: CC-PVTZ
  Basis Set:
  @DF-RHF Final Energy:  -426.31245728882266
    Total Energy =                       -426.3124572888229977
  Basis Set: CC-PVTZ
  Basis Set:
  Basis Set: CC-PVTZ
  Basis Set:
  @DF-RHF Final Energy:  -426.31245959406112
    Total Energy =                       -426.3124595940606696
  Basis Set: CC-PVTZ
  Basis Set:
  Charge       = 0
  Multiplicity = 1
  Basis Set: CC-PVTZ
  Basis Set:

    Orbital Energies (a.u.)
    -----------------------

    Doubly Occupied:

       1A    -20.535710     2A    -11.317938     3A    -11.229537
       4A    -11.227891     5A    -11.224785     6A    -11.214712
       7A    -11.214555     8A    -11.209410     9A    -11.208190
      10A    -11.203234    11A     -1.397113    12A     -1.088592
      13A     -1.076879    14A     -1.021494    15A     -0.990425
      16A     -0.909812    17A     -0.869922    18A     -0.810799
      19A     -0.792409    20A     -0.721285    21A     -0.671301
      22A     -0.643642    23A     -0.632346    24A     -0.618394
      25A     -0.608125    26A     -0.584269    27A     -0.576566
      28A     -0.575167    29A     -0.553147    30A     -0.528488
      31A     -0.518279    32A     -0.510398    33A     -0.495152
      34A     -0.482541    35A     -0.475254    36A     -0.467466
      37A     -0.465318    38A     -0.462608    39A     -0.456424
      40A     -0.393524

  @DF-RHF Final Energy:  -426.31245986792612

   => Energetics <=

    Nuclear Repulsion Energy =            542.5109863405933766
    One-Electron Energy =               -1653.6806923823392026
    Two-Electron Energy =                 684.8572461738194761
    DFT Exchange-Correlation Energy =       0.0000000000000000
    Empirical Dispersion Energy =           0.0000000000000000
    PCM Polarization Energy =               0.0000000000000000
    EFP Energy =                            0.0000000000000000
    Total Energy =                       -426.3124598679264636
    Molecular point group: c1
  Basis Set: CC-PVTZ
  Basis Set:

  -Total Gradient:
     Atom            X                  Y                   Z
    ------   -----------------  -----------------  -----------------
       1       -0.000036298755     0.000005176607    -0.000024096768
       2        0.000002885089    -0.000002465590     0.000018182818
       3        0.000003427308    -0.000013329024    -0.000014764654
       4        0.000041663855     0.000007472231    -0.000030186494
       5        0.000004768122    -0.000017836743     0.000007682349
       6       -0.000014924488    -0.000013765208     0.000006883031
       7       -0.000008973174     0.000026032568    -0.000003056373
       8       -0.000041343093    -0.000004579948     0.000023108340
       9        0.000039109625     0.000007192237     0.000027125718
      10        0.000037575640     0.000002919370    -0.000021001905
      11        0.000003771005    -0.000021864277     0.000000476238
      12       -0.001124865678     0.002771716208    -0.002242615029
      13        0.000016339634    -0.000022645586    -0.000003279867
      14       -0.000054102242    -0.000005771822     0.000033902858
      15        0.001054277338    -0.003068858580     0.003270219996
      16        0.000037398673     0.000030688764    -0.000110036278
      17        0.002938795952    -0.003744348325    -0.000980453510
      18       -0.000014788810     0.000012148515     0.000000528006
      19       -0.000019510729    -0.000017000460     0.000032738466
      20        0.000009308127    -0.000058094258    -0.000009119406
      21       -0.002860190860     0.004080592592     0.000031699448
      22       -0.000009971070     0.000014784844     0.000005454112
      23       -0.000029908157     0.000022982366    -0.000006339640
      24        0.000005418201     0.000004598230     0.000002540566
      25        0.000008536805    -0.000000200269    -0.000024343248
      26       -0.000004128240    -0.000001324370     0.000023175046
      27        0.000003654651     0.000021153544     0.000000565653
      28        0.000012075274    -0.000015373614    -0.000014989477

  **** Optimization is complete! (in 19 steps) ****
    Final optimized geometry and variables:
    Molecular point group: c1

    Geometry (in Angstrom), charge = 0, multiplicity = 1:

    H            2.404818832295     2.864581116957     3.670120165224
    C            1.529923304100     2.912544324940     3.032163348475
    C            1.694641764040     2.024350662511     1.803768266024
    H            0.673579588376     2.604631200650     3.622115788669
    H            1.382106187459     3.950339858479     2.751010438103
    C            0.485384077160     2.079168162894     0.872468384278
    H            1.860762735677     1.001650578711     2.119215187407
    H            2.581343944034     2.332654375420     1.254772671489
    C            0.617751198289     1.200522940831    -0.366008886872
    H           -0.404953433407     1.789841850303     1.418115391458
    H            0.336453255966     3.105138011436     0.548358094682
    C            0.452360958119    -0.286756212181    -0.127542983542
    H           -0.127425266214     1.472020360761    -1.110850670062
    H            1.577091856749     1.355852924393    -0.853621129650
    C            0.679724892884    -1.199471580969    -1.322201438351
    O            0.164844203635    -0.731394019567     0.936699883550
    C           -0.538462082410    -2.052376316161    -1.761404290996
    H            1.503447736776    -1.850668830776    -1.054444601834
    H            1.014889553747    -0.599580357630    -2.159215644206
    C           -1.913897981884    -1.558930522643    -1.305997567195
    H           -0.552177589434    -2.059746591570    -2.845789804880
    H           -0.407998453572    -3.074973009842    -1.430879424863
    C           -3.043742917325    -2.392953364517    -1.901051460555
    H           -2.046776679026    -0.520689319199    -1.602148933286
    H           -1.977093228210    -1.583889668088    -0.226718302830
    H           -3.035965658371    -2.355147674769    -2.985438649772
    H           -2.955759838447    -3.433477105299    -1.606815828964
    H           -4.010122919121    -2.036309491065    -1.564446419839

  Mulliken Charges: (a.u.)
   Center  Symbol    Alpha    Beta     Spin     Total
       1     H     0.44873  0.44873  0.00000  0.10255
       2     C     3.15174  3.15174  0.00000 -0.30348
       3     C     3.08397  3.08397  0.00000 -0.16795
       4     H     0.45217  0.45217  0.00000  0.09567
       5     H     0.45728  0.45728  0.00000  0.08544
       6     C     3.08736  3.08736  0.00000 -0.17473
       7     H     0.44402  0.44402  0.00000  0.11197
       8     H     0.45871  0.45871  0.00000  0.08259
       9     C     3.12656  3.12656  0.00000 -0.25312
      10     H     0.44624  0.44624  0.00000  0.10753
      11     H     0.44805  0.44805  0.00000  0.10390
      12     C     2.85743  2.85743  0.00000  0.28514
      13     H     0.43496  0.43496  0.00000  0.13009
      14     H     0.44153  0.44153  0.00000  0.11695
      15     C     3.10977  3.10977  0.00000 -0.21954
      16     O     4.18741  4.18741  0.00000 -0.37482
      17     C     3.08278  3.08278  0.00000 -0.16556
      18     H     0.43762  0.43762  0.00000  0.12476
      19     H     0.44543  0.44543  0.00000  0.10913
      20     C     3.09797  3.09797  0.00000 -0.19594
      21     H     0.45106  0.45106  0.00000  0.09787
      22     H     0.44686  0.44686  0.00000  0.10629
      23     C     3.15167  3.15167  0.00000 -0.30334
      24     H     0.45638  0.45638  0.00000  0.08723
      25     H     0.43674  0.43674  0.00000  0.12652
      26     H     0.45690  0.45690  0.00000  0.08620
      27     H     0.45367  0.45367  0.00000  0.09267
      28     H     0.44701  0.44701  0.00000  0.10598

   Total alpha = 40.00000, Total beta = 40.00000, Total charge = -0.00000

*** Psi4 exiting successfully. Buy a developer a beer!
