  ==> Input File <==

--------------------------------------------------------------------------
set {
	reference rhf
	basis 6-31G*
}

set_num_threads( 4 )
memory 2 gb

molecule MOL {
0 1

O	 -2.356718	 -0.683097	 -0.860585
C	 -1.921153	 0.064240	 -0.045697
C	 -2.742505	 1.025351	 0.770388
O	 -0.632575	 0.154573	 0.251549
H	 -2.407080	 2.039907	 0.588417
H	 -3.784664	 0.927188	 0.505616
H	 -2.606279	 0.818922	 1.825654
C	 0.160891	 -1.019931	 0.106212
C	 1.589627	 -0.672828	 0.480843
H	 0.089836	 -1.367806	 -0.916050
H	 -0.238459	 -1.792301	 0.749618
C	 2.246377	 0.346236	 -0.452210
H	 2.163194	 -1.597435	 0.473358
H	 1.604769	 -0.303424	 1.502885
C	 3.691736	 0.652107	 -0.061850
H	 2.219579	 -0.032311	 -1.472055
H	 1.666466	 1.263317	 -0.447249
H	 4.134505	 1.377213	 -0.737283
H	 4.305508	 -0.243868	 -0.089969
H	 3.748266	 1.059562	 0.943567

	symmetry c1
}
set optking {
	frozen_dihedral = ("
		1 2 4 8
	")
}

ee = optimize('scf')
oeprop('DIPOLE', 'QUADRUPOLE', 'MULLIKEN_CHARGES')
f=open( 'psi4out.xyz', 'w' )
f.write( "20  " )
f.write( str(ee) + "\n" )
f.write( MOL.save_string_xyz() )
f.close()
--------------------------------------------------------------------------

    Molecular point group: c1
  Charge       = 0
  Multiplicity = 1
  Basis Set: 6-31G*
  Basis Set:
  @DF-RHF Final Energy:  -383.94060138207976
    Total Energy =                       -383.9406013820798762
    Molecular point group: c1
  Basis Set: 6-31G*
  Basis Set:
  Basis Set: 6-31G*
  Basis Set:
  @DF-RHF Final Energy:  -383.93711325799802
    Total Energy =                       -383.9371132579980213
  Basis Set: 6-31G*
  Basis Set:
  Basis Set: 6-31G*
  Basis Set:
  @DF-RHF Final Energy:  -383.94095862431641
    Total Energy =                       -383.9409586243161812
  Basis Set: 6-31G*
  Basis Set:
  Basis Set: 6-31G*
  Basis Set:
  @DF-RHF Final Energy:  -383.94101802459812
    Total Energy =                       -383.9410180245982929
  Basis Set: 6-31G*
  Basis Set:
  @DF-RHF Final Energy:  -383.94102204996557
    Total Energy =                       -383.9410220499654542
  @DF-RHF Final Energy:  -383.94102507899254
    Total Energy =                       -383.9410250789925385
  @DF-RHF Final Energy:  -383.94102674746011
    Total Energy =                       -383.9410267474601142
  @DF-RHF Final Energy:  -383.94102707863084
    Total Energy =                       -383.9410270786310093
  @DF-RHF Final Energy:  -383.91582843326916
    Total Energy =                       -383.9158284332692119
  @DF-RHF Final Energy:  -383.93970578582514
    Total Energy =                       -383.9397057858250264
  @DF-RHF Final Energy:  -383.94085922216141
    Total Energy =                       -383.9408592221614072
  Basis Set: 6-31G*
  Basis Set:
  @DF-RHF Final Energy:  -383.94099805232423
    Total Energy =                       -383.9409980523241757
  Basis Set: 6-31G*
  Basis Set:
  Basis Set: 6-31G*
  Basis Set:
  @DF-RHF Final Energy:  -383.94102447744757
    Total Energy =                       -383.9410244774478542
  Basis Set: 6-31G*
  Basis Set:
  Basis Set: 6-31G*
  Basis Set:
  @DF-RHF Final Energy:  -383.94102691498267
    Total Energy =                       -383.9410269149826718
  Basis Set: 6-31G*
  Basis Set:
  Charge       = 0
  Multiplicity = 1
  Basis Set: 6-31G*
  Basis Set:

    Orbital Energies (a.u.)
    -----------------------

    Doubly Occupied:

       1A    -20.597317     2A    -20.546460     3A    -11.375151
       4A    -11.284455     5A    -11.233648     6A    -11.226037
       7A    -11.219944     8A    -11.213042     9A     -1.464891
      10A     -1.362999    11A     -1.085595    12A     -1.026936
      13A     -0.982255    14A     -0.880042    15A     -0.811030
      16A     -0.774555    17A     -0.691685    18A     -0.680804
      19A     -0.666075    20A     -0.630523    21A     -0.602973
      22A     -0.592563    23A     -0.573674    24A     -0.547006
      25A     -0.543661    26A     -0.539061    27A     -0.507203
      28A     -0.485293    29A     -0.474477    30A     -0.471432
      31A     -0.448523    32A     -0.437250

  @DF-RHF Final Energy:  -383.94102722801495

   => Energetics <=

    Nuclear Repulsion Energy =            384.5050616568539681
    One-Electron Energy =               -1284.9390546091476608
    Two-Electron Energy =                 516.4929657242788608
    DFT Exchange-Correlation Energy =       0.0000000000000000
    Empirical Dispersion Energy =           0.0000000000000000
    PCM Polarization Energy =               0.0000000000000000
    EFP Energy =                            0.0000000000000000
    Total Energy =                       -383.9410272280148320
    Molecular point group: c1
  Basis Set: 6-31G*
  Basis Set:

  -Total Gradient:
     Atom            X                  Y                   Z
    ------   -----------------  -----------------  -----------------
       1        0.000549651899     0.006093619171    -0.006302430506
       2       -0.001292885361    -0.009918421347     0.012779427661
       3        0.000009840216     0.000061806823    -0.000130001871
       4        0.001705053566     0.005313390435    -0.012913376382
       5       -0.000035926044    -0.000005777313    -0.000012160187
       6       -0.000020944178     0.000046046467     0.000031257744
       7        0.000007466972    -0.000011732846    -0.000005830678
       8       -0.001109622217    -0.001484175223     0.006950885343
       9        0.000062331608     0.000034388364    -0.000024868954
      10       -0.000035882311    -0.000113758317    -0.000131383191
      11        0.000103673960    -0.000015882231    -0.000225845142
      12        0.000029826288     0.000028302678    -0.000001665957
      13        0.000026136715     0.000021057937    -0.000013545914
      14       -0.000012335925     0.000004786016     0.000011844957
      15       -0.000002812032    -0.000014741010    -0.000011123753
      16       -0.000005824634    -0.000008144835    -0.000015173862
      17        0.000018882623    -0.000027110044     0.000012693156
      18       -0.000002959706    -0.000000850216     0.000000450213
      19        0.000008078980     0.000002598534    -0.000000101206
      20       -0.000001750413    -0.000005403042     0.000000948531

  **** Optimization is complete! (in 15 steps) ****
    Final optimized geometry and variables:
    Molecular point group: c1

    Geometry (in Angstrom), charge = 0, multiplicity = 1:

    O           -2.405669479858    -0.746615519081    -0.778162679090
    C           -1.932846487698     0.041354035418    -0.026998636024
    C           -2.712662155629     1.078657065287     0.734209088099
    O           -0.623507334147     0.165743174138     0.178740189156
    H           -2.322330349415     2.064953277181     0.512043521783
    H           -3.756981738120     1.022053507148     0.465478162622
    H           -2.594937818633     0.912941373103     1.799449710936
    C            0.181466420861    -1.001300369496     0.028520263440
    C            1.602882991403    -0.650025235990     0.426028172743
    H            0.128907568832    -1.342925504378    -0.996499236392
    H           -0.220099261915    -1.781702067963     0.663098376307
    C            2.262287158149     0.383971249509    -0.488426719915
    H            2.183119884063    -1.570522422808     0.415284713228
    H            1.602391560525    -0.291046789652     1.451829820777
    C            3.699872822461     0.698032965540    -0.076409540764
    H            2.251272313782     0.015160234068    -1.511901182224
    H            1.673857842058     1.295482402538    -0.482089504568
    H            4.145044193474     1.432844647096    -0.739616316922
    H            4.321793583425    -0.192394321013    -0.104465009221
    H            3.740111806786     1.097053269569     0.933201385101

  Mulliken Charges: (a.u.)
   Center  Symbol    Alpha    Beta     Spin     Total
       1     O     4.27722  4.27722  0.00000 -0.55444
       2     C     2.61850  2.61850  0.00000  0.76300
       3     C     3.28263  3.28263  0.00000 -0.56527
       4     O     4.31189  4.31189  0.00000 -0.62378
       5     H     0.39927  0.39927  0.00000  0.20146
       6     H     0.39728  0.39728  0.00000  0.20544
       7     H     0.40287  0.40287  0.00000  0.19426
       8     C     3.00335  3.00335  0.00000 -0.00670
       9     C     3.16406  3.16406  0.00000 -0.32812
      10     H     0.40672  0.40672  0.00000  0.18656
      11     H     0.41428  0.41428  0.00000  0.17143
      12     C     3.15510  3.15510  0.00000 -0.31021
      13     H     0.41853  0.41853  0.00000  0.16293
      14     H     0.41538  0.41538  0.00000  0.16923
      15     C     3.24050  3.24050  0.00000 -0.48100
      16     H     0.42171  0.42171  0.00000  0.15659
      17     H     0.41068  0.41068  0.00000  0.17865
      18     H     0.41726  0.41726  0.00000  0.16548
      19     H     0.42188  0.42188  0.00000  0.15624
      20     H     0.42087  0.42087  0.00000  0.15827

   Total alpha = 32.00000, Total beta = 32.00000, Total charge =  0.00000
