  ==> Input File <==

--------------------------------------------------------------------------
set {
	reference rhf
	basis 6-31G*
}

set_num_threads( 4 )
memory 2 gb

molecule MOL {
0 1

H	 -1.836216	 1.387520	 -0.000064
C	 -1.301823	 0.443321	 -0.000031
O	 -0.003969	 0.658512	 0.000451
O	 -1.829879	 -0.616434	 -0.000857
C	 0.822590	 -0.317601	 0.633847
C	 2.256556	 0.148345	 0.503633
H	 0.665238	 -1.272969	 0.152359
H	 0.522517	 -0.410679	 1.668538
H	 2.537070	 0.243604	 -0.539090
H	 2.920790	 -0.569122	 0.974025
H	 2.393824	 1.110074	 0.984384

	symmetry c1
}
set optking {
	frozen_dihedral = ("
		5 3 2 4
	")
}

ee = optimize('scf')
oeprop('DIPOLE', 'QUADRUPOLE', 'MULLIKEN_CHARGES')
f=open( 'psi4out.xyz', 'w' )
f.write( "11  " )
f.write( str(ee) + "\n" )
f.write( MOL.save_string_xyz() )
f.close()
--------------------------------------------------------------------------

    Molecular point group: c1
  Charge       = 0
  Multiplicity = 1
  Basis Set: 6-31G*
  Basis Set:
  @DF-RHF Final Energy:  -266.82350900875815
    Total Energy =                       -266.8235090087580375
    Molecular point group: c1
  Basis Set: 6-31G*
  Basis Set:
  Basis Set: 6-31G*
  Basis Set:
  @DF-RHF Final Energy:  -266.81593886153803
    Total Energy =                       -266.8159388615383136
  Basis Set: 6-31G*
  Basis Set:
  Basis Set: 6-31G*
  Basis Set:
  @DF-RHF Final Energy:  -266.82383232191057
    Total Energy =                       -266.8238323219106292
  Basis Set: 6-31G*
  Basis Set:
  Basis Set: 6-31G*
  Basis Set:
  @DF-RHF Final Energy:  -266.82404715289550
    Total Energy =                       -266.8240471528955595
  Basis Set: 6-31G*
  Basis Set:
  Basis Set: 6-31G*
  Basis Set:
  @DF-RHF Final Energy:  -266.82404999414621
    Total Energy =                       -266.8240499941463213
  Basis Set: 6-31G*
  Basis Set:
  Charge       = 0
  Multiplicity = 1
  Basis Set: 6-31G*
  Basis Set:

    Orbital Energies (a.u.)
    -----------------------

    Doubly Occupied:

       1A    -20.608081     2A    -20.559710     3A    -11.378867
       4A    -11.294021     5A    -11.227403     6A     -1.473202
       7A     -1.374650     8A     -1.052290     9A     -0.900568
      10A     -0.808394    11A     -0.737641    12A     -0.688363
      13A     -0.675907    14A     -0.600341    15A     -0.567587
      16A     -0.558029    17A     -0.519940    18A     -0.514268
      19A     -0.461040    20A     -0.452151

  @DF-RHF Final Energy:  -266.82405250491081

   => Energetics <=

    Nuclear Repulsion Energy =            178.7634423726909745
    One-Electron Energy =                -718.2700819992359129
    Two-Electron Energy =                 272.6825871216340147
    DFT Exchange-Correlation Energy =       0.0000000000000000
    Empirical Dispersion Energy =           0.0000000000000000
    PCM Polarization Energy =               0.0000000000000000
    EFP Energy =                            0.0000000000000000
    Total Energy =                       -266.8240525049109237
    Molecular point group: c1
  Basis Set: 6-31G*
  Basis Set:

  -Total Gradient:
     Atom            X                  Y                   Z
    ------   -----------------  -----------------  -----------------
       1        0.000020248197    -0.000013582514     0.000007935659
       2        0.001059810403     0.002960918813     0.017401988676
       3       -0.000344511612    -0.006234046523    -0.013976687615
       4       -0.000666032404    -0.000672122181    -0.009445564564
       5       -0.000056621277     0.003930457126     0.006043671418
       6       -0.000000921889     0.000024243457    -0.000011672041
       7       -0.000017862620    -0.000003378225    -0.000001762856
       8        0.000001047999     0.000006868616    -0.000027136105
       9        0.000002717965    -0.000000405834     0.000006837404
      10       -0.000004673158    -0.000004473163     0.000001526130
      11        0.000006798394     0.000005520429     0.000000863894

  **** Optimization is complete! (in 6 steps) ****
    Final optimized geometry and variables:
    Molecular point group: c1

    Geometry (in Angstrom), charge = 0, multiplicity = 1:

    H           -1.797455845754     1.352086965433    -0.319670177760
    C           -1.290620709498     0.398893975757    -0.207523098871
    O            0.016957975210     0.559069275252    -0.299791573215
    O           -1.855524429071    -0.635391917280    -0.106152832007
    C            0.849385579769    -0.406043704908     0.344726785490
    C            2.274187654482     0.097503504174     0.265815826230
    H            0.735610365310    -1.361205773238    -0.148315521697
    H            0.520781035259    -0.514878633886     1.370287498685
    H            2.582349366979     0.212019285026    -0.766948909122
    H            2.942008797596    -0.609193621247     0.747483028807
    H            2.371438420602     1.056640572737     0.761112082878

  Mulliken Charges: (a.u.)
   Center  Symbol    Alpha    Beta     Spin     Total
       1     H     0.41279  0.41279  0.00000  0.17441
       2     C     2.72777  2.72777  0.00000  0.54446
       3     O     4.29448  4.29448  0.00000 -0.58895
       4     O     4.25661  4.25661  0.00000 -0.51323
       5     C     3.00565  3.00565  0.00000 -0.01131
       6     C     3.24899  3.24899  0.00000 -0.49798
       7     H     0.40541  0.40541  0.00000  0.18917
       8     H     0.41308  0.41308  0.00000  0.17384
       9     H     0.40893  0.40893  0.00000  0.18213
      10     H     0.41520  0.41520  0.00000  0.16961
      11     H     0.41108  0.41108  0.00000  0.17784

   Total alpha = 20.00000, Total beta = 20.00000, Total charge = -0.00000
