  ==> Input File <==

--------------------------------------------------------------------------
set {
	reference rhf
	basis 6-31G*
}

set_num_threads( 4 )
memory 2 gb

molecule MOL {
0 1

O	 1.093699	 1.434558	 -0.289579
C	 -0.046919	 1.321761	 0.024333
C	 -1.004892	 2.465356	 0.221371
O	 -0.632575	 0.154573	 0.251549
H	 -1.387302	 2.452177	 1.235539
H	 -0.498779	 3.399523	 0.028975
H	 -1.849247	 2.355319	 -0.449235
C	 0.160891	 -1.019931	 0.106212
C	 1.589627	 -0.672828	 0.480843
H	 0.089836	 -1.367806	 -0.916050
H	 -0.238459	 -1.792301	 0.749618
C	 2.246377	 0.346236	 -0.452210
H	 2.163194	 -1.597435	 0.473358
H	 1.604769	 -0.303424	 1.502885
C	 3.691736	 0.652107	 -0.061850
H	 2.219579	 -0.032311	 -1.472055
H	 1.666466	 1.263317	 -0.447249
H	 4.134505	 1.377213	 -0.737283
H	 4.305508	 -0.243868	 -0.089969
H	 3.748266	 1.059562	 0.943567

	symmetry c1
}
set optking {
	frozen_dihedral = ("
		2 4 8 10
	")
}

ee = optimize('scf')
oeprop('DIPOLE', 'QUADRUPOLE', 'MULLIKEN_CHARGES')
f=open( 'psi4out.xyz', 'w' )
f.write( "20  " )
f.write( str(ee) + "\n" )
f.write( MOL.save_string_xyz() )
f.close()
--------------------------------------------------------------------------

    Molecular point group: c1
  Charge       = 0
  Multiplicity = 1
  Basis Set: 6-31G*
  Basis Set:
  @DF-RHF Final Energy:  -383.06918062448614
    Total Energy =                       -383.0691806244860800
    Molecular point group: c1
  Basis Set: 6-31G*
  Basis Set:
  Basis Set: 6-31G*
  Basis Set:
  @DF-RHF Final Energy:  -383.48954174038954
    Total Energy =                       -383.4895417403896545
  Basis Set: 6-31G*
  Basis Set:
  Basis Set: 6-31G*
  Basis Set:
  @DF-RHF Final Energy:  -383.67839216217118
    Total Energy =                       -383.6783921621712352
  Basis Set: 6-31G*
  Basis Set:
  Basis Set: 6-31G*
  Basis Set:
  @DF-RHF Final Energy:  -383.77250388127362
    Total Energy =                       -383.7725038812735647
  Basis Set: 6-31G*
  Basis Set:
  @DF-RHF Final Energy:  -383.83336214225682
    Total Energy =                       -383.8333621422573287
  @DF-RHF Final Energy:  -383.87365732300373
    Total Energy =                       -383.8736573230038402
  @DF-RHF Final Energy:  -383.90017177719744
    Total Energy =                       -383.9001717771972153
  @DF-RHF Final Energy:  -383.91128076764352
    Total Energy =                       -383.9112807676438024
  @DF-RHF Final Energy:  -383.91776046526826
    Total Energy =                       -383.9177604652680884
  @DF-RHF Final Energy:  -383.92296382327385
    Total Energy =                       -383.9229638232743582
  @DF-RHF Final Energy:  -383.92592273522990
    Total Energy =                       -383.9259227352299604
  @DF-RHF Final Energy:  -383.92875493925118
    Total Energy =                       -383.9287549392514620
  @DF-RHF Final Energy:  -383.93087627647452
    Total Energy =                       -383.9308762764745779
  @DF-RHF Final Energy:  -383.93206007313154
    Total Energy =                       -383.9320600731316517
  @DF-RHF Final Energy:  -383.93258109715464
    Total Energy =                       -383.9325810971545252
  @DF-RHF Final Energy:  -383.93288431145339
    Total Energy =                       -383.9328843114536767
  @DF-RHF Final Energy:  -383.93298020751610
    Total Energy =                       -383.9329802075160387
  @DF-RHF Final Energy:  -383.93302311646778
    Total Energy =                       -383.9330231164673251
  @DF-RHF Final Energy:  -383.93306730247258
    Total Energy =                       -383.9330673024728640
  @DF-RHF Final Energy:  -383.93307854999352
    Total Energy =                       -383.9330785499937519
  @DF-RHF Final Energy:  -383.93322797259515
    Total Energy =                       -383.9332279725952048
  @DF-RHF Final Energy:  -383.93323666906258
    Total Energy =                       -383.9332366690618983
  @DF-RHF Final Energy:  -383.93324362702327
    Total Energy =                       -383.9332436270227618
  @DF-RHF Final Energy:  -383.93324497521292
    Total Energy =                       -383.9332449752130287
  @DF-RHF Final Energy:  -383.93324540746192
    Total Energy =                       -383.9332454074618681
  @DF-RHF Final Energy:  -383.93324631799106
    Total Energy =                       -383.9332463179908927
  @DF-RHF Final Energy:  -383.93324746083073
    Total Energy =                       -383.9332474608305574
  @DF-RHF Final Energy:  -383.93324806120648
    Total Energy =                       -383.9332480612060863
  @DF-RHF Final Energy:  -383.93324697744634
    Total Energy =                       -383.9332469774466290
  @DF-RHF Final Energy:  -383.93324583998623
    Total Energy =                       -383.9332458399862844
  @DF-RHF Final Energy:  -383.93324484182079
    Total Energy =                       -383.9332448418206241
  @DF-RHF Final Energy:  -383.93324702695293
    Total Energy =                       -383.9332470269529267
  @DF-RHF Final Energy:  -383.93324838886076
    Total Energy =                       -383.9332483888605339
  @DF-RHF Final Energy:  -383.93324928730596
    Total Energy =                       -383.9332492873060119
  @DF-RHF Final Energy:  -383.93324982405375
    Total Energy =                       -383.9332498240536324
  @DF-RHF Final Energy:  -383.93324986719364
    Total Energy =                       -383.9332498671934673
  Basis Set: 6-31G*
  Basis Set:
  @DF-RHF Final Energy:  -383.93324984388079
    Total Energy =                       -383.9332498438803896
  Basis Set: 6-31G*
  Basis Set:
  Basis Set: 6-31G*
  Basis Set:
  @DF-RHF Final Energy:  -383.93324985333697
    Total Energy =                       -383.9332498533369744
  Basis Set: 6-31G*
  Basis Set:
  Basis Set: 6-31G*
  Basis Set:
  @DF-RHF Final Energy:  -383.93324959817591
    Total Energy =                       -383.9332495981758484
  Basis Set: 6-31G*
  Basis Set:
  Charge       = 0
  Multiplicity = 1
  Basis Set: 6-31G*
  Basis Set:

    Orbital Energies (a.u.)
    -----------------------

    Doubly Occupied:

       1A    -20.600086     2A    -20.542991     3A    -11.376271
       4A    -11.288616     5A    -11.231900     6A    -11.222696
       7A    -11.207734     8A    -11.204530     9A     -1.463444
      10A     -1.362841    11A     -1.078330    12A     -1.025875
      13A     -0.976616    14A     -0.893450    15A     -0.807847
      16A     -0.750373    17A     -0.692621    18A     -0.679261
      19A     -0.665070    20A     -0.624852    21A     -0.602269
      22A     -0.589696    23A     -0.565271    24A     -0.558371
      25A     -0.538839    26A     -0.522497    27A     -0.518183
      28A     -0.478211    29A     -0.468736    30A     -0.458386
      31A     -0.444202    32A     -0.431564

  @DF-RHF Final Energy:  -383.93324954995006

   => Energetics <=

    Nuclear Repulsion Energy =            393.1219975346081696
    One-Electron Energy =               -1302.3672341910112209
    Two-Electron Energy =                 525.3119871064532163
    DFT Exchange-Correlation Energy =       0.0000000000000000
    Empirical Dispersion Energy =           0.0000000000000000
    PCM Polarization Energy =               0.0000000000000000
    EFP Energy =                            0.0000000000000000
    Total Energy =                       -383.9332495499497782
    Molecular point group: c1
  Basis Set: 6-31G*
  Basis Set:

  -Total Gradient:
     Atom            X                  Y                   Z
    ------   -----------------  -----------------  -----------------
       1       -0.000345626658    -0.000091248279    -0.000961395114
       2        0.001416390048     0.000271798422     0.006103862292
       3        0.000040756519     0.000169551956    -0.000178221084
       4       -0.001987480366    -0.000801289535    -0.007669340748
       5       -0.000011096728     0.000018034622     0.000010203779
       6       -0.000005244107    -0.000042633343     0.000029056840
       7       -0.000198461722    -0.000104523933    -0.000100171178
       8        0.004491054724     0.004651179074     0.000837147323
       9        0.000567682035     0.000317408117     0.000834697217
      10       -0.003501245830    -0.003885636163     0.000889351537
      11        0.000122054273    -0.000065426703     0.000324801033
      12       -0.001304544491    -0.000564604711    -0.000431337140
      13        0.000413664253     0.000059091640    -0.000386395392
      14       -0.000352634522    -0.000319019471     0.000255850574
      15       -0.000049478902    -0.000216769726     0.000038206529
      16        0.000100457100     0.000074520022    -0.000058123534
      17        0.000419955431     0.000443202675     0.000443566477
      18        0.000124248795     0.000024133503    -0.000020010645
      19        0.000007458361     0.000066263928     0.000064669485
      20        0.000052091790    -0.000004032098    -0.000026418252

    Molecular point group: c1

    Geometry (in Angstrom), charge = 0, multiplicity = 1:

    O           -0.296529203488     1.440486283803    -0.339619090726
    C           -1.298626139642     0.932429741717     0.047681242300
    C           -2.513542186232     1.695313363703     0.508036322202
    O           -1.515624999389    -0.369700086795     0.108627151858
    H           -2.730039893324     1.450210939949     1.541494379515
    H           -2.333895620893     2.755429008175     0.409677358016
    H           -3.374013678888     1.406353127388    -0.084344235896
    C           -0.517245794921    -1.369647445623    -0.122823756045
    C            0.897468131537    -1.123784216676     0.417166049935
    H           -0.525565162390    -1.608286433399    -1.179496855714
    H           -0.942647444108    -2.223583229273     0.384944263460
    C            1.935306881745    -0.688798242402    -0.619434141399
    H            1.229785720135    -2.066344236632     0.847102864725
    H            0.855521559178    -0.417193103016     1.238673753041
    C            3.335410321561    -0.578527648290    -0.015166586231
    H            1.953295217678    -1.417751966167    -1.427856642168
    H            1.648199606574     0.260195296589    -1.048716176581
    H            4.063528377958    -0.291987591017    -0.767800242120
    H            3.660247585822    -1.521830393017     0.416402735879
    H            3.361852145646     0.171243506896     0.770493536076

  Mulliken Charges: (a.u.)
   Center  Symbol    Alpha    Beta     Spin     Total
       1     O     4.28351  4.28351  0.00000 -0.56703
       2     C     2.61876  2.61876  0.00000  0.76249
       3     C     3.28146  3.28146  0.00000 -0.56292
       4     O     4.31505  4.31505  0.00000 -0.63010
       5     H     0.40178  0.40178  0.00000  0.19644
       6     H     0.39782  0.39782  0.00000  0.20436
       7     H     0.40032  0.40032  0.00000  0.19935
       8     C     2.99242  2.99242  0.00000  0.01517
       9     C     3.17507  3.17507  0.00000 -0.35014
      10     H     0.41240  0.41240  0.00000  0.17521
      11     H     0.40896  0.40896  0.00000  0.18208
      12     C     3.15664  3.15664  0.00000 -0.31328
      13     H     0.41987  0.41987  0.00000  0.16026
      14     H     0.40873  0.40873  0.00000  0.18253
      15     C     3.24199  3.24199  0.00000 -0.48399
      16     H     0.42875  0.42875  0.00000  0.14249
      17     H     0.39324  0.39324  0.00000  0.21352
      18     H     0.41840  0.41840  0.00000  0.16320
      19     H     0.42533  0.42533  0.00000  0.14934
      20     H     0.41949  0.41949  0.00000  0.16101

   Total alpha = 32.00000, Total beta = 32.00000, Total charge =  0.00000
