  ==> Input File <==

--------------------------------------------------------------------------
set {
	reference rhf
	basis 6-31G*
}

set_num_threads( 1 )
memory 2 gb

molecule MOL {
0 1

H	 -3.301617	 0.570527	 0.000000
C	 -2.250981	 0.344174	 0.000000
C	 -1.813665	 -0.976045	 0.000000
C	 -1.315303	 1.358057	 0.000000
H	 -2.528860	 -1.779366	 0.000000
C	 -0.467298	 -1.270142	 0.000000
H	 -1.635074	 2.385107	 0.000000
C	 0.047081	 1.078114	 0.000000
H	 -0.115948	 -2.285222	 0.000000
C	 0.472063	 -0.241155	 0.000000
H	 0.749976	 1.888426	 0.000000
O	 1.765256	 -0.628444	 0.000000
C	 2.206356	 -1.574989	 0.929814
H	 2.077432	 -1.222036	 1.947721
H	 3.258584	 -1.720774	 0.736487
H	 1.688444	 -2.520901	 0.810018

	symmetry c1
}
set optking {
	frozen_dihedral = ("
		10 12 13 14
	")
}

ee = energy('scf')
oeprop('DIPOLE', 'QUADRUPOLE', 'MULLIKEN_CHARGES')
f=open( 'psi4out.xyz', 'w' )
f.write( "16  " )
f.write( str(ee) + "\n" )
f.write( MOL.save_string_xyz() )
f.close()
--------------------------------------------------------------------------

    Molecular point group: c1

    Geometry (in Angstrom), charge = 0, multiplicity = 1:

       Center              X                  Y                   Z               Mass
    ------------   -----------------  -----------------  -----------------  -----------------
           H         -3.218037451919     0.849606465025    -0.135847436870     1.007825032070
           C         -2.167401451919     0.623253465025    -0.135847436870    12.000000000000
           C         -1.730085451919    -0.696965534975    -0.135847436870    12.000000000000
           C         -1.231723451919     1.637136465025    -0.135847436870    12.000000000000
           H         -2.445280451919    -1.500286534975    -0.135847436870     1.007825032070
           C         -0.383718451919    -0.991062534975    -0.135847436870    12.000000000000
           H         -1.551494451919     2.664186465025    -0.135847436870     1.007825032070
           C          0.130660548081     1.357193465025    -0.135847436870    12.000000000000
           H         -0.032368451919    -2.006142534975    -0.135847436870     1.007825032070
           C          0.555642548081     0.037924465025    -0.135847436870    12.000000000000
           H          0.833555548081     2.167505465025    -0.135847436870     1.007825032070
           O          1.848835548081    -0.349364534975    -0.135847436870    15.994914619560
           C          2.289935548081    -1.295909534975     0.793966563130    12.000000000000
           H          2.161011548081    -0.942956534975     1.811873563130     1.007825032070
           H          3.342163548081    -1.441694534975     0.600639563130     1.007825032070
           H          1.772023548081    -2.241821534975     0.674170563130     1.007825032070

  Charge       = 0
  Multiplicity = 1
  Basis Set: 6-31G*
  Basis Set:

    Orbital Energies (a.u.)
    -----------------------

    Doubly Occupied:

       1A    -20.574590     2A    -11.290592     3A    -11.278286
       4A    -11.232853     5A    -11.232405     6A    -11.225149
       7A    -11.222936     8A    -11.221570     9A     -1.408480
      10A     -1.146341    11A     -1.018749    12A     -1.014385
      13A     -0.939083    14A     -0.834065    15A     -0.805042
      16A     -0.718921    17A     -0.670113    18A     -0.660007
      19A     -0.644719    20A     -0.614748    21A     -0.596094
      22A     -0.578894    23A     -0.528834    24A     -0.513900
      25A     -0.507888    26A     -0.477212    27A     -0.442449
      28A     -0.334853    29A     -0.312300

  @DF-RHF Final Energy:  -344.57508968184192

   => Energetics <=

    Nuclear Repulsion Energy =            348.5940029374433493
    One-Electron Energy =               -1158.2472172313405281
    Two-Electron Energy =                 465.0781246120557171
    DFT Exchange-Correlation Energy =       0.0000000000000000
    Empirical Dispersion Energy =           0.0000000000000000
    PCM Polarization Energy =               0.0000000000000000
    EFP Energy =                            0.0000000000000000
    Total Energy =                       -344.5750896818415185

  Mulliken Charges: (a.u.)
   Center  Symbol    Alpha    Beta     Spin     Total
       1     H     0.40024  0.40024  0.00000  0.19953
       2     C     3.10864  3.10864  0.00000 -0.21729
       3     C     3.09402  3.09402  0.00000 -0.18804
       4     C     3.09471  3.09471  0.00000 -0.18942
       5     H     0.39986  0.39986  0.00000  0.20029
       6     C     3.13459  3.13459  0.00000 -0.26917
       7     H     0.39857  0.39857  0.00000  0.20286
       8     C     3.12610  3.12610  0.00000 -0.25220
       9     H     0.39615  0.39615  0.00000  0.20770
      10     C     2.78497  2.78497  0.00000  0.43005
      11     H     0.39394  0.39394  0.00000  0.21213
      12     O     4.33249  4.33249  0.00000 -0.66497
      13     C     3.08255  3.08255  0.00000 -0.16510
      14     H     0.41997  0.41997  0.00000  0.16006
      15     H     0.40807  0.40807  0.00000  0.18387
      16     H     0.42515  0.42515  0.00000  0.14970

   Total alpha = 29.00000, Total beta = 29.00000, Total charge =  0.00000
