  ==> Input File <==

--------------------------------------------------------------------------
set {
	reference rhf
	basis 6-31G*
}

set_num_threads( 4 )
memory 2 gb

molecule MOL {
0 1

O	 0.749854	 1.307668	 -0.000040
C	 0.576249	 0.131685	 -0.000108
C	 -0.766779	 -0.556801	 -0.000461
O	 1.568443	 -0.749345	 -0.000005
C	 -1.945214	 0.412366	 0.000161
H	 -0.796911	 -1.211249	 -0.867467
H	 -0.796854	 -1.212390	 0.865687
C	 -2.336032	 0.839305	 1.414216
H	 -2.791719	 -0.053000	 -0.493262
H	 -1.691728	 1.284473	 -0.592924
H	 -2.624998	 -0.015097	 2.019979
H	 -3.175073	 1.527023	 1.392833
H	 -1.513230	 1.338181	 1.918788
C	 2.886820	 -0.232538	 0.000322
H	 3.059106	 0.369571	 -0.880203
H	 3.540187	 -1.091012	 0.000050
H	 3.059019	 0.368956	 0.881266

	symmetry c1
}
set optking {
	frozen_dihedral = ("
		9 5 3 6
	")
}

ee = optimize('scf')
oeprop('DIPOLE', 'QUADRUPOLE', 'MULLIKEN_CHARGES')
f=open( 'psi4out.xyz', 'w' )
f.write( "17  " )
f.write( str(ee) + "\n" )
f.write( MOL.save_string_xyz() )
f.close()
--------------------------------------------------------------------------

    Molecular point group: c1
  Charge       = 0
  Multiplicity = 1
  Basis Set: 6-31G*
  Basis Set:
  @DF-RHF Final Energy:  -344.90507185481169
    Total Energy =                       -344.9050718548118653
    Molecular point group: c1
  Basis Set: 6-31G*
  Basis Set:
  Basis Set: 6-31G*
  Basis Set:
  @DF-RHF Final Energy:  -344.90528899535320
    Total Energy =                       -344.9052889953530325
  Basis Set: 6-31G*
  Basis Set:
  Basis Set: 6-31G*
  Basis Set:
  @DF-RHF Final Energy:  -344.90532180146465
    Total Energy =                       -344.9053218014645381
  Basis Set: 6-31G*
  Basis Set:
  Basis Set: 6-31G*
  Basis Set:
  @DF-RHF Final Energy:  -344.90525350166814
    Total Energy =                       -344.9052535016680849
  Basis Set: 6-31G*
  Basis Set:
  Charge       = 0
  Multiplicity = 1
  Basis Set: 6-31G*
  Basis Set:

    Orbital Energies (a.u.)
    -----------------------

    Doubly Occupied:

       1A    -20.604752     2A    -20.546841     3A    -11.373659
       4A    -11.281625     5A    -11.235794     6A    -11.221260
       7A    -11.209242     8A     -1.470615     9A     -1.363973
      10A     -1.078476    11A     -1.000161    12A     -0.938400
      13A     -0.829250    14A     -0.766551    15A     -0.703034
      16A     -0.681737    17A     -0.672329    18A     -0.618268
      19A     -0.613046    20A     -0.567941    21A     -0.566814
      22A     -0.533722    23A     -0.524147    24A     -0.486807
      25A     -0.482083    26A     -0.481741    27A     -0.457213
      28A     -0.439019

  @DF-RHF Final Energy:  -344.90532615274941

   => Energetics <=

    Nuclear Repulsion Energy =            316.6899745213277697
    One-Electron Energy =               -1097.6936002357797406
    Two-Electron Energy =                 436.0982995617022198
    DFT Exchange-Correlation Energy =       0.0000000000000000
    Empirical Dispersion Energy =           0.0000000000000000
    PCM Polarization Energy =               0.0000000000000000
    EFP Energy =                            0.0000000000000000
    Total Energy =                       -344.9053261527498080
    Molecular point group: c1
  Basis Set: 6-31G*
  Basis Set:

  -Total Gradient:
     Atom            X                  Y                   Z
    ------   -----------------  -----------------  -----------------
       1        0.000016960783    -0.000009899588    -0.000001968980
       2        0.000054184159     0.000119670590    -0.000001212904
       3        0.002439290599     0.003051019630    -0.002950424800
       4       -0.000027155809    -0.000037222070     0.000009336098
       5       -0.001665026210    -0.002055151130     0.004052878962
       6       -0.001762789316    -0.002273011924     0.001806772679
       7        0.000003396147    -0.000001122291    -0.000025803395
       8       -0.000017205250     0.000011264820     0.000033956485
       9        0.000959334819     0.001237308269    -0.002912890399
      10        0.000008779664    -0.000021014088     0.000007273549
      11       -0.000021109291    -0.000030142505     0.000012208214
      12        0.000020922140    -0.000001434281    -0.000004389887
      13       -0.000002704299     0.000014201817    -0.000024419450
      14       -0.000007435055    -0.000002323666     0.000001167579
      15        0.000000640125     0.000000052486     0.000000541902
      16        0.000000108581    -0.000001864997    -0.000000913277
      17       -0.000000191791    -0.000000331073    -0.000002112376

  **** Optimization is complete! (in 5 steps) ****
    Final optimized geometry and variables:
    Molecular point group: c1

    Geometry (in Angstrom), charge = 0, multiplicity = 1:

    O            0.614897688590     1.138959961308    -0.196455249830
    C            0.438352818307    -0.036753245698    -0.213010941444
    C           -0.904372065242    -0.726846515352    -0.231654107025
    O            1.428818892250    -0.919046992887    -0.215950741414
    C           -2.099267326680     0.229401699716    -0.197955917604
    H           -0.936179932532    -1.376278639392    -1.101118661049
    H           -0.924286567240    -1.403760536232     0.618839632524
    C           -2.475244162296     0.680745133660     1.211601457540
    H           -2.944158700012    -0.252015665182    -0.681494325050
    H           -1.865936199756     1.099117526059    -0.801554774034
    H           -2.756105191016    -0.164497823304     1.834341893687
    H           -3.315051948612     1.367631879354     1.187483833591
    H           -1.644570514659     1.190749558137     1.687849323595
    C            2.748372380216    -0.405095402397    -0.200264660621
    H            2.927859255190     0.207669803253    -1.071885262731
    H            3.399839446615    -1.264986703308    -0.206983203120
    H            2.915661982668     0.184682877476     0.689467668437

  Mulliken Charges: (a.u.)
   Center  Symbol    Alpha    Beta     Spin     Total
       1     O     4.28622  4.28622  0.00000 -0.57243
       2     C     2.60784  2.60784  0.00000  0.78431
       3     C     3.20897  3.20897  0.00000 -0.41793
       4     O     4.30585  4.30585  0.00000 -0.61170
       5     C     3.15645  3.15645  0.00000 -0.31289
       6     H     0.39764  0.39764  0.00000  0.20472
       7     H     0.40049  0.40049  0.00000  0.19902
       8     C     3.24334  3.24334  0.00000 -0.48668
       9     H     0.41864  0.41864  0.00000  0.16271
      10     H     0.40383  0.40383  0.00000  0.19233
      11     H     0.42405  0.42405  0.00000  0.15190
      12     H     0.41737  0.41737  0.00000  0.16525
      13     H     0.41083  0.41083  0.00000  0.17835
      14     C     3.09236  3.09236  0.00000 -0.18471
      15     H     0.40888  0.40888  0.00000  0.18224
      16     H     0.40828  0.40828  0.00000  0.18344
      17     H     0.40896  0.40896  0.00000  0.18207

   Total alpha = 28.00000, Total beta = 28.00000, Total charge = -0.00000
