  ==> Input File <==

--------------------------------------------------------------------------
set {
	reference rhf
	basis 6-31G*
}

set_num_threads( 4 )
memory 2 gb

molecule MOL {
0 1

H	 -0.905015	 2.434068	 0.005303
C	 -0.784059	 1.368813	 0.002846
C	 -1.912272	 0.483010	 -0.000595
C	 0.436865	 0.818574	 0.002913
H	 -2.906158	 0.894390	 -0.000721
C	 -1.735928	 -0.846034	 -0.003650
H	 1.331825	 1.411401	 0.005370
N	 0.640212	 -0.532897	 -0.000111
H	 -2.555010	 -1.538458	 -0.006287
C	 -0.407252	 -1.444535	 -0.003623
C	 2.010177	 -1.032049	 0.000042
O	 -0.206531	 -2.633614	 -0.006418
H	 2.187698	 -1.635381	 -0.882279
H	 2.677579	 -0.189247	 -0.001871
H	 2.188882	 -1.632203	 0.884288

	symmetry c1
}
set optking {
	frozen_dihedral = ("
		10 8 11 13
	")
}

ee = optimize('scf')
oeprop('DIPOLE', 'QUADRUPOLE', 'MULLIKEN_CHARGES')
f=open( 'psi4out.xyz', 'w' )
f.write( "15  " )
f.write( str(ee) + "\n" )
f.write( MOL.save_string_xyz() )
f.close()
--------------------------------------------------------------------------

    Molecular point group: c1
  Charge       = 0
  Multiplicity = 1
  Basis Set: 6-31G*
  Basis Set:
  @DF-RHF Final Energy:  -360.59603593711756
    Total Energy =                       -360.5960359371176764
    Molecular point group: c1
  Basis Set: 6-31G*
  Basis Set:
  Basis Set: 6-31G*
  Basis Set:
  @DF-RHF Final Energy:  -360.59673477382819
    Total Energy =                       -360.5967347738281319
  Basis Set: 6-31G*
  Basis Set:
  Basis Set: 6-31G*
  Basis Set:
  @DF-RHF Final Energy:  -360.59680877792124
    Total Energy =                       -360.5968087779212965
  Basis Set: 6-31G*
  Basis Set:
  Basis Set: 6-31G*
  Basis Set:
  @DF-RHF Final Energy:  -360.59681167469301
    Total Energy =                       -360.5968116746932424
  Basis Set: 6-31G*
  Basis Set:
  Charge       = 0
  Multiplicity = 1
  Basis Set: 6-31G*
  Basis Set:

    Orbital Energies (a.u.)
    -----------------------

    Doubly Occupied:

       1A    -20.508932     2A    -15.622610     3A    -11.341346
       4A    -11.298310     5A    -11.267042     6A    -11.260436
       7A    -11.232666     8A    -11.228718     9A     -1.385337
      10A     -1.281140    11A     -1.114915    12A     -1.026431
      13A     -0.970322    14A     -0.873057    15A     -0.835859
      16A     -0.716157    17A     -0.697373    18A     -0.661448
      19A     -0.648772    20A     -0.623025    21A     -0.606522
      22A     -0.573531    23A     -0.548204    24A     -0.547073
      25A     -0.528205    26A     -0.478196    27A     -0.413828
      28A     -0.405977    29A     -0.304314

  @DF-RHF Final Energy:  -360.59681192221433

   => Energetics <=

    Nuclear Repulsion Energy =            358.0549953633419591
    One-Electron Energy =               -1199.3041252992998125
    Two-Electron Energy =                 480.6523180137433542
    DFT Exchange-Correlation Energy =       0.0000000000000000
    Empirical Dispersion Energy =           0.0000000000000000
    PCM Polarization Energy =               0.0000000000000000
    EFP Energy =                            0.0000000000000000
    Total Energy =                       -360.5968119222144992
    Molecular point group: c1
  Basis Set: 6-31G*
  Basis Set:

  -Total Gradient:
     Atom            X                  Y                   Z
    ------   -----------------  -----------------  -----------------
       1       -0.000012018970     0.000007021695    -0.000002975885
       2        0.000015417077    -0.000005196878    -0.000001785996
       3        0.000004749710    -0.000009043294     0.000000411725
       4       -0.000035764023     0.000006802975    -0.000009045443
       5        0.000011368766     0.000025180429     0.000008436073
       6       -0.000024371946    -0.000019003619    -0.000082783555
       7        0.000012537847    -0.000009158303    -0.000001363175
       8       -0.000012437495    -0.000046768922    -0.000093961952
       9        0.000017613057    -0.000001541180    -0.000004497964
      10        0.000016649281     0.000087589022     0.000290665582
      11       -0.000016874942     0.000008243746     0.000025202325
      12        0.000012317710    -0.000048915785    -0.000113777927
      13        0.000012260994     0.000011901523    -0.000025965768
      14       -0.000001049579    -0.000008337738    -0.000001539249
      15       -0.000000397486     0.000001226331     0.000012981210

  **** Optimization is complete! (in 5 steps) ****
    Final optimized geometry and variables:
    Molecular point group: c1

    Geometry (in Angstrom), charge = 0, multiplicity = 1:

    H           -0.744868191761     2.960158893621     0.003415587355
    C           -0.611452564967     1.896471032775     0.002217755144
    C           -1.729093227502     0.999347340875     0.000260078012
    C            0.618358822158     1.362333687513     0.002420733036
    H           -2.726647677004     1.401737503032    -0.000059612010
    C           -1.541072202662    -0.329319595433    -0.001335727479
    H            1.503583024052     1.968011154839     0.003735307444
    N            0.831789324403     0.014565445908     0.000956633531
    H           -2.353166440388    -1.030090711378    -0.003066504674
    C           -0.205436591561    -0.906079294859    -0.000931432169
    C            2.182487169283    -0.532224591334     0.000745566076
    O            0.032562937270    -2.088538452461    -0.003759812347
    H            2.337160784033    -1.140572213585    -0.878702993763
    H            2.892228727806     0.282435524902     0.007776409616
    H            2.332405500886    -1.151733831521     0.873071920597

  Mulliken Charges: (a.u.)
   Center  Symbol    Alpha    Beta     Spin     Total
       1     H     0.39311  0.39311  0.00000  0.21378
       2     C     3.16257  3.16257  0.00000 -0.32513
       3     C     3.05814  3.05814  0.00000 -0.11629
       4     C     2.92162  2.92162  0.00000  0.15677
       5     H     0.39092  0.39092  0.00000  0.21815
       6     C     3.16984  3.16984  0.00000 -0.33967
       7     H     0.38729  0.38729  0.00000  0.22542
       8     N     3.86274  3.86274  0.00000 -0.72547
       9     H     0.38649  0.38649  0.00000  0.22702
      10     C     2.59738  2.59738  0.00000  0.80524
      11     C     3.13861  3.13861  0.00000 -0.27722
      12     O     4.32155  4.32155  0.00000 -0.64311
      13     H     0.39696  0.39696  0.00000  0.20609
      14     H     0.41606  0.41606  0.00000  0.16789
      15     H     0.39672  0.39672  0.00000  0.20655

   Total alpha = 29.00000, Total beta = 29.00000, Total charge =  0.00000
