                              Psi4 1.0.54 Driver

  ==> Input File <==

--------------------------------------------------------------------------
set {
	reference rhf
	basis cc-pvtz
}

set_num_threads( 4 )
memory 2 gb

molecule MOL {
0 1

H	 -3.294565	 0.569785	 0.000000
C	 -2.246225	 0.343737	 0.000000
C	 -1.809462	 -0.973484	 0.000000
C	 -1.312577	 1.353775	 0.000000
H	 -2.523539	 -1.775124	 0.000000
C	 -0.467257	 -1.267606	 0.000000
H	 -1.631287	 2.379013	 0.000000
C	 0.046966	 1.074396	 0.000000
H	 -0.119372	 -2.281828	 0.000000
C	 0.471772	 -0.241514	 0.000000
H	 0.748162	 1.882966	 0.000000
O	 1.760432	 -0.625184	 0.000000
C	 2.255979	 -1.403573	 1.047236
H	 2.177906	 -0.887701	 1.997756
H	 3.297004	 -1.581634	 0.828309
H	 1.740924	 -2.355424	 1.113606

	symmetry c1
}
set optking {
	frozen_dihedral = ("
		13 12 10 8
	")
}

ee,wfn = optimize('scf', return_wfn=True)
oeprop( wfn, 'DIPOLE', 'QUADRUPOLE', 'MULLIKEN_CHARGES')
f=open( 'psi4out.xyz', 'w' )
f.write( "16  " )
f.write( str(ee) + "\n" )
f.write( MOL.save_string_xyz() )
f.close()
--------------------------------------------------------------------------

    Molecular point group: c1
  Charge       = 0
  Multiplicity = 1
  Basis Set: CC-PVTZ
  Basis Set:
  @DF-RHF Final Energy:  -344.69719167367157
    Total Energy =                       -344.6971916736717958
    Molecular point group: c1
  Basis Set: CC-PVTZ
  Basis Set:
  Basis Set: CC-PVTZ
  Basis Set:
  @DF-RHF Final Energy:  -344.70005147188840
    Total Energy =                       -344.7000514718882869
  Basis Set: CC-PVTZ
  Basis Set:
  Basis Set: CC-PVTZ
  Basis Set:
  @DF-RHF Final Energy:  -344.70092427570478
    Total Energy =                       -344.7009242757046650
  Basis Set: CC-PVTZ
  Basis Set:
  Basis Set: CC-PVTZ
  Basis Set:
  @DF-RHF Final Energy:  -344.70097993201279
    Total Energy =                       -344.7009799320131265
  Basis Set: CC-PVTZ
  Basis Set:
  Basis Set: CC-PVTZ
  Basis Set:
  @DF-RHF Final Energy:  -344.70099198320668
    Total Energy =                       -344.7009919832065634
  Basis Set: CC-PVTZ
  Basis Set:
  Charge       = 0
  Multiplicity = 1
  Basis Set: CC-PVTZ
  Basis Set:

    Orbital Energies (a.u.)
    -----------------------

    Doubly Occupied:

       1A    -20.568954     2A    -11.287219     3A    -11.274910
       4A    -11.232231     5A    -11.231204     6A    -11.224658
       7A    -11.222674     8A    -11.221867     9A     -1.407213
      10A     -1.152662    11A     -1.022210    12A     -1.018571
      13A     -0.937225    14A     -0.838079    15A     -0.809914
      16A     -0.719874    17A     -0.669593    18A     -0.667254
      19A     -0.643759    20A     -0.616603    21A     -0.597901
      22A     -0.586720    23A     -0.532457    24A     -0.512449
      25A     -0.508802    26A     -0.487419    27A     -0.445517
      28A     -0.340244    29A     -0.322074

  @DF-RHF Final Energy:  -344.70099340683089

   => Energetics <=

    Nuclear Repulsion Energy =            348.6517686949533754
    One-Electron Energy =               -1158.5050078936064892
    Two-Electron Energy =                 465.1522457918221676
    DFT Exchange-Correlation Energy =       0.0000000000000000
    Empirical Dispersion Energy =           0.0000000000000000
    PCM Polarization Energy =               0.0000000000000000
    EFP Energy =                            0.0000000000000000
    Total Energy =                       -344.7009934068309462
    Molecular point group: c1
  Basis Set: CC-PVTZ
  Basis Set:

  -Total Gradient:
     Atom            X                  Y                   Z
    ------   -----------------  -----------------  -----------------
       1       -0.000021027437    -0.000029443802     0.000006142673
       2        0.000058521261     0.000118968876     0.000043041938
       3        0.000054372896    -0.000074277320    -0.000055969008
       4       -0.000068112639    -0.000034596408    -0.000049672047
       5       -0.000031202435     0.000007280429     0.000004007353
       6        0.000016911659    -0.000063324208     0.000017418657
       7        0.000015394282     0.000002393839     0.000008812749
       8        0.000002329804    -0.000015255844     0.000066018222
       9       -0.000005768911    -0.000008217774     0.000005255922
      10       -0.000091529963     0.000171633268    -0.000025019975
      11        0.000028992293    -0.000010386466     0.000006722147
      12        0.000066286786    -0.000160133566    -0.000058151197
      13       -0.000032965308     0.000095763531     0.000111104031
      14        0.000010259122    -0.000003667039    -0.000012728192
      15        0.000011206854     0.000012070434    -0.000023895864
      16       -0.000013668261    -0.000008807952    -0.000043087410

  **** Optimization is complete! (in 6 steps) ****
    Final optimized geometry and variables:
    Molecular point group: c1

    Geometry (in Angstrom), charge = 0, multiplicity = 1:

    H           -3.150129168870     1.043411950382    -0.276666692506
    C           -2.124487269072     0.732256598454    -0.231241933996
    C           -1.801262404125    -0.610932000295    -0.273410364841
    C           -1.113578461628     1.669532888082    -0.136958718992
    H           -2.578219994973    -1.347030815275    -0.356414615216
    C           -0.482353700962    -1.019102190148    -0.220225974835
    H           -1.351822928215     2.715799686154    -0.107944166671
    C            0.207873196261     1.270639791690    -0.075649002850
    H           -0.236288297970    -2.061531184096    -0.273805280185
    C            0.523974291653    -0.074443748244    -0.115943378638
    H            1.001860923644     1.988095443377    -0.005163919435
    O            1.834192532211    -0.426666061586    -0.100030916840
    C            2.270220991886    -1.232639974691     0.961324389228
    H            2.058430857938    -0.763491851614     1.916044426729
    H            3.337604329730    -1.346216371977     0.848134545395
    H            1.809202330695    -2.212763286067     0.940057219193

  Mulliken Charges: (a.u.)
   Center  Symbol    Alpha    Beta     Spin     Total
       1     H     0.42370  0.42370  0.00000  0.15261
       2     C     3.09037  3.09037  0.00000 -0.18074
       3     C     3.06691  3.06691  0.00000 -0.13382
       4     C     3.06387  3.06387  0.00000 -0.12773
       5     H     0.42244  0.42244  0.00000  0.15512
       6     C     3.11829  3.11829  0.00000 -0.23658
       7     H     0.42224  0.42224  0.00000  0.15552
       8     C     3.11266  3.11266  0.00000 -0.22532
       9     H     0.42190  0.42190  0.00000  0.15620
      10     C     2.85483  2.85483  0.00000  0.29034
      11     H     0.41782  0.41782  0.00000  0.16435
      12     O     4.17547  4.17547  0.00000 -0.35094
      13     C     3.03521  3.03521  0.00000 -0.07041
      14     H     0.46512  0.46512  0.00000  0.06976
      15     H     0.44416  0.44416  0.00000  0.11168
      16     H     0.46501  0.46501  0.00000  0.06998

   Total alpha = 29.00000, Total beta = 29.00000, Total charge = -0.00000

*** Psi4 exiting successfully. Buy a developer a beer!
