  ==> Input File <==

--------------------------------------------------------------------------
set {
	reference rhf
	basis cc-pvtz
}

set_num_threads( 4 )
memory 2 gb

molecule MOL {
0 1

H	 -0.055083	 3.048724	 -0.083355
C	 0.603802	 2.190378	 0.106251
C	 0.062554	 0.862911	 -0.350953
O	 1.652588	 2.353136	 0.626551
C	 -1.339253	 0.577611	 0.196911
H	 0.764509	 0.088855	 -0.068835
H	 0.021481	 0.899499	 -1.437253
C	 -1.813142	 -0.849710	 -0.061612
H	 -2.032833	 1.276441	 -0.256032
H	 -1.357249	 0.782269	 1.263793
H	 -1.839268	 -1.063526	 -1.124230
H	 -2.810118	 -1.001930	 0.334000
H	 -1.159274	 -1.579980	 0.402282

	symmetry c1
}
set optking {
	frozen_dihedral = ("
		6 3 5 9
	")
}

ee = optimize('scf')
oeprop('DIPOLE', 'QUADRUPOLE', 'MULLIKEN_CHARGES')
f=open( 'psi4out.xyz', 'w' )
f.write( "13  " )
f.write( str(ee) + "\n" )
f.write( MOL.save_string_xyz() )
f.close()
--------------------------------------------------------------------------

    Molecular point group: c1
  Charge       = 0
  Multiplicity = 1
  Basis Set: CC-PVTZ
  Basis Set:
  @DF-RHF Final Energy:  -231.07062115793036
    Total Energy =                       -231.0706211579303044
    Molecular point group: c1
  Basis Set: CC-PVTZ
  Basis Set:
  Basis Set: CC-PVTZ
  Basis Set:
  @DF-RHF Final Energy:  -231.07065208163218
    Total Energy =                       -231.0706520816322893
  Basis Set: CC-PVTZ
  Basis Set:
  Basis Set: CC-PVTZ
  Basis Set:
  @DF-RHF Final Energy:  -231.07064228508528
    Total Energy =                       -231.0706422850852562
  Basis Set: CC-PVTZ
  Basis Set:
  Basis Set: CC-PVTZ
  Basis Set:
  @DF-RHF Final Energy:  -231.07081523594064
    Total Energy =                       -231.0708152359407279
  Basis Set: CC-PVTZ
  Basis Set:
  Basis Set: CC-PVTZ
  Basis Set:
  @DF-RHF Final Energy:  -231.07081891027170
    Total Energy =                       -231.0708189102717256
  Basis Set: CC-PVTZ
  Basis Set:
  Charge       = 0
  Multiplicity = 1
  Basis Set: CC-PVTZ
  Basis Set:

    Orbital Energies (a.u.)
    -----------------------

    Doubly Occupied:

       1A    -20.552351     2A    -11.321832     3A    -11.237514
       4A    -11.234680     5A    -11.222097     6A     -1.407139
       7A     -1.088463     8A     -0.977496     9A     -0.840049
      10A     -0.795276    11A     -0.679844    12A     -0.642579
      13A     -0.638118    14A     -0.588762    15A     -0.557193
      16A     -0.535983    17A     -0.514278    18A     -0.493688
      19A     -0.485390    20A     -0.413095

  @DF-RHF Final Energy:  -231.07081970383030

   => Energetics <=

    Nuclear Repulsion Energy =            170.8178501260568396
    One-Electron Energy =                -651.3256823933604664
    Two-Electron Energy =                 249.4370125634733029
    DFT Exchange-Correlation Energy =       0.0000000000000000
    Empirical Dispersion Energy =           0.0000000000000000
    PCM Polarization Energy =               0.0000000000000000
    EFP Energy =                            0.0000000000000000
    Total Energy =                       -231.0708197038303240
    Molecular point group: c1
  Basis Set: CC-PVTZ
  Basis Set:

  -Total Gradient:
     Atom            X                  Y                   Z
    ------   -----------------  -----------------  -----------------
       1       -0.000000241546    -0.000011400812    -0.000011980944
       2        0.000001763433    -0.000026134674     0.000064001898
       3        0.000469374000     0.001131844227     0.001931897456
       4        0.000012212961     0.000005862282    -0.000036937911
       5        0.000379777282     0.001460867260     0.001534134237
       6       -0.000512166060    -0.001120142157    -0.001819853410
       7        0.000024342144     0.000003366221    -0.000038217671
       8       -0.000008971604    -0.000032859385    -0.000008297356
       9       -0.000342038443    -0.001409849875    -0.001595153834
      10       -0.000010454050     0.000021572838    -0.000015249777
      11        0.000003458553    -0.000008180757    -0.000001248503
      12       -0.000009055674    -0.000008085898    -0.000008680788
      13       -0.000008000996    -0.000006859268     0.000005586602

  **** Optimization is complete! (in 6 steps) ****
    Final optimized geometry and variables:
    Molecular point group: c1

    Geometry (in Angstrom), charge = 0, multiplicity = 1:

    H            0.114987224392     2.026242657684    -0.215757587307
    C            0.768610820148     1.167613591357    -0.012764386076
    C            0.226576859454    -0.164087143370    -0.449522114229
    O            1.813814646298     1.331724639722     0.514806145596
    C           -1.174768479011    -0.435749069074     0.106231392005
    H            0.923744030072    -0.941107126929    -0.164307688649
    H            0.181091768450    -0.153700960056    -1.537024718029
    C           -1.639874569347    -1.860646491958    -0.176616819590
    H           -1.880530784393     0.258016856542    -0.339864334643
    H           -1.185692709550    -0.257700596245     1.176780132662
    H           -1.653948697612    -2.062396633815    -1.242350922146
    H           -2.640131746133    -2.025122215833     0.205519100983
    H           -0.982130401430    -2.585697383040     0.289092290910

  Mulliken Charges: (a.u.)
   Center  Symbol    Alpha    Beta     Spin     Total
       1     H     0.46538  0.46538  0.00000  0.06924
       2     C     2.90851  2.90851  0.00000  0.18298
       3     C     3.07767  3.07767  0.00000 -0.15535
       4     O     4.16356  4.16356  0.00000 -0.32712
       5     C     3.09543  3.09543  0.00000 -0.19086
       6     H     0.44321  0.44321  0.00000  0.11359
       7     H     0.45004  0.45004  0.00000  0.09993
       8     C     3.14716  3.14716  0.00000 -0.29432
       9     H     0.45108  0.45108  0.00000  0.09783
      10     H     0.44722  0.44722  0.00000  0.10557
      11     H     0.45399  0.45399  0.00000  0.09203
      12     H     0.44579  0.44579  0.00000  0.10842
      13     H     0.45097  0.45097  0.00000  0.09806

   Total alpha = 20.00000, Total beta = 20.00000, Total charge = -0.00000
