                              Psi4 1.0.54 Driver

  ==> Input File <==

--------------------------------------------------------------------------
set {
	reference rhf
	basis cc-pvtz
}

set_num_threads( 4 )
memory 2 gb

molecule MOL {
0 1

O	 1.200576	 1.406723	 -0.119776
C	 0.860843	 0.273204	 -0.013120
C	 -0.623368	 -0.117453	 -0.005652
C	 1.907092	 -0.814972	 0.125659
C	 -0.892588	 -1.253841	 -1.002900
C	 -1.473463	 1.100646	 -0.372896
C	 -0.981836	 -0.579025	 1.418506
H	 -0.609333	 -0.970024	 -2.010649
H	 -1.950451	 -1.487353	 -1.013175
H	 -0.360848	 -2.161259	 -0.746463
H	 -1.232203	 1.461623	 -1.364827
H	 -2.524364	 0.834451	 -0.354500
H	 -1.312381	 1.914833	 0.318657
H	 -2.035706	 -0.826342	 1.468082
H	 -0.425078	 -1.458934	 1.716857
H	 -0.788494	 0.205047	 2.140903
H	 2.029986	 -1.314557	 -0.828844
H	 2.845900	 -0.360405	 0.402204
H	 1.631273	 -1.565684	 0.853386

	symmetry c1
}
set optking {
	frozen_dihedral = ("
		1 2 3 5
	")
}

ee,wfn = optimize('scf', return_wfn=True)
oeprop( wfn, 'DIPOLE', 'QUADRUPOLE', 'MULLIKEN_CHARGES')
f=open( 'psi4out.xyz', 'w' )
f.write( "19  " )
f.write( str(ee) + "\n" )
f.write( MOL.save_string_xyz() )
f.close()
--------------------------------------------------------------------------

    Molecular point group: c1
  Charge       = 0
  Multiplicity = 1
  Basis Set: CC-PVTZ
  Basis Set:
  @DF-RHF Final Energy:  -309.17415443289815
    Total Energy =                       -309.1741544328981490
    Molecular point group: c1
  Basis Set: CC-PVTZ
  Basis Set:
  Basis Set: CC-PVTZ
  Basis Set:
  @DF-RHF Final Energy:  -309.17002238033137
    Total Energy =                       -309.1700223803309768
  Basis Set: CC-PVTZ
  Basis Set:
  Basis Set: CC-PVTZ
  Basis Set:
  @DF-RHF Final Energy:  -309.17323915933918
    Total Energy =                       -309.1732391593392322
  Basis Set: CC-PVTZ
  Basis Set:
  Basis Set: CC-PVTZ
  Basis Set:
  @DF-RHF Final Energy:  -309.17421819324591
    Total Energy =                       -309.1742181932460767
  Basis Set: CC-PVTZ
  Basis Set:
  @DF-RHF Final Energy:  -309.17419265504236
    Total Energy =                       -309.1741926550421908
  @DF-RHF Final Energy:  -309.17396360680340
    Total Energy =                       -309.1739636068033974
  Basis Set: CC-PVTZ
  Basis Set:
  @DF-RHF Final Energy:  -309.17418402736041
    Total Energy =                       -309.1741840273603543
  Basis Set: CC-PVTZ
  Basis Set:
  Basis Set: CC-PVTZ
  Basis Set:
  @DF-RHF Final Energy:  -309.17418678982239
    Total Energy =                       -309.1741867898223290
  Basis Set: CC-PVTZ
  Basis Set:
  Basis Set: CC-PVTZ
  Basis Set:
  @DF-RHF Final Energy:  -309.17424061219879
    Total Energy =                       -309.1742406121987301
  Basis Set: CC-PVTZ
  Basis Set:
  Charge       = 0
  Multiplicity = 1
  Basis Set: CC-PVTZ
  Basis Set:

    Orbital Energies (a.u.)
    -----------------------

    Doubly Occupied:

       1A    -20.537417     2A    -11.317727     3A    -11.245731
       4A    -11.225046     5A    -11.222539     6A    -11.222453
       7A    -11.206228     8A     -1.398463     9A     -1.110957
      10A     -1.002876    11A     -0.948105    12A     -0.935476
      13A     -0.835936    14A     -0.705387    15A     -0.666699
      16A     -0.633912    17A     -0.621254    18A     -0.600235
      19A     -0.593552    20A     -0.565574    21A     -0.546668
      22A     -0.544631    23A     -0.523795    24A     -0.514823
      25A     -0.501537    26A     -0.472377    27A     -0.469172
      28A     -0.394932

  @DF-RHF Final Energy:  -309.17423995371882

   => Energetics <=

    Nuclear Repulsion Energy =            326.8885558126130491
    One-Electron Energy =               -1066.9985893585198937
    Two-Electron Energy =                 430.9357935921878493
    DFT Exchange-Correlation Energy =       0.0000000000000000
    Empirical Dispersion Energy =           0.0000000000000000
    PCM Polarization Energy =               0.0000000000000000
    EFP Energy =                            0.0000000000000000
    Total Energy =                       -309.1742399537189954
    Molecular point group: c1
  Basis Set: CC-PVTZ
  Basis Set:

  -Total Gradient:
     Atom            X                  Y                   Z
    ------   -----------------  -----------------  -----------------
       1       -0.000099104863     0.000019000602    -0.000538691297
       2        0.000123133684     0.000018074916     0.000842008856
       3        0.000105565706    -0.000298033568     0.000054084784
       4       -0.000049173941     0.000050583633    -0.000084554227
       5       -0.000042726569     0.000303114552    -0.000071426124
       6        0.000061401373    -0.000070047765    -0.000077462325
       7        0.000125918589     0.000005194337    -0.000103232786
       8        0.000092163352     0.000111661706    -0.000210036448
       9       -0.000227039306    -0.000047636761     0.000014756039
      10        0.000138249098    -0.000211002532     0.000066213010
      11       -0.000012802809     0.000048354991    -0.000192670895
      12       -0.000259692017    -0.000058196729     0.000142775378
      13        0.000058303499     0.000255031285     0.000129431965
      14       -0.000038365315     0.000008958277    -0.000025156769
      15        0.000057533962    -0.000077829038     0.000011360426
      16        0.000017297465    -0.000014360175    -0.000039079845
      17        0.000006114025    -0.000021423415     0.000030582073
      18        0.000012234925     0.000021470878     0.000001299807
      19       -0.000069010858    -0.000042915190     0.000049798377

  **** Optimization is complete! (in 10 steps) ****
    Final optimized geometry and variables:
    Molecular point group: c1

    Geometry (in Angstrom), charge = 0, multiplicity = 1:

    O            1.067536026955     1.503279923721    -0.195814375674
    C            0.830144745580     0.344374582312    -0.085284533091
    C           -0.609708268188    -0.167907533494     0.052817407274
    C            1.967802628654    -0.658068545344    -0.096564145637
    C           -0.864498580695    -1.304968345844    -0.948513663151
    C           -1.587156570463     0.979069265006    -0.213281219679
    C           -0.807995296611    -0.682807853137     1.489234102878
    H           -0.688345810275    -0.978130600848    -1.967854200559
    H           -1.896727980784    -1.627964320271    -0.880136724124
    H           -0.238614708788    -2.168141434466    -0.757967610052
    H           -1.472404853675     1.367036257850    -1.217500631941
    H           -2.606617726446     0.627208982260    -0.097738357135
    H           -1.426934099658     1.799020567938     0.472827546205
    H           -1.835242641194    -1.000370073634     1.623954112010
    H           -0.172285146956    -1.529806411546     1.714986515548
    H           -0.603474929854     0.096706365983     2.213913234318
    H            2.053177919337    -1.081618720193    -1.091192852956
    H            2.886650310557    -0.142458178691     0.137228948479
    H            1.815359523822    -1.474778559356     0.594786807750

  Mulliken Charges: (a.u.)
   Center  Symbol    Alpha    Beta     Spin     Total
       1     O     4.17483  4.17483  0.00000 -0.34967
       2     C     2.85388  2.85388  0.00000  0.29223
       3     C     3.00897  3.00897  0.00000 -0.01794
       4     C     3.16269  3.16269  0.00000 -0.32537
       5     C     3.16350  3.16350  0.00000 -0.32701
       6     C     3.14967  3.14967  0.00000 -0.29934
       7     C     3.15990  3.15990  0.00000 -0.31980
       8     H     0.44281  0.44281  0.00000  0.11438
       9     H     0.44295  0.44295  0.00000  0.11410
      10     H     0.44597  0.44597  0.00000  0.10805
      11     H     0.44566  0.44566  0.00000  0.10868
      12     H     0.45214  0.45214  0.00000  0.09573
      13     H     0.44049  0.44049  0.00000  0.11902
      14     H     0.44493  0.44493  0.00000  0.11015
      15     H     0.44586  0.44586  0.00000  0.10827
      16     H     0.44195  0.44195  0.00000  0.11611
      17     H     0.44516  0.44516  0.00000  0.10969
      18     H     0.43181  0.43181  0.00000  0.13637
      19     H     0.44682  0.44682  0.00000  0.10635

   Total alpha = 28.00000, Total beta = 28.00000, Total charge = -0.00000

*** Psi4 exiting successfully. Buy a developer a beer!
