                              Psi4 1.0.54 Driver

  ==> Input File <==

--------------------------------------------------------------------------
set {
	reference rhf
	basis cc-pvtz
}

set_num_threads( 4 )
memory 2 gb

molecule MOL {
0 1

H	 2.440616	 -0.848144	 0.842869
O	 2.012307	 -0.863440	 0.000222
C	 1.050374	 0.054877	 0.000135
C	 -0.318151	 -0.570512	 0.000144
O	 1.286319	 1.213453	 -0.000040
C	 -1.454884	 0.441630	 -0.000560
H	 -0.371613	 -1.223646	 -0.864985
H	 -0.371920	 -1.222758	 0.865929
C	 -2.822577	 -0.232186	 0.000063
H	 -1.359760	 1.084704	 -0.867077
H	 -1.359641	 1.085996	 0.864983
H	 -2.954352	 -0.858985	 -0.875745
H	 -3.615886	 0.505352	 0.000019
H	 -2.953878	 -0.858359	 0.876394

	symmetry c1
}
set optking {
	frozen_dihedral = ("
		1 2 3 5
	")
}

ee,wfn = optimize('scf', return_wfn=True)
oeprop( wfn, 'DIPOLE', 'QUADRUPOLE', 'MULLIKEN_CHARGES')
f=open( 'psi4out.xyz', 'w' )
f.write( "14  " )
f.write( str(ee) + "\n" )
f.write( MOL.save_string_xyz() )
f.close()
--------------------------------------------------------------------------

    Molecular point group: c1
  Charge       = 0
  Multiplicity = 1
  Basis Set: CC-PVTZ
  Basis Set:
  @DF-RHF Final Energy:  -305.98291607595456
    Total Energy =                       -305.9829160759545630
    Molecular point group: c1
  Basis Set: CC-PVTZ
  Basis Set:
  Basis Set: CC-PVTZ
  Basis Set:
  @DF-RHF Final Energy:  -305.98129437545583
    Total Energy =                       -305.9812943754558319
  Basis Set: CC-PVTZ
  Basis Set:
  Basis Set: CC-PVTZ
  Basis Set:
  @DF-RHF Final Energy:  -305.98414892951155
    Total Energy =                       -305.9841489295115480
  Basis Set: CC-PVTZ
  Basis Set:
  Basis Set: CC-PVTZ
  Basis Set:
  @DF-RHF Final Energy:  -305.98444011775405
    Total Energy =                       -305.9844401177542181
  Basis Set: CC-PVTZ
  Basis Set:
  Basis Set: CC-PVTZ
  Basis Set:
  @DF-RHF Final Energy:  -305.98444709728994
    Total Energy =                       -305.9844470972898307
  Basis Set: CC-PVTZ
  Basis Set:
  Basis Set: CC-PVTZ
  Basis Set:
  @DF-RHF Final Energy:  -305.98444835413051
    Total Energy =                       -305.9844483541304498
  Basis Set: CC-PVTZ
  Basis Set:
  Basis Set: CC-PVTZ
  Basis Set:
  @DF-RHF Final Energy:  -305.98444750851206
    Total Energy =                       -305.9844475085124031
  Basis Set: CC-PVTZ
  Basis Set:
  Charge       = 0
  Multiplicity = 1
  Basis Set: CC-PVTZ
  Basis Set:

    Orbital Energies (a.u.)
    -----------------------

    Doubly Occupied:

       1A    -20.588607     2A    -20.549774     3A    -11.374596
       4A    -11.240510     5A    -11.224517     6A    -11.216304
       7A     -1.465292     8A     -1.370634     9A     -1.084089
      10A     -0.978435    11A     -0.854804    12A     -0.796619
      13A     -0.710938    14A     -0.682287    15A     -0.665445
      16A     -0.630825    17A     -0.579523    18A     -0.562289
      19A     -0.545802    20A     -0.508645    21A     -0.497945
      22A     -0.484035    23A     -0.483737    24A     -0.447658

  @DF-RHF Final Energy:  -305.98444773310621

   => Energetics <=

    Nuclear Repulsion Energy =            239.7361360295790291
    One-Electron Energy =                -892.3545433242622948
    Two-Electron Energy =                 346.6339595615769440
    DFT Exchange-Correlation Energy =       0.0000000000000000
    Empirical Dispersion Energy =           0.0000000000000000
    PCM Polarization Energy =               0.0000000000000000
    EFP Energy =                            0.0000000000000000
    Total Energy =                       -305.9844477331063217
    Molecular point group: c1
  Basis Set: CC-PVTZ
  Basis Set:

  -Total Gradient:
     Atom            X                  Y                   Z
    ------   -----------------  -----------------  -----------------
       1       -0.004999605400    -0.005683422107     0.003207891971
       2        0.005897036328     0.007250306221    -0.007161436882
       3       -0.000205015546    -0.001509907275     0.010740626596
       4        0.000057719762    -0.000037710917     0.000208529204
       5       -0.000698765490    -0.000053556095    -0.006963068859
       6       -0.000019079813    -0.000030764434    -0.000022689412
       7        0.000012133079     0.000014981809    -0.000007110033
       8        0.000007855605     0.000022657121    -0.000016864372
       9       -0.000033016307     0.000030136222     0.000006984256
      10       -0.000002969010    -0.000001606447     0.000004846262
      11       -0.000006457841     0.000002224390     0.000002796977
      12        0.000005360045     0.000003784221     0.000001054594
      13       -0.000018086603    -0.000008029526     0.000000694741
      14        0.000002891195     0.000000906819    -0.000002255043

  **** Optimization is complete! (in 8 steps) ****
    Final optimized geometry and variables:
    Molecular point group: c1

    Geometry (in Angstrom), charge = 0, multiplicity = 1:

    H            2.574370148207    -0.897653480714     0.659260193808
    O            2.037409526002    -0.862670796299    -0.115239624380
    C            1.053258306040     0.063184924213     0.003983144749
    C           -0.317396246921    -0.556975100230     0.018291016049
    O            1.280718005889     1.216230794441     0.007239491581
    C           -1.458964239014     0.449033215565     0.019659056752
    H           -0.371247757548    -1.218247210377    -0.840840859331
    H           -0.364368265570    -1.207698231103     0.887287101327
    C           -2.824377503290    -0.229548787187     0.031534291465
    H           -1.371116722872     1.087557546348    -0.851135176405
    H           -1.361847644008     1.099195198373     0.880905753171
    H           -2.958380938921    -0.861592509409    -0.840069555485
    H           -3.620634813716     0.504806568315     0.031878984471
    H           -2.948632995924    -0.851510080027     0.911988996073

  Mulliken Charges: (a.u.)
   Center  Symbol    Alpha    Beta     Spin     Total
       1     H     0.38431  0.38431  0.00000  0.23137
       2     O     4.17684  4.17684  0.00000 -0.35368
       3     C     2.80279  2.80279  0.00000  0.39442
       4     C     3.10646  3.10646  0.00000 -0.21291
       5     O     4.16637  4.16637  0.00000 -0.33275
       6     C     3.08101  3.08101  0.00000 -0.16202
       7     H     0.43757  0.43757  0.00000  0.12486
       8     H     0.44632  0.44632  0.00000  0.10735
       9     C     3.15003  3.15003  0.00000 -0.30006
      10     H     0.44539  0.44539  0.00000  0.10922
      11     H     0.44691  0.44691  0.00000  0.10617
      12     H     0.45495  0.45495  0.00000  0.09009
      13     H     0.44496  0.44496  0.00000  0.11007
      14     H     0.45606  0.45606  0.00000  0.08787

   Total alpha = 24.00000, Total beta = 24.00000, Total charge = -0.00000

*** Psi4 exiting successfully. Buy a developer a beer!
