                              Psi4 1.0.54 Driver

  ==> Input File <==

--------------------------------------------------------------------------
set {
	reference rhf
	basis cc-pvtz
}

set_num_threads( 4 )
memory 2 gb

molecule MOL {
0 1

O	 1.907897	 0.150988	 -0.884433
C	 1.121787	 0.124983	 0.000110
C	 -0.170912	 -0.649867	 -0.000147
O	 1.282762	 0.790872	 1.131947
C	 -1.413045	 0.229353	 0.001137
H	 -0.152877	 -1.303435	 -0.866175
H	 -0.152278	 -1.305116	 0.864586
C	 -2.702562	 -0.586401	 0.000228
H	 -1.390744	 0.882001	 -0.864365
H	 -1.390549	 0.879837	 0.868264
C	 -3.953810	 0.284959	 -0.000782
H	 -2.717793	 -1.238567	 -0.869075
H	 -2.719108	 -1.238472	 0.869576
H	 -3.983727	 0.924403	 -0.876454
H	 -4.852989	 -0.320147	 -0.001515
H	 -3.985140	 0.924399	 0.874841
C	 2.457980	 1.563869	 1.268538
H	 3.335812	 0.938667	 1.199544
H	 2.402143	 2.020654	 2.243268
H	 2.505652	 2.323899	 0.502833

	symmetry c1
}
set optking {
	frozen_dihedral = ("
		1 2 3 6
	")
}

ee,wfn = optimize('scf', return_wfn=True)
oeprop( wfn, 'DIPOLE', 'QUADRUPOLE', 'MULLIKEN_CHARGES')
f=open( 'psi4out.xyz', 'w' )
f.write( "20  " )
f.write( str(ee) + "\n" )
f.write( MOL.save_string_xyz() )
f.close()
--------------------------------------------------------------------------

    Molecular point group: c1
  Charge       = 0
  Multiplicity = 1
  Basis Set: CC-PVTZ
  Basis Set:
  @DF-RHF Final Energy:  -384.08172821784683
    Total Energy =                       -384.0817282178467167
    Molecular point group: c1
  Basis Set: CC-PVTZ
  Basis Set:
  Basis Set: CC-PVTZ
  Basis Set:
  @DF-RHF Final Energy:  -384.08207399264120
    Total Energy =                       -384.0820739926410852
  Basis Set: CC-PVTZ
  Basis Set:
  Basis Set: CC-PVTZ
  Basis Set:
  @DF-RHF Final Energy:  -384.08185861039573
    Total Energy =                       -384.0818586103953294
  Basis Set: CC-PVTZ
  Basis Set:
  Basis Set: CC-PVTZ
  Basis Set:
  @DF-RHF Final Energy:  -384.08210015245476
    Total Energy =                       -384.0821001524545864
  Basis Set: CC-PVTZ
  Basis Set:
  Basis Set: CC-PVTZ
  Basis Set:
  @DF-RHF Final Energy:  -384.08211573506310
    Total Energy =                       -384.0821157350634394
  Basis Set: CC-PVTZ
  Basis Set:
  Charge       = 0
  Multiplicity = 1
  Basis Set: CC-PVTZ
  Basis Set:

    Orbital Energies (a.u.)
    -----------------------

    Doubly Occupied:

       1A    -20.596929     2A    -20.532697     3A    -11.363416
       4A    -11.278572     5A    -11.232527     6A    -11.227042
       7A    -11.222234     8A    -11.212550     9A     -1.471787
      10A     -1.364513    11A     -1.094111    12A     -1.026279
      13A     -0.967741    14A     -0.891518    15A     -0.807652
      16A     -0.775930    17A     -0.696090    18A     -0.683418
      19A     -0.676634    20A     -0.649172    21A     -0.598035
      22A     -0.593345    23A     -0.577123    24A     -0.553189
      25A     -0.534504    26A     -0.521714    27A     -0.511836
      28A     -0.486709    29A     -0.481295    30A     -0.476059
      31A     -0.458180    32A     -0.432184

  @DF-RHF Final Energy:  -384.08211588802521

   => Energetics <=

    Nuclear Repulsion Energy =            384.0881609907781922
    One-Electron Energy =               -1284.3505859141168912
    Two-Electron Energy =                 516.1803090353138259
    DFT Exchange-Correlation Energy =       0.0000000000000000
    Empirical Dispersion Energy =           0.0000000000000000
    PCM Polarization Energy =               0.0000000000000000
    EFP Energy =                            0.0000000000000000
    Total Energy =                       -384.0821158880248731
    Molecular point group: c1
  Basis Set: CC-PVTZ
  Basis Set:

  -Total Gradient:
     Atom            X                  Y                   Z
    ------   -----------------  -----------------  -----------------
       1        0.000156506087    -0.000243831535     0.000171647854
       2       -0.000255257509     0.000380738615    -0.000258613255
       3        0.000201802126    -0.000330650135     0.000241327659
       4        0.000018123095     0.000026698458     0.000007859180
       5        0.000012251501    -0.000054111981     0.000025492352
       6       -0.000143817872     0.000188967772    -0.000183166796
       7        0.000008598259    -0.000019391504     0.000004451715
       8        0.000004427287     0.000017018250    -0.000039798867
       9       -0.000009680796    -0.000023462182    -0.000005563773
      10       -0.000018673009     0.000026012094     0.000009568267
      11       -0.000009480327     0.000006624722     0.000023468183
      12        0.000010038798    -0.000000393326    -0.000014022313
      13        0.000024677613     0.000004578634    -0.000003285123
      14       -0.000001010264    -0.000002840587    -0.000007766082
      15       -0.000008888467    -0.000000588324     0.000007972387
      16       -0.000006164844     0.000014448450     0.000007073545
      17       -0.000000254886    -0.000001796097     0.000019422049
      18        0.000012212422    -0.000006546310    -0.000004448136
      19        0.000009109141     0.000012214444     0.000013422401
      20       -0.000004518351     0.000006310542    -0.000015041250

  **** Optimization is complete! (in 6 steps) ****
    Final optimized geometry and variables:
    Molecular point group: c1

    Geometry (in Angstrom), charge = 0, multiplicity = 1:

    O            2.033180243773    -0.094472611655    -1.093971981319
    C            1.271298770676    -0.142231717835    -0.188740414763
    C           -0.012041747495    -0.930655753832    -0.185427731546
    O            1.458062083858     0.507951408974     0.948517614320
    C           -1.252451508988    -0.031924029790    -0.183503936312
    H           -0.001527277510    -1.559483700711    -1.064021362828
    H           -0.018484848794    -1.564914690701     0.693820252755
    C           -2.549734941158    -0.834289706316    -0.215220068819
    H           -1.215711348208     0.627492541409    -1.045974059736
    H           -1.236883083858     0.601142949811     0.696311515615
    C           -3.792562237214     0.049114716751    -0.216516998306
    H           -2.557897001973    -1.470603943004    -1.095480071774
    H           -2.580237713662    -1.499296300586     0.643429935034
    H           -3.807611753756     0.701771684037    -1.082833919055
    H           -4.696602142719    -0.548108332390    -0.236823044039
    H           -3.828830737870     0.674843098087     0.668876374213
    C            2.623473647458     1.299697820101     1.059339698558
    H            3.508946531864     0.690666108568     0.953740365993
    H            2.590796617678     1.742256625431     2.041732245362
    H            2.633856083061     2.070491471001     0.303037061924

  Mulliken Charges: (a.u.)
   Center  Symbol    Alpha    Beta     Spin     Total
       1     O     4.20070  4.20070  0.00000 -0.40141
       2     C     2.80834  2.80834  0.00000  0.38331
       3     C     3.07678  3.07678  0.00000 -0.15357
       4     O     4.15014  4.15014  0.00000 -0.30028
       5     C     3.09851  3.09851  0.00000 -0.19702
       6     H     0.43769  0.43769  0.00000  0.12462
       7     H     0.44639  0.44639  0.00000  0.10721
       8     C     3.08860  3.08860  0.00000 -0.17720
       9     H     0.44789  0.44789  0.00000  0.10422
      10     H     0.44428  0.44428  0.00000  0.11145
      11     C     3.14919  3.14919  0.00000 -0.29838
      12     H     0.45218  0.45218  0.00000  0.09564
      13     H     0.45360  0.45360  0.00000  0.09280
      14     H     0.45375  0.45375  0.00000  0.09250
      15     H     0.44736  0.44736  0.00000  0.10527
      16     H     0.45440  0.45440  0.00000  0.09120
      17     C     3.03757  3.03757  0.00000 -0.07515
      18     H     0.45261  0.45261  0.00000  0.09479
      19     H     0.44559  0.44559  0.00000  0.10882
      20     H     0.45441  0.45441  0.00000  0.09119

   Total alpha = 32.00000, Total beta = 32.00000, Total charge = -0.00000

*** Psi4 exiting successfully. Buy a developer a beer!
