                              Psi4 1.0.54 Driver

  ==> Input File <==

--------------------------------------------------------------------------
set {
	reference rhf
	basis cc-pvtz
}

set_num_threads( 4 )
memory 2 gb

molecule MOL {
0 1

H	 -2.824513	 0.140268	 -0.762834
O	 -2.313989	 -0.142475	 -0.025864
C	 -0.943808	 -0.065018	 -0.330000
H	 -0.812293	 -0.225641	 -1.398673
C	 -0.231030	 -1.182113	 0.407592
C	 -0.353797	 1.300461	 0.050970
H	 -0.312800	 -0.992012	 1.473041
H	 -0.738841	 -2.119564	 0.220514
C	 1.246176	 -1.268044	 -0.015480
H	 -0.539537	 2.008579	 -0.751815
H	 -0.889989	 1.662858	 0.920677
C	 1.153605	 1.231851	 0.356834
H	 1.823096	 -1.684665	 0.802361
H	 1.352335	 -1.958223	 -0.845114
C	 1.826409	 0.100723	 -0.416008
H	 1.622968	 2.181508	 0.128734
H	 1.301983	 1.066493	 1.419367
H	 2.897299	 0.112407	 -0.249665
H	 1.683458	 0.265621	 -1.480024

	symmetry c1
}
set optking {
	frozen_dihedral = ("
		1 2 3 4
	")
}

ee,wfn = optimize('scf', return_wfn=True)
oeprop( wfn, 'DIPOLE', 'QUADRUPOLE', 'MULLIKEN_CHARGES')
f=open( 'psi4out.xyz', 'w' )
f.write( "19  " )
f.write( str(ee) + "\n" )
f.write( MOL.save_string_xyz() )
f.close()
--------------------------------------------------------------------------

    Molecular point group: c1
  Charge       = 0
  Multiplicity = 1
  Basis Set: CC-PVTZ
  Basis Set:
  @DF-RHF Final Energy:  -309.16247991807256
    Total Energy =                       -309.1624799180726200
    Molecular point group: c1
  Basis Set: CC-PVTZ
  Basis Set:
  Basis Set: CC-PVTZ
  Basis Set:
  @DF-RHF Final Energy:  -309.16256001942764
    Total Energy =                       -309.1625600194274170
  Basis Set: CC-PVTZ
  Basis Set:
  Basis Set: CC-PVTZ
  Basis Set:
  @DF-RHF Final Energy:  -309.16259130208221
    Total Energy =                       -309.1625913020822054
  Basis Set: CC-PVTZ
  Basis Set:
  Charge       = 0
  Multiplicity = 1
  Basis Set: CC-PVTZ
  Basis Set:

    Orbital Energies (a.u.)
    -----------------------

    Doubly Occupied:

       1A    -20.542757     2A    -11.268075     3A    -11.213383
       4A    -11.212903     5A    -11.212373     6A    -11.207773
       7A    -11.206553     8A     -1.362394     9A     -1.109058
      10A     -1.001410    11A     -0.989265    12A     -0.842239
      13A     -0.834832    14A     -0.731629    15A     -0.710602
      16A     -0.658361    17A     -0.627949    18A     -0.590916
      19A     -0.569572    20A     -0.546190    21A     -0.537005
      22A     -0.517292    23A     -0.497679    24A     -0.489143
      25A     -0.462331    26A     -0.449838    27A     -0.430385
      28A     -0.409740

  @DF-RHF Final Energy:  -309.16259179388692

   => Energetics <=

    Nuclear Repulsion Energy =            331.7018920009858221
    One-Electron Energy =               -1077.2656638965886486
    Two-Electron Energy =                 436.4011801017159655
    DFT Exchange-Correlation Energy =       0.0000000000000000
    Empirical Dispersion Energy =           0.0000000000000000
    PCM Polarization Energy =               0.0000000000000000
    EFP Energy =                            0.0000000000000000
    Total Energy =                       -309.1625917938868611
    Molecular point group: c1
  Basis Set: CC-PVTZ
  Basis Set:

  -Total Gradient:
     Atom            X                  Y                   Z
    ------   -----------------  -----------------  -----------------
       1       -0.000052504942    -0.001396542830    -0.000510894276
       2        0.000095699995     0.002034938345     0.000551060607
       3        0.000041830553    -0.001863568642     0.000149151557
       4       -0.000116886149     0.001264948579    -0.000183361486
       5        0.000027991602     0.000008129575     0.000025352302
       6       -0.000037674872    -0.000000009202    -0.000016509816
       7       -0.000010318258     0.000000346397     0.000005164393
       8       -0.000008012792     0.000005135314    -0.000001937585
       9       -0.000003558910     0.000017370708    -0.000006983976
      10       -0.000022396123    -0.000004803953    -0.000006187118
      11       -0.000006896399    -0.000008934101    -0.000014777394
      12        0.000013746671    -0.000039401202     0.000026767439
      13        0.000011554621     0.000008102507    -0.000011557132
      14        0.000015553480     0.000016447436    -0.000011159014
      15        0.000026140449     0.000005574397     0.000006137165
      16        0.000009352922    -0.000015390864    -0.000007934531
      17        0.000010080609     0.000000528060     0.000008337610
      18        0.000005099774    -0.000010318467     0.000001613460
      19        0.000001197764    -0.000022552055    -0.000002282204

  **** Optimization is complete! (in 4 steps) ****
    Final optimized geometry and variables:
    Molecular point group: c1

    Geometry (in Angstrom), charge = 0, multiplicity = 1:

    H           -2.833728188499     0.172919436114    -0.735929521581
    O           -2.317515251071    -0.124597465213    -0.010778923138
    C           -0.946146882430    -0.067253993845    -0.327277687114
    H           -0.825315363462    -0.218831647424    -1.397521665413
    C           -0.225328009728    -1.186167882030     0.401750850632
    C           -0.355273186664     1.298802882307     0.052588487148
    H           -0.309501164655    -1.003715629523     1.468483237206
    H           -0.728138099538    -2.125127463877     0.208709191561
    C            1.253529191175    -1.263355804209    -0.018502439531
    H           -0.541560102357     2.005301256499    -0.750850919487
    H           -0.897975542166     1.660227836057     0.917548954003
    C            1.150952235210     1.233021683779     0.362836918555
    H            1.831101861007    -1.679068099524     0.799360970222
    H            1.364342024062    -1.951647532422    -0.849325942952
    C            1.828463692888     0.108482955375    -0.414871168005
    H            1.618298471175     2.185374101356     0.141494094671
    H            1.298036328274     1.061836605210     1.424801493627
    H            2.899668098769     0.122693779507    -0.250439300373
    H            1.683195946281     0.276640890514    -1.478294294363

  Mulliken Charges: (a.u.)
   Center  Symbol    Alpha    Beta     Spin     Total
       1     H     0.39453  0.39453  0.00000  0.21094
       2     O     4.20271  4.20271  0.00000 -0.40542
       3     C     2.92592  2.92592  0.00000  0.14815
       4     H     0.46638  0.46638  0.00000  0.06723
       5     C     3.09668  3.09668  0.00000 -0.19335
       6     C     3.11384  3.11384  0.00000 -0.22768
       7     H     0.45301  0.45301  0.00000  0.09399
       8     H     0.44242  0.44242  0.00000  0.11517
       9     C     3.11322  3.11322  0.00000 -0.22644
      10     H     0.45416  0.45416  0.00000  0.09167
      11     H     0.44477  0.44477  0.00000  0.11045
      12     C     3.10065  3.10065  0.00000 -0.20130
      13     H     0.44729  0.44729  0.00000  0.10543
      14     H     0.44792  0.44792  0.00000  0.10416
      15     C     3.10285  3.10285  0.00000 -0.20569
      16     H     0.44279  0.44279  0.00000  0.11442
      17     H     0.45290  0.45290  0.00000  0.09420
      18     H     0.44299  0.44299  0.00000  0.11401
      19     H     0.45497  0.45497  0.00000  0.09006

   Total alpha = 28.00000, Total beta = 28.00000, Total charge = -0.00000

*** Psi4 exiting successfully. Buy a developer a beer!
