                              Psi4 1.0.54 Driver

  ==> Input File <==

--------------------------------------------------------------------------
set {
	reference rhf
	basis cc-pvtz
}

set_num_threads( 4 )
memory 2 gb

molecule MOL {
0 1

H	 -2.266619	 1.169943	 0.000098
O	 -1.438073	 1.611259	 0.000041
C	 -0.408657	 0.734701	 0.000005
C	 0.759404	 1.143104	 0.616647
C	 -0.505125	 -0.521096	 -0.588026
H	 0.794076	 2.119461	 1.058753
C	 1.849632	 0.299913	 0.654056
C	 0.605752	 -1.347362	 -0.535450
C	 -1.780511	 -0.965291	 -1.260548
H	 2.753103	 0.623770	 1.134510
C	 1.778694	 -0.953137	 0.076766
H	 0.547226	 -2.321095	 -0.985324
H	 -2.047997	 -0.313859	 -2.087836
H	 -1.673861	 -1.963758	 -1.659460
H	 -2.616976	 -0.982059	 -0.567461
H	 2.622769	 -1.614401	 0.102009

	symmetry c1
}
set optking {
	frozen_dihedral = ("
		4 3 2 1
	")
}

ee,wfn = optimize('scf', return_wfn=True)
oeprop( wfn, 'DIPOLE', 'QUADRUPOLE', 'MULLIKEN_CHARGES')
f=open( 'psi4out.xyz', 'w' )
f.write( "16  " )
f.write( str(ee) + "\n" )
f.write( MOL.save_string_xyz() )
f.close()
--------------------------------------------------------------------------

    Molecular point group: c1
  Charge       = 0
  Multiplicity = 1
  Basis Set: CC-PVTZ
  Basis Set:
  @DF-RHF Final Energy:  -344.71840193178213
    Total Energy =                       -344.7184019317824095
    Molecular point group: c1
  Basis Set: CC-PVTZ
  Basis Set:
  Basis Set: CC-PVTZ
  Basis Set:
  @DF-RHF Final Energy:  -344.71850913812233
    Total Energy =                       -344.7185091381220445
  Basis Set: CC-PVTZ
  Basis Set:
  Basis Set: CC-PVTZ
  Basis Set:
  @DF-RHF Final Energy:  -344.71852930052086
    Total Energy =                       -344.7185293005209132
  Basis Set: CC-PVTZ
  Basis Set:
  Basis Set: CC-PVTZ
  Basis Set:
  @DF-RHF Final Energy:  -344.71853183493982
    Total Energy =                       -344.7185318349395970
  Basis Set: CC-PVTZ
  Basis Set:
  Charge       = 0
  Multiplicity = 1
  Basis Set: CC-PVTZ
  Basis Set:

    Orbital Energies (a.u.)
    -----------------------

    Doubly Occupied:

       1A    -20.578817     2A    -11.288968     3A    -11.233779
       4A    -11.230114     5A    -11.228192     6A    -11.227193
       7A    -11.218596     8A    -11.218327     9A     -1.408157
      10A     -1.153580    11A     -1.051312    12A     -1.007807
      13A     -0.942561    14A     -0.828431    15A     -0.821742
      16A     -0.733598    17A     -0.679328    18A     -0.648688
      19A     -0.618957    20A     -0.600165    21A     -0.576942
      22A     -0.572554    23A     -0.554830    24A     -0.546393
      25A     -0.505014    26A     -0.486913    27A     -0.475968
      28A     -0.333586    29A     -0.312509

  @DF-RHF Final Energy:  -344.71853218567441

   => Energetics <=

    Nuclear Repulsion Energy =            350.9373775462896106
    One-Electron Energy =               -1163.1457792331361816
    Two-Electron Energy =                 467.4898695011721657
    DFT Exchange-Correlation Energy =       0.0000000000000000
    Empirical Dispersion Energy =           0.0000000000000000
    PCM Polarization Energy =               0.0000000000000000
    EFP Energy =                            0.0000000000000000
    Total Energy =                       -344.7185321856744622
    Molecular point group: c1
  Basis Set: CC-PVTZ
  Basis Set:

  -Total Gradient:
     Atom            X                  Y                   Z
    ------   -----------------  -----------------  -----------------
       1       -0.000049420418     0.000020135465     0.001669809754
       2       -0.000190694603    -0.000179201060    -0.001606271026
       3        0.000686717258     0.000546544817    -0.001104798702
       4       -0.000433603587    -0.000437403405     0.001043280818
       5       -0.000033770449     0.000037183711     0.000013953451
       6        0.000003487240     0.000001561815    -0.000010377414
       7        0.000002130550     0.000013236918     0.000007641584
       8        0.000022840555    -0.000013707821     0.000031349416
       9        0.000025456913     0.000007419862    -0.000042554357
      10        0.000002414596    -0.000009131009    -0.000004800484
      11       -0.000014249557     0.000001839559    -0.000027846958
      12       -0.000000242608     0.000010402326    -0.000000491337
      13       -0.000008772570    -0.000002486583    -0.000001940212
      14       -0.000003985274     0.000006999691     0.000012091397
      15       -0.000017578837    -0.000005512119     0.000013462700
      16        0.000009270791     0.000002117834     0.000007491371

  **** Optimization is complete! (in 5 steps) ****
    Final optimized geometry and variables:
    Molecular point group: c1

    Geometry (in Angstrom), charge = 0, multiplicity = 1:

    H           -2.286838434635     1.153557170328     0.079291381963
    O           -1.456484755388     1.592812907065     0.099656997711
    C           -0.430631345291     0.705680988058     0.141930301366
    C            0.724013901704     1.103073099788     0.786717168136
    C           -0.524000264287    -0.546899229170    -0.453692297233
    H            0.753827059774     2.075892259945     1.236875130165
    C            1.811815964582     0.255143389631     0.837735251604
    C            0.577659722167    -1.382595179720    -0.378388492333
    C           -1.785765344542    -0.970724745437    -1.162398885390
    H            2.707988688796     0.571012064301     1.336700884896
    C            1.741787445444    -0.995260672151     0.256964008383
    H            0.523096982676    -2.354290146907    -0.833001168069
    H           -2.056867442069    -0.267372967284    -1.942001934387
    H           -1.659901493111    -1.941949293218    -1.619333444753
    H           -2.628657153786    -1.045725404068    -0.479555615649
    H            2.581307008826    -1.661883144418     0.295680819919

  Mulliken Charges: (a.u.)
   Center  Symbol    Alpha    Beta     Spin     Total
       1     H     0.38564  0.38564  0.00000  0.22871
       2     O     4.17841  4.17841  0.00000 -0.35681
       3     C     2.87757  2.87757  0.00000  0.24485
       4     C     3.11135  3.11135  0.00000 -0.22270
       5     C     3.00668  3.00668  0.00000 -0.01337
       6     H     0.41906  0.41906  0.00000  0.16189
       7     C     3.06776  3.06776  0.00000 -0.13552
       8     C     3.08651  3.08651  0.00000 -0.17303
       9     C     3.15916  3.15916  0.00000 -0.31832
      10     H     0.42244  0.42244  0.00000  0.15513
      11     C     3.08838  3.08838  0.00000 -0.17677
      12     H     0.42542  0.42542  0.00000  0.14915
      13     H     0.44241  0.44241  0.00000  0.11518
      14     H     0.44721  0.44721  0.00000  0.10557
      15     H     0.45720  0.45720  0.00000  0.08561
      16     H     0.42478  0.42478  0.00000  0.15043

   Total alpha = 29.00000, Total beta = 29.00000, Total charge = -0.00000

*** Psi4 exiting successfully. Buy a developer a beer!
