  ==> Input File <==

--------------------------------------------------------------------------
set {
	reference rhf
	basis 6-31G*
}

set_num_threads( 1 )
memory 2 gb

molecule MOL {
0 1

H	 3.215708	 0.030091	 0.403230
N	 2.434251	 -0.367735	 -0.081097
C	 1.267428	 0.496480	 0.024474
H	 2.252231	 -1.256981	 0.344373
C	 -0.016086	 -0.325158	 -0.029487
H	 1.288818	 1.183521	 -0.816092
H	 1.267576	 1.109062	 0.929528
C	 -1.282277	 0.529072	 0.046735
H	 -0.012495	 -0.908639	 -0.945788
H	 -0.015903	 -1.041248	 0.791956
C	 -2.563920	 -0.301775	 -0.006060
H	 -1.284084	 1.244622	 -0.773004
H	 -1.271387	 1.115393	 0.963286
H	 -2.621848	 -0.873522	 -0.927727
H	 -3.445135	 0.329952	 0.047812
H	 -2.609542	 -1.004582	 0.821105

	symmetry c1
}
set optking {
	frozen_dihedral = ("
		6 3 5 9,
		12 8 5 9
	")
}

ee = energy('scf')
oeprop('DIPOLE', 'QUADRUPOLE', 'MULLIKEN_CHARGES')
f=open( 'psi4out.xyz', 'w' )
f.write( "16  " )
f.write( str(ee) + "\n" )
f.write( MOL.save_string_xyz() )
f.close()
--------------------------------------------------------------------------

    Molecular point group: c1

    Geometry (in Angstrom), charge = 0, multiplicity = 1:

       Center              X                  Y                   Z               Mass
    ------------   -----------------  -----------------  -----------------  -----------------
           H          3.219985603237     0.036095850452     0.401347663173     1.007825032070
           N          2.438528603237    -0.361730149548    -0.082979336827    14.003074004780
           C          1.271705603237     0.502484850452     0.022591663173    12.000000000000
           H          2.256508603237    -1.250976149548     0.342490663173     1.007825032070
           C         -0.011808396763    -0.319153149548    -0.031369336827    12.000000000000
           H          1.293095603237     1.189525850452    -0.817974336827     1.007825032070
           H          1.271853603237     1.115066850452     0.927645663173     1.007825032070
           C         -1.277999396763     0.535076850452     0.044852663173    12.000000000000
           H         -0.008217396763    -0.902634149548    -0.947670336827     1.007825032070
           H         -0.011625396763    -1.035243149548     0.790073663173     1.007825032070
           C         -2.559642396763    -0.295770149548    -0.007942336827    12.000000000000
           H         -1.279806396763     1.250626850452    -0.774886336827     1.007825032070
           H         -1.267109396763     1.121397850452     0.961403663173     1.007825032070
           H         -2.617570396763    -0.867517149548    -0.929609336827     1.007825032070
           H         -3.440857396763     0.335956850452     0.045929663173     1.007825032070
           H         -2.605264396763    -0.998577149548     0.819222663173     1.007825032070

  Charge       = 0
  Multiplicity = 1
  Basis Set: 6-31G*
  Basis Set:

    Orbital Energies (a.u.)
    -----------------------

    Doubly Occupied:

       1A    -15.530556     2A    -11.239056     3A    -11.217936
       4A    -11.215171     5A    -11.210104     6A     -1.176693
       7A     -1.061816     8A     -0.959898     9A     -0.845504
      10A     -0.797431    11A     -0.651611    12A     -0.650235
      13A     -0.601473    14A     -0.575734    15A     -0.571925
      16A     -0.521811    17A     -0.508991    18A     -0.473534
      19A     -0.468734    20A     -0.460647    21A     -0.379165

  @DF-RHF Final Energy:  -212.31444533251170

   => Energetics <=

    Nuclear Repulsion Energy =            186.5040031292973595
    One-Electron Energy =                -655.4009532963152651
    Two-Electron Energy =                 256.5825048345059258
    DFT Exchange-Correlation Energy =       0.0000000000000000
    Empirical Dispersion Energy =           0.0000000000000000
    PCM Polarization Energy =               0.0000000000000000
    EFP Energy =                            0.0000000000000000
    Total Energy =                       -212.3144453325119798

  Mulliken Charges: (a.u.)
   Center  Symbol    Alpha    Beta     Spin     Total
       1     H     0.33305  0.33305  0.00000  0.33390
       2     N     3.92580  3.92580  0.00000 -0.85160
       3     C     3.05005  3.05005  0.00000 -0.10010
       4     H     0.33448  0.33448  0.00000  0.33105
       5     C     3.16316  3.16316  0.00000 -0.32631
       6     H     0.41988  0.41988  0.00000  0.16023
       7     H     0.43365  0.43365  0.00000  0.13270
       8     C     3.15455  3.15455  0.00000 -0.30910
       9     H     0.41399  0.41399  0.00000  0.17202
      10     H     0.42747  0.42747  0.00000  0.14507
      11     C     3.23918  3.23918  0.00000 -0.47835
      12     H     0.42077  0.42077  0.00000  0.15846
      13     H     0.42271  0.42271  0.00000  0.15457
      14     H     0.42047  0.42047  0.00000  0.15906
      15     H     0.41884  0.41884  0.00000  0.16232
      16     H     0.42196  0.42196  0.00000  0.15608

   Total alpha = 21.00000, Total beta = 21.00000, Total charge = -0.00000
