  ==> Input File <==

--------------------------------------------------------------------------
set {
	reference rhf
	basis 6-31G*
}

set_num_threads( 4 )
memory 2 gb

molecule MOL {
0 1

O	 -2.042549	 -1.228399	 -0.269030
C	 -1.653912	 -0.146171	 0.050137
C	 -0.332303	 0.024011	 0.778412
C	 -2.438579	 1.106236	 -0.272369
C	 0.845713	 -0.001731	 -0.208243
H	 -0.323783	 0.953829	 1.340327
H	 -0.235459	 -0.796807	 1.480410
C	 1.363274	 -1.416765	 -0.470615
H	 1.659306	 0.612342	 0.173940
H	 0.525535	 0.451755	 -1.141505
C	 2.528942	 -1.446198	 -1.458319
H	 1.673557	 -1.868376	 0.469170
H	 0.550208	 -2.030056	 -0.851886
H	 3.371526	 -0.868628	 -1.088837
H	 2.238954	 -1.030322	 -2.418734
H	 2.873010	 -2.461604	 -1.627421
H	 -3.277823	 0.863061	 -0.908988
H	 -1.806773	 1.843019	 -0.759671
H	 -2.802853	 1.554979	 0.648059

	symmetry c1
}
set optking {
	frozen_dihedral = ("
		9 5 3 2
	")
}

ee = optimize('scf')
oeprop('DIPOLE', 'QUADRUPOLE', 'MULLIKEN_CHARGES')
f=open( 'psi4out.xyz', 'w' )
f.write( "19  " )
f.write( str(ee) + "\n" )
f.write( MOL.save_string_xyz() )
f.close()
--------------------------------------------------------------------------

    Molecular point group: c1
  Charge       = 0
  Multiplicity = 1
  Basis Set: 6-31G*
  Basis Set:
  @DF-RHF Final Energy:  -309.06247392263259
    Total Energy =                       -309.0624739226328188
    Molecular point group: c1
  Basis Set: 6-31G*
  Basis Set:
  Basis Set: 6-31G*
  Basis Set:
  @DF-RHF Final Energy:  -309.06277073568202
    Total Energy =                       -309.0627707356819656
  Basis Set: 6-31G*
  Basis Set:
  Basis Set: 6-31G*
  Basis Set:
  @DF-RHF Final Energy:  -309.06112023737279
    Total Energy =                       -309.0611202373722790
  Basis Set: 6-31G*
  Basis Set:
  Basis Set: 6-31G*
  Basis Set:
  @DF-RHF Final Energy:  -309.06289901762784
    Total Energy =                       -309.0628990176276716
  Basis Set: 6-31G*
  Basis Set:
  @DF-RHF Final Energy:  -309.06291915538276
    Total Energy =                       -309.0629191553827013
  Basis Set: 6-31G*
  Basis Set:
  @DF-RHF Final Energy:  -309.06293843273625
    Total Energy =                       -309.0629384327360185
  Basis Set: 6-31G*
  Basis Set:
  Basis Set: 6-31G*
  Basis Set:
  @DF-RHF Final Energy:  -309.06294675788274
    Total Energy =                       -309.0629467578829122
  Basis Set: 6-31G*
  Basis Set:
  Basis Set: 6-31G*
  Basis Set:
  @DF-RHF Final Energy:  -309.06295098449954
    Total Energy =                       -309.0629509844995937
  Basis Set: 6-31G*
  Basis Set:
  Charge       = 0
  Multiplicity = 1
  Basis Set: 6-31G*
  Basis Set:

    Orbital Energies (a.u.)
    -----------------------

    Doubly Occupied:

       1A    -20.548429     2A    -11.325133     3A    -11.232016
       4A    -11.229827     5A    -11.228592     6A    -11.217966
       7A    -11.211247     8A     -1.393595     9A     -1.089232
      10A     -1.028001    11A     -0.981493    12A     -0.889049
      13A     -0.806444    14A     -0.734441    15A     -0.660698
      16A     -0.640833    17A     -0.621456    18A     -0.607714
      19A     -0.584097    20A     -0.574172    21A     -0.551413
      22A     -0.534523    23A     -0.521916    24A     -0.495850
      25A     -0.477447    26A     -0.473215    27A     -0.462177
      28A     -0.397068

  @DF-RHF Final Energy:  -309.06295154528539

   => Energetics <=

    Nuclear Repulsion Energy =            306.2402324760034844
    One-Electron Energy =               -1025.5702841701372563
    Two-Electron Energy =                 410.2671001488481579
    DFT Exchange-Correlation Energy =       0.0000000000000000
    Empirical Dispersion Energy =           0.0000000000000000
    PCM Polarization Energy =               0.0000000000000000
    EFP Energy =                            0.0000000000000000
    Total Energy =                       -309.0629515452856140
    Molecular point group: c1
  Basis Set: 6-31G*
  Basis Set:

  -Total Gradient:
     Atom            X                  Y                   Z
    ------   -----------------  -----------------  -----------------
       1       -0.000005833762     0.000009127916    -0.000004070616
       2       -0.000175902679     0.002356715678    -0.000245172707
       3       -0.000060314243    -0.002621971007    -0.000001565397
       4       -0.000017985116     0.000012284306     0.000032919333
       5        0.001522729885    -0.002408209513     0.001791286939
       6        0.000003641593    -0.000000077155    -0.000000927127
       7        0.000001344727     0.000008743501    -0.000017285378
       8       -0.000005512651    -0.000022284766    -0.000009256578
       9       -0.001292330121     0.002662526537    -0.001535380703
      10        0.000005422662    -0.000004592811     0.000009051587
      11        0.000000546282     0.000004390164    -0.000002219633
      12       -0.000002140336     0.000001878543     0.000004405907
      13       -0.000002528636    -0.000002610378     0.000001937846
      14        0.000003251312     0.000004820572    -0.000002382190
      15        0.000002458858    -0.000002440137    -0.000008040676
      16       -0.000003335324     0.000002113666     0.000006946547
      17        0.000011712809    -0.000008855490    -0.000002638141
      18        0.000008048719     0.000001808781    -0.000012721109
      19        0.000006726020     0.000006631594    -0.000004887906

  **** Optimization is complete! (in 9 steps) ****
    Final optimized geometry and variables:
    Molecular point group: c1

    Geometry (in Angstrom), charge = 0, multiplicity = 1:

    O           -1.860701588211    -0.796762563392     0.125053890951
    C           -1.408491389555     0.284146051510     0.354572228494
    C           -0.090419007207     0.454038684880     1.086920197181
    C           -2.116851074697     1.546411866583    -0.088792074354
    C            1.100255506530     0.448292537683     0.101641312577
    H           -0.104575777354     1.390297255351     1.636908279019
    H            0.010225020395    -0.353621898779     1.802318900688
    C            1.615097524192    -0.955504607776    -0.217697855531
    H            1.898646620852     1.064461340328     0.505407066807
    H            0.806213522553     0.939022625799    -0.825127212997
    C            2.743122609231    -0.950012000781    -1.248148061817
    H            1.965348825743    -1.421086787442     0.700621904708
    H            0.791747471430    -1.565854362112    -0.575699784303
    H            3.589710192950    -0.362694664364    -0.903044146381
    H            2.411056478500    -0.527854232962    -2.192496866343
    H            3.097518506825    -1.956938375584    -1.444015666159
    H           -2.931961546523     1.297078781752    -0.753760539985
    H           -1.432315847447     2.229472612924    -0.581893468827
    H           -2.511810902411     2.061534785177     0.783064709980

  Mulliken Charges: (a.u.)
   Center  Symbol    Alpha    Beta     Spin     Total
       1     O     4.26120  4.26120  0.00000 -0.52240
       2     C     2.73878  2.73878  0.00000  0.52245
       3     C     3.20317  3.20317  0.00000 -0.40634
       4     C     3.28913  3.28913  0.00000 -0.57826
       5     C     3.16256  3.16256  0.00000 -0.32511
       6     H     0.41422  0.41422  0.00000  0.17156
       7     H     0.39972  0.39972  0.00000  0.20056
       8     C     3.15447  3.15447  0.00000 -0.30895
       9     H     0.41499  0.41499  0.00000  0.17001
      10     H     0.42013  0.42013  0.00000  0.15973
      11     C     3.24119  3.24119  0.00000 -0.48238
      12     H     0.42137  0.42137  0.00000  0.15727
      13     H     0.40577  0.40577  0.00000  0.18847
      14     H     0.42255  0.42255  0.00000  0.15490
      15     H     0.42117  0.42117  0.00000  0.15766
      16     H     0.41667  0.41667  0.00000  0.16667
      17     H     0.39696  0.39696  0.00000  0.20608
      18     H     0.40978  0.40978  0.00000  0.18043
      19     H     0.40617  0.40617  0.00000  0.18766

   Total alpha = 28.00000, Total beta = 28.00000, Total charge =  0.00000
