  ==> Input File <==

--------------------------------------------------------------------------
set {
	reference rhf
	basis 6-31G*
}

set_num_threads( 1 )
memory 2 gb

molecule MOL {
0 1

H	 -3.407059	 -1.043082	 0.000000
O	 -3.119761	 -0.140267	 0.000000
C	 -1.777559	 -0.059267	 0.000000
C	 -0.983096	 -0.915220	 0.757083
C	 -1.197224	 0.922685	 -0.793125
H	 -1.440899	 -1.673587	 1.369133
C	 0.389310	 -0.785653	 0.717932
H	 -1.831218	 1.570699	 -1.367932
C	 0.176785	 1.039787	 -0.821755
H	 1.014408	 -1.439200	 1.296923
C	 0.985743	 0.192506	 -0.071204
H	 0.627012	 1.800574	 -1.436215
C	 2.454922	 0.329848	 -0.111976
O	 3.218069	 -0.352733	 0.498311
H	 2.826189	 1.128785	 -0.762380

	symmetry c1
}
set optking {
	frozen_dihedral = ("
		7 11 13 14
	")
}

ee = energy('scf')
oeprop('DIPOLE', 'QUADRUPOLE', 'MULLIKEN_CHARGES')
f=open( 'psi4out.xyz', 'w' )
f.write( "15  " )
f.write( str(ee) + "\n" )
f.write( MOL.save_string_xyz() )
f.close()
--------------------------------------------------------------------------

    Molecular point group: c1

    Geometry (in Angstrom), charge = 0, multiplicity = 1:

       Center              X                  Y                   Z               Mass
    ------------   -----------------  -----------------  -----------------  -----------------
           H         -3.406486447065    -1.052567840153    -0.026110035838     1.007825032070
           O         -3.119188447065    -0.149752840153    -0.026110035838    15.994914619560
           C         -1.776986447065    -0.068752840153    -0.026110035838    12.000000000000
           C         -0.982523447065    -0.924705840153     0.730972964162    12.000000000000
           C         -1.196651447065     0.913199159847    -0.819235035838    12.000000000000
           H         -1.440326447065    -1.683072840153     1.343022964162     1.007825032070
           C          0.389882552935    -0.795138840153     0.691821964162    12.000000000000
           H         -1.830645447065     1.561213159847    -1.394042035838     1.007825032070
           C          0.177357552935     1.030301159847    -0.847865035838    12.000000000000
           H          1.014980552935    -1.448685840153     1.270812964162     1.007825032070
           C          0.986315552935     0.183020159847    -0.097314035838    12.000000000000
           H          0.627584552935     1.791088159847    -1.462325035838     1.007825032070
           C          2.455494552935     0.320362159847    -0.138086035838    12.000000000000
           O          3.218641552935    -0.362218840153     0.472200964162    15.994914619560
           H          2.826761552935     1.119299159847    -0.788490035838     1.007825032070

  Charge       = 0
  Multiplicity = 1
  Basis Set: 6-31G*
  Basis Set:

    Orbital Energies (a.u.)
    -----------------------

    Doubly Occupied:

       1A    -20.604246     2A    -20.557355     3A    -11.328973
       4A    -11.319545     5A    -11.259830     6A    -11.255368
       7A    -11.243488     8A    -11.240586     9A    -11.239272
      10A     -1.427462    11A     -1.398341    12A     -1.170087
      13A     -1.040902    14A     -1.037745    15A     -0.888370
      16A     -0.863737    17A     -0.795015    18A     -0.756485
      19A     -0.711855    20A     -0.665894    21A     -0.646004
      22A     -0.628412    23A     -0.617525    24A     -0.606926
      25A     -0.565520    26A     -0.554536    27A     -0.547764
      28A     -0.502022    29A     -0.483308    30A     -0.419705
      31A     -0.356706    32A     -0.330890

  @DF-RHF Final Energy:  -418.28726341296868

   => Energetics <=

    Nuclear Repulsion Energy =            401.3289550240172616
    One-Electron Energy =               -1365.1048097574359872
    Two-Electron Energy =                 545.4885913204509507
    DFT Exchange-Correlation Energy =       0.0000000000000000
    Empirical Dispersion Energy =           0.0000000000000000
    PCM Polarization Energy =               0.0000000000000000
    EFP Energy =                            0.0000000000000000
    Total Energy =                       -418.2872634129678318

  Mulliken Charges: (a.u.)
   Center  Symbol    Alpha    Beta     Spin     Total
       1     H     0.26860  0.26860  0.00000  0.46279
       2     O     4.37660  4.37660  0.00000 -0.75320
       3     C     2.79421  2.79421  0.00000  0.41158
       4     C     3.13902  3.13902  0.00000 -0.27804
       5     C     3.12560  3.12560  0.00000 -0.25120
       6     H     0.39480  0.39480  0.00000  0.21041
       7     C     3.08021  3.08021  0.00000 -0.16043
       8     H     0.38685  0.38685  0.00000  0.22630
       9     C     3.09444  3.09444  0.00000 -0.18888
      10     H     0.37490  0.37490  0.00000  0.25020
      11     C     3.06594  3.06594  0.00000 -0.13187
      12     H     0.39023  0.39023  0.00000  0.21953
      13     C     2.83046  2.83046  0.00000  0.33907
      14     O     4.25375  4.25375  0.00000 -0.50751
      15     H     0.42437  0.42437  0.00000  0.15126

   Total alpha = 32.00000, Total beta = 32.00000, Total charge =  0.00000
