  ==> Input File <==

--------------------------------------------------------------------------
set {
	reference rhf
	basis 6-31G*
}

set_num_threads( 4 )
memory 2 gb

molecule MOL {
0 1

O	 0.485553	 0.730980	 2.076034
C	 -0.368934	 0.948910	 1.279396
C	 -1.287839	 2.140284	 1.303608
O	 -0.632575	 0.154573	 0.251549
H	 -2.317417	 1.807438	 1.367871
H	 -1.047860	 2.766099	 2.150131
H	 -1.181717	 2.703240	 0.383512
C	 0.160891	 -1.019931	 0.106212
C	 1.589627	 -0.672828	 0.480843
H	 0.089836	 -1.367806	 -0.916050
H	 -0.238459	 -1.792301	 0.749618
C	 2.246377	 0.346236	 -0.452210
H	 2.163194	 -1.597435	 0.473358
H	 1.604769	 -0.303424	 1.502885
C	 3.691736	 0.652107	 -0.061850
H	 2.219579	 -0.032311	 -1.472055
H	 1.666466	 1.263317	 -0.447249
H	 4.134505	 1.377213	 -0.737283
H	 4.305508	 -0.243868	 -0.089969
H	 3.748266	 1.059562	 0.943567

	symmetry c1
}
set optking {
	frozen_dihedral = ("
		2 4 8 10
	")
}

ee = optimize('scf')
oeprop('DIPOLE', 'QUADRUPOLE', 'MULLIKEN_CHARGES')
f=open( 'psi4out.xyz', 'w' )
f.write( "20  " )
f.write( str(ee) + "\n" )
f.write( MOL.save_string_xyz() )
f.close()
--------------------------------------------------------------------------

    Molecular point group: c1
  Charge       = 0
  Multiplicity = 1
  Basis Set: 6-31G*
  Basis Set:
  @DF-RHF Final Energy:  -383.90557753278370
    Total Energy =                       -383.9055775327833544
    Molecular point group: c1
  Basis Set: 6-31G*
  Basis Set:
  Basis Set: 6-31G*
  Basis Set:
  @DF-RHF Final Energy:  -383.92985937524696
    Total Energy =                       -383.9298593752469060
  Basis Set: 6-31G*
  Basis Set:
  Basis Set: 6-31G*
  Basis Set:
  @DF-RHF Final Energy:  -383.93570877319240
    Total Energy =                       -383.9357087731925731
  Basis Set: 6-31G*
  Basis Set:
  Basis Set: 6-31G*
  Basis Set:
  @DF-RHF Final Energy:  -383.93733553287939
    Total Energy =                       -383.9373355328795014
  Basis Set: 6-31G*
  Basis Set:
  @DF-RHF Final Energy:  -383.93535312316442
    Total Energy =                       -383.9353531231641909
  @DF-RHF Final Energy:  -383.93820983304670
    Total Energy =                       -383.9382098330469262
  @DF-RHF Final Energy:  -383.93829572296272
    Total Energy =                       -383.9382957229624935
  Basis Set: 6-31G*
  Basis Set:
  @DF-RHF Final Energy:  -383.93830639361096
    Total Energy =                       -383.9383063936107874
  Basis Set: 6-31G*
  Basis Set:
  Basis Set: 6-31G*
  Basis Set:
  @DF-RHF Final Energy:  -383.93831332413879
    Total Energy =                       -383.9383133241387895
  Basis Set: 6-31G*
  Basis Set:
  Basis Set: 6-31G*
  Basis Set:
  @DF-RHF Final Energy:  -383.93831662181282
    Total Energy =                       -383.9383166218128736
  Basis Set: 6-31G*
  Basis Set:
  Charge       = 0
  Multiplicity = 1
  Basis Set: 6-31G*
  Basis Set:

    Orbital Energies (a.u.)
    -----------------------

    Doubly Occupied:

       1A    -20.599844     2A    -20.542832     3A    -11.375584
       4A    -11.287246     5A    -11.231760     6A    -11.220259
       7A    -11.218615     8A    -11.210567     9A     -1.463584
      10A     -1.362318    11A     -1.082310    12A     -1.027786
      13A     -0.979217    14A     -0.892572    15A     -0.816466
      16A     -0.743340    17A     -0.694208    18A     -0.678914
      19A     -0.668355    20A     -0.635506    21A     -0.599573
      22A     -0.589916    23A     -0.571150    24A     -0.563679
      25A     -0.537438    26A     -0.522938    27A     -0.511730
      28A     -0.483634    29A     -0.476345    30A     -0.472033
      31A     -0.442611    32A     -0.430013

  @DF-RHF Final Energy:  -383.93831712218008

   => Energetics <=

    Nuclear Repulsion Energy =            396.9317011912755220
    One-Electron Energy =               -1309.8753515509513363
    Two-Electron Energy =                 529.0053332374961883
    DFT Exchange-Correlation Energy =       0.0000000000000000
    Empirical Dispersion Energy =           0.0000000000000000
    PCM Polarization Energy =               0.0000000000000000
    EFP Energy =                            0.0000000000000000
    Total Energy =                       -383.9383171221795692
    Molecular point group: c1
  Basis Set: 6-31G*
  Basis Set:

  -Total Gradient:
     Atom            X                  Y                   Z
    ------   -----------------  -----------------  -----------------
       1       -0.000034753245     0.000034100574     0.000020478148
       2        0.003904808451     0.003511572350    -0.003494967553
       3        0.000029465713     0.000003625327    -0.000032404481
       4       -0.005000183320    -0.004582888463     0.004987229328
       5        0.000000844825    -0.000013950971     0.000015790983
       6        0.000005404480    -0.000007856742     0.000005882739
       7       -0.000005064460    -0.000012626967     0.000002122710
       8       -0.003760411234    -0.002953858231    -0.000013889497
       9        0.000009383799     0.000009119065     0.000156955093
      10        0.004839036278     0.004063548436    -0.001526324442
      11        0.000018255680    -0.000040284362    -0.000062712094
      12       -0.000003417103     0.000017681491    -0.000012959469
      13        0.000007091831     0.000003591845     0.000015890682
      14        0.000004408871    -0.000020778825    -0.000069456481
      15       -0.000001866138    -0.000020909944    -0.000003581363
      16        0.000004564135     0.000000713252    -0.000011640731
      17       -0.000024292797     0.000009199576     0.000012925486
      18       -0.000012820672    -0.000006322336    -0.000001783812
      19        0.000012432403    -0.000003151034     0.000006711123
      20        0.000007112506     0.000009475958     0.000005733630

  **** Optimization is complete! (in 11 steps) ****
    Final optimized geometry and variables:
    Molecular point group: c1

    Geometry (in Angstrom), charge = 0, multiplicity = 1:

    O           -0.530039134072     0.426616437426     1.653007951540
    C           -1.236046295655     0.566050621642     0.707103359501
    C           -2.156730006466     1.739594185312     0.498195918095
    O           -1.342501982634    -0.296450675500    -0.291414881663
    H           -3.176776590799     1.389807248929     0.390249900955
    H           -2.082465968083     2.412364742830     1.339525853873
    H           -1.889200070770     2.256696854930    -0.416157861807
    C           -0.464068635599    -1.413387812326    -0.449799945789
    C            1.022357149539    -1.162159301491    -0.210309841578
    H           -0.582786108977    -1.666546394840    -1.494061589072
    H           -0.825816602860    -2.223424041936     0.169531800773
    C            1.606839971975    -0.030318794997    -1.057844184182
    H            1.516704071805    -2.095277253088    -0.477968582611
    H            1.220436517437    -0.986405915822     0.836309278390
    C            3.118148184379     0.108058155612    -0.878143301013
    H            1.380606553743    -0.206215894068    -2.107780232865
    H            1.132723875089     0.910381923337    -0.794513303408
    H            3.512032044332     0.917503242578    -1.484644229083
    H            3.633785653475    -0.803440399083    -1.167310563269
    H            3.369479007034     0.316782065841     0.157342885110

  Mulliken Charges: (a.u.)
   Center  Symbol    Alpha    Beta     Spin     Total
       1     O     4.28427  4.28427  0.00000 -0.56854
       2     C     2.61642  2.61642  0.00000  0.76715
       3     C     3.28170  3.28170  0.00000 -0.56341
       4     O     4.31553  4.31553  0.00000 -0.63107
       5     H     0.40010  0.40010  0.00000  0.19980
       6     H     0.39780  0.39780  0.00000  0.20440
       7     H     0.40172  0.40172  0.00000  0.19655
       8     C     2.99311  2.99311  0.00000  0.01379
       9     C     3.18062  3.18062  0.00000 -0.36124
      10     H     0.41125  0.41125  0.00000  0.17751
      11     H     0.41018  0.41018  0.00000  0.17964
      12     C     3.15388  3.15388  0.00000 -0.30775
      13     H     0.42115  0.42115  0.00000  0.15771
      14     H     0.39166  0.39166  0.00000  0.21668
      15     C     3.23994  3.23994  0.00000 -0.47988
      16     H     0.42422  0.42422  0.00000  0.15156
      17     H     0.41897  0.41897  0.00000  0.16206
      18     H     0.41858  0.41858  0.00000  0.16285
      19     H     0.42225  0.42225  0.00000  0.15549
      20     H     0.41665  0.41665  0.00000  0.16671

   Total alpha = 32.00000, Total beta = 32.00000, Total charge =  0.00000
