                              Psi4 1.0.54 Driver

  ==> Input File <==

--------------------------------------------------------------------------
set {
	reference rhf
	basis cc-pvtz
}

set_num_threads( 4 )
memory 2 gb

molecule MOL {
0 1

H	 -1.835082	 1.385983	 0.000069
C	 -1.300516	 0.441153	 -0.000028
O	 -0.006604	 0.654344	 -0.000106
O	 -1.828920	 -0.612308	 0.000113
C	 0.852093	 -0.482521	 -0.000161
C	 0.267654	 -1.501755	 -0.948999
H	 0.920930	 -0.868240	 1.007033
H	 1.841214	 -0.173099	 -0.306529
H	 -0.723820	 -1.799373	 -0.632182
H	 0.899142	 -2.381831	 -0.972330
H	 0.201064	 -1.100728	 -1.952349

	symmetry c1
}
set optking {
	frozen_dihedral = ("
		7 5 3 2
	")
}

ee,wfn = optimize('scf', return_wfn=True)
oeprop( wfn, 'DIPOLE', 'QUADRUPOLE', 'MULLIKEN_CHARGES')
f=open( 'psi4out.xyz', 'w' )
f.write( "11  " )
f.write( str(ee) + "\n" )
f.write( MOL.save_string_xyz() )
f.close()
--------------------------------------------------------------------------

    Molecular point group: c1
  Charge       = 0
  Multiplicity = 1
  Basis Set: CC-PVTZ
  Basis Set:
  @DF-RHF Final Energy:  -266.90270879002958
    Total Energy =                       -266.9027087900295783
    Molecular point group: c1
  Basis Set: CC-PVTZ
  Basis Set:
  Basis Set: CC-PVTZ
  Basis Set:
  @DF-RHF Final Energy:  -266.89530906247137
    Total Energy =                       -266.8953090624712559
  Basis Set: CC-PVTZ
  Basis Set:
  Basis Set: CC-PVTZ
  Basis Set:
  @DF-RHF Final Energy:  -266.91141916978728
    Total Energy =                       -266.9114191697871661
  Basis Set: CC-PVTZ
  Basis Set:
  Basis Set: CC-PVTZ
  Basis Set:
  @DF-RHF Final Energy:  -266.91982015823089
    Total Energy =                       -266.9198201582310048
  Basis Set: CC-PVTZ
  Basis Set:
  @DF-RHF Final Energy:  -266.92291155005745
    Total Energy =                       -266.9229115500572789
  @DF-RHF Final Energy:  -266.92437073792087
    Total Energy =                       -266.9243707379208104
  @DF-RHF Final Energy:  -266.92287953247592
    Total Energy =                       -266.9228795324759744
  @DF-RHF Final Energy:  -266.92440101512796
    Total Energy =                       -266.9244010151279554
  Basis Set: CC-PVTZ
  Basis Set:
  @DF-RHF Final Energy:  -266.92597663958577
    Total Energy =                       -266.9259766395858264
  Basis Set: CC-PVTZ
  Basis Set:
  Basis Set: CC-PVTZ
  Basis Set:
  @DF-RHF Final Energy:  -266.92601745524871
    Total Energy =                       -266.9260174552487115
  Basis Set: CC-PVTZ
  Basis Set:
  Basis Set: CC-PVTZ
  Basis Set:
  @DF-RHF Final Energy:  -266.92601958863264
    Total Energy =                       -266.9260195886324709
  Basis Set: CC-PVTZ
  Basis Set:
  Charge       = 0
  Multiplicity = 1
  Basis Set: CC-PVTZ
  Basis Set:

    Orbital Energies (a.u.)
    -----------------------

    Doubly Occupied:

       1A    -20.603880     2A    -20.544163     3A    -11.370461
       4A    -11.293346     5A    -11.219763     6A     -1.475596
       7A     -1.377100     8A     -1.049471     9A     -0.918205
      10A     -0.795852    11A     -0.735637    12A     -0.687257
      13A     -0.663734    14A     -0.624123    15A     -0.578086
      16A     -0.545306    17A     -0.531624    18A     -0.503824
      19A     -0.461178    20A     -0.451080

  @DF-RHF Final Energy:  -266.92601979909875

   => Energetics <=

    Nuclear Repulsion Energy =            182.9984326224254403
    One-Electron Energy =                -726.9895338795658972
    Two-Electron Energy =                 277.0650814580418455
    DFT Exchange-Correlation Energy =       0.0000000000000000
    Empirical Dispersion Energy =           0.0000000000000000
    PCM Polarization Energy =               0.0000000000000000
    EFP Energy =                            0.0000000000000000
    Total Energy =                       -266.9260197990986399
    Molecular point group: c1
  Basis Set: CC-PVTZ
  Basis Set:

  -Total Gradient:
     Atom            X                  Y                   Z
    ------   -----------------  -----------------  -----------------
       1       -0.000006517395    -0.000013472467    -0.000000533072
       2       -0.000324174240     0.000048777922    -0.005374816600
       3        0.001644384495     0.000540747683     0.008168874115
       4        0.000006798058     0.000015348608    -0.000000239383
       5       -0.006339381132    -0.003341483080    -0.003537087240
       6       -0.000023078779     0.000031907852    -0.000009985473
       7        0.005044952939     0.002752315564     0.000745027137
       8        0.000005563317    -0.000027220895    -0.000010883074
       9       -0.000011108119    -0.000000565774     0.000007932419
      10        0.000002395597    -0.000003960249     0.000003820534
      11        0.000000165254    -0.000002395162     0.000007890637

  **** Optimization is complete! (in 11 steps) ****
    Final optimized geometry and variables:
    Molecular point group: c1

    Geometry (in Angstrom), charge = 0, multiplicity = 1:

    H           -1.106744048678     1.967673136573     0.137285688491
    C           -0.796130431005     0.931574353497     0.234755590197
    O            0.509922365182     0.856718366701     0.157197736956
    O           -1.548956127450     0.041316368468     0.406775488848
    C            1.192307178453    -0.397412362202     0.105493354005
    C            0.654790675424    -1.403096671476    -0.892516627732
    H            1.258777405522    -0.792277270738     1.110766119787
    H            2.193822130505    -0.111278660981    -0.180106772654
    H           -0.292775040131    -1.818007597550    -0.593423474859
    H            1.378249563859    -2.205948063435    -0.980067799618
    H            0.545200748065    -0.946368104523    -1.869361424611

  Mulliken Charges: (a.u.)
   Center  Symbol    Alpha    Beta     Spin     Total
       1     H     0.44747  0.44747  0.00000  0.10505
       2     C     2.84108  2.84108  0.00000  0.31783
       3     O     4.14790  4.14790  0.00000 -0.29581
       4     O     4.19713  4.19713  0.00000 -0.39426
       5     C     2.97651  2.97651  0.00000  0.04697
       6     C     3.15449  3.15449  0.00000 -0.30898
       7     H     0.45351  0.45351  0.00000  0.09298
       8     H     0.44698  0.44698  0.00000  0.10604
       9     H     0.43337  0.43337  0.00000  0.13326
      10     H     0.44975  0.44975  0.00000  0.10050
      11     H     0.45179  0.45179  0.00000  0.09642

   Total alpha = 20.00000, Total beta = 20.00000, Total charge = -0.00000

*** Psi4 exiting successfully. Buy a developer a beer!
