  ==> Input File <==

--------------------------------------------------------------------------
set {
	reference rhf
	basis 6-31G*
}

set_num_threads( 4 )
memory 2 gb

molecule MOL {
0 1

H	 -3.135461	 -1.215070	 0.001379
O	 -2.310168	 -0.871793	 -0.309793
C	 -2.026376	 0.340750	 0.341611
C	 -0.673256	 0.843270	 -0.132153
H	 -2.792215	 1.080697	 0.115987
H	 -2.013526	 0.200402	 1.421792
C	 0.486613	 -0.083066	 0.235839
H	 -0.715586	 0.970948	 -1.210718
H	 -0.508072	 1.829858	 0.297090
C	 0.244355	 -1.535196	 -0.179424
H	 0.655597	 -0.033212	 1.306573
H	 1.398224	 0.278110	 -0.238880
C	 1.405954	 -2.459835	 0.183071
H	 -0.665434	 -1.897462	 0.294669
H	 0.068154	 -1.581736	 -1.252378
H	 1.584428	 -2.461763	 1.254535
H	 1.205475	 -3.482706	 -0.121044
H	 2.324830	 -2.144281	 -0.303349

	symmetry c1
}
set optking {
	frozen_dihedral = ("
		10 7 4 8
	")
}

ee = optimize('scf')
oeprop('DIPOLE', 'QUADRUPOLE', 'MULLIKEN_CHARGES')
f=open( 'psi4out.xyz', 'w' )
f.write( "18  " )
f.write( str(ee) + "\n" )
f.write( MOL.save_string_xyz() )
f.close()
--------------------------------------------------------------------------

    Molecular point group: c1
  Charge       = 0
  Multiplicity = 1
  Basis Set: 6-31G*
  Basis Set:
  @DF-RHF Final Energy:  -271.16809388483875
    Total Energy =                       -271.1680938848387541
    Molecular point group: c1
  Basis Set: 6-31G*
  Basis Set:
  Basis Set: 6-31G*
  Basis Set:
  @DF-RHF Final Energy:  -271.17469531060226
    Total Energy =                       -271.1746953106023739
  Basis Set: 6-31G*
  Basis Set:
  Basis Set: 6-31G*
  Basis Set:
  @DF-RHF Final Energy:  -271.17595283374698
    Total Energy =                       -271.1759528337467486
  Basis Set: 6-31G*
  Basis Set:
  Basis Set: 6-31G*
  Basis Set:
  @DF-RHF Final Energy:  -271.17626420618865
    Total Energy =                       -271.1762642061886481
  Basis Set: 6-31G*
  Basis Set:
  Basis Set: 6-31G*
  Basis Set:
  @DF-RHF Final Energy:  -271.17630994992572
    Total Energy =                       -271.1763099499255532
  Basis Set: 6-31G*
  Basis Set:
  Basis Set: 6-31G*
  Basis Set:
  @DF-RHF Final Energy:  -271.17635105070758
    Total Energy =                       -271.1763510507072965
  Basis Set: 6-31G*
  Basis Set:
  Basis Set: 6-31G*
  Basis Set:
  @DF-RHF Final Energy:  -271.17635474869667
    Total Energy =                       -271.1763547486966672
  Basis Set: 6-31G*
  Basis Set:
  Charge       = 0
  Multiplicity = 1
  Basis Set: 6-31G*
  Basis Set:

    Orbital Energies (a.u.)
    -----------------------

    Doubly Occupied:

       1A    -20.553653     2A    -11.269196     3A    -11.213339
       4A    -11.210151     5A    -11.202277     6A    -11.200809
       7A     -1.360428     8A     -1.071797     9A     -1.005882
      10A     -0.912564    11A     -0.827298    12A     -0.771593
      13A     -0.701964    14A     -0.649828    15A     -0.616832
      16A     -0.575171    17A     -0.570837    18A     -0.553329
      19A     -0.529032    20A     -0.505248    21A     -0.485361
      22A     -0.462845    23A     -0.451779    24A     -0.447667
      25A     -0.425596

  @DF-RHF Final Energy:  -271.17635506779573

   => Energetics <=

    Nuclear Repulsion Energy =            254.5986073275866204
    One-Electron Energy =                -872.4009770844936611
    Two-Electron Energy =                 346.6260146891113436
    DFT Exchange-Correlation Energy =       0.0000000000000000
    Empirical Dispersion Energy =           0.0000000000000000
    PCM Polarization Energy =               0.0000000000000000
    EFP Energy =                            0.0000000000000000
    Total Energy =                       -271.1763550677957255
    Molecular point group: c1
  Basis Set: 6-31G*
  Basis Set:

  -Total Gradient:
     Atom            X                  Y                   Z
    ------   -----------------  -----------------  -----------------
       1        0.000010799953     0.000011381819     0.000005635593
       2        0.000021271060     0.000019238986    -0.000018234530
       3       -0.000007440045    -0.000022453180     0.000025543652
       4       -0.002482760727    -0.002853776533     0.000551904567
       5        0.000006897457     0.000004870041    -0.000009956444
       6        0.000009746011     0.000013560761     0.000005113388
       7        0.001667225007     0.001057590223    -0.002524112846
       8        0.001660884082     0.002144634996     0.000182359676
       9       -0.000023543967    -0.000006388231     0.000001931442
      10       -0.000853483688    -0.000325699283     0.001765956365
      11        0.000000471492    -0.000006723871    -0.000006984709
      12        0.000004565364    -0.000001961018     0.000002275978
      13       -0.000012629656    -0.000004211514    -0.000013269235
      14       -0.000022729638    -0.000019856566     0.000019147684
      15        0.000014476889     0.000007603953     0.000010771069
      16        0.000000654907     0.000009713916    -0.000004029266
      17        0.000004057747    -0.000022206283     0.000005490248
      18        0.000001537747    -0.000005318215     0.000000457368

  **** Optimization is complete! (in 8 steps) ****
    Final optimized geometry and variables:
    Molecular point group: c1

    Geometry (in Angstrom), charge = 0, multiplicity = 1:

    H           -2.879983538350    -0.283356574949    -0.127846609089
    O           -2.028515182438    -0.024833850800    -0.450880004436
    C           -1.520213908099     1.017027339039     0.343905556238
    C           -0.138255815886     1.412267457113    -0.153920695534
    H           -2.179867144383     1.880857211784     0.288086796894
    H           -1.468102473397     0.714127938139     1.389289451496
    C            1.020668836484     0.481833863261     0.228856705912
    H           -0.180597708356     1.540288488194    -1.232153674810
    H            0.082930090863     2.397165064023     0.253414136089
    C            0.860171519573    -0.994463900036    -0.144269384405
    H            1.181508994356     0.551842321581     1.304423541232
    H            1.926191182895     0.869683941385    -0.233274566136
    C            2.109976203294    -1.809456233585     0.189108176660
    H            0.004406970244    -1.414396838165     0.371245967651
    H            0.640465304200    -1.080320644026    -1.204948129610
    H            2.341121304602    -1.760652739858     1.250144585705
    H            1.977578896805    -2.855408171438    -0.070898097941
    H            2.977501923343    -1.442212313036    -0.352653132604

  Mulliken Charges: (a.u.)
   Center  Symbol    Alpha    Beta     Spin     Total
       1     H     0.28110  0.28110  0.00000  0.43780
       2     O     4.36802  4.36802  0.00000 -0.73604
       3     C     2.99903  2.99903  0.00000  0.00195
       4     C     3.16018  3.16018  0.00000 -0.32037
       5     H     0.42869  0.42869  0.00000  0.14263
       6     H     0.43229  0.43229  0.00000  0.13542
       7     C     3.15404  3.15404  0.00000 -0.30807
       8     H     0.41281  0.41281  0.00000  0.17438
       9     H     0.42251  0.42251  0.00000  0.15498
      10     C     3.14656  3.14656  0.00000 -0.29312
      11     H     0.42734  0.42734  0.00000  0.14533
      12     H     0.42261  0.42261  0.00000  0.15478
      13     C     3.24105  3.24105  0.00000 -0.48210
      14     H     0.41620  0.41620  0.00000  0.16760
      15     H     0.41887  0.41887  0.00000  0.16225
      16     H     0.42470  0.42470  0.00000  0.15059
      17     H     0.42018  0.42018  0.00000  0.15965
      18     H     0.42383  0.42383  0.00000  0.15234

   Total alpha = 25.00000, Total beta = 25.00000, Total charge = -0.00000
