  ==> Input File <==

--------------------------------------------------------------------------
set {
	reference rhf
	basis 6-31G*
}

set_num_threads( 4 )
memory 2 gb

molecule MOL {
0 1

H	 -2.416967	 -0.214064	 -0.793166
C	 -1.888473	 0.557717	 -0.243267
N	 -0.528168	 0.128977	 -0.000000
H	 -2.400510	 0.699141	 0.701642
H	 -1.964002	 1.485457	 -0.816730
C	 0.248044	 -0.037491	 -1.209632
H	 -0.071977	 0.779828	 0.607710
H	 0.998722	 0.743888	 -1.266824
H	 -0.398417	 0.061950	 -2.074060
H	 0.763621	 -0.999315	 -1.275517

	symmetry c1
}
set optking {
	frozen_dihedral = ("
		2 3 6 8
	")
}

ee = optimize('scf')
oeprop('DIPOLE', 'QUADRUPOLE', 'MULLIKEN_CHARGES')
f=open( 'psi4out.xyz', 'w' )
f.write( "10  " )
f.write( str(ee) + "\n" )
f.write( MOL.save_string_xyz() )
f.close()
--------------------------------------------------------------------------

    Molecular point group: c1
  Charge       = 0
  Multiplicity = 1
  Basis Set: 6-31G*
  Basis Set:
  @DF-RHF Final Energy:  -134.23254969561083
    Total Energy =                       -134.2325496956108282
    Molecular point group: c1
  Basis Set: 6-31G*
  Basis Set:
  Basis Set: 6-31G*
  Basis Set:
  @DF-RHF Final Energy:  -134.23347696996836
    Total Energy =                       -134.2334769699683648
  Basis Set: 6-31G*
  Basis Set:
  Basis Set: 6-31G*
  Basis Set:
  @DF-RHF Final Energy:  -134.23359579128737
    Total Energy =                       -134.2335957912873994
  Basis Set: 6-31G*
  Basis Set:
  Basis Set: 6-31G*
  Basis Set:
  @DF-RHF Final Energy:  -134.23359977926509
    Total Energy =                       -134.2335997792650630
  Basis Set: 6-31G*
  Basis Set:
  Charge       = 0
  Multiplicity = 1
  Basis Set: 6-31G*
  Basis Set:

    Orbital Energies (a.u.)
    -----------------------

    Doubly Occupied:

       1A    -15.534010     2A    -11.236065     3A    -11.235609
       4A     -1.193818     5A     -0.947620     6A     -0.854595
       7A     -0.659879     8A     -0.607651     9A     -0.587822
      10A     -0.545103    11A     -0.511929    12A     -0.506581
      13A     -0.353860

  @DF-RHF Final Energy:  -134.23360047066916

   => Energetics <=

    Nuclear Repulsion Energy =             84.3582921810744466
    One-Electron Energy =                -347.6347041564986284
    Two-Electron Energy =                 129.0428115047550364
    DFT Exchange-Correlation Energy =       0.0000000000000000
    Empirical Dispersion Energy =           0.0000000000000000
    PCM Polarization Energy =               0.0000000000000000
    EFP Energy =                            0.0000000000000000
    Total Energy =                       -134.2336004706691597
    Molecular point group: c1
  Basis Set: 6-31G*
  Basis Set:

  -Total Gradient:
     Atom            X                  Y                   Z
    ------   -----------------  -----------------  -----------------
       1        0.000003811337     0.000000328773    -0.000001015796
       2       -0.000373026668    -0.001130444010    -0.000074937204
       3        0.000749763196     0.001372058993     0.000374441247
       4       -0.000000810789    -0.000000730246    -0.000004131623
       5        0.000021953894    -0.000012006768     0.000009383706
       6       -0.001370045563     0.000661141565    -0.001135757532
       7       -0.000003334682     0.000010041881    -0.000002959663
       8        0.000971783303    -0.000902768522     0.000793810721
       9        0.000001000865     0.000004394997     0.000037639525
      10       -0.000001094892    -0.000002016663     0.000003526618

  **** Optimization is complete! (in 5 steps) ****
    Final optimized geometry and variables:
    Molecular point group: c1

    Geometry (in Angstrom), charge = 0, multiplicity = 1:

    H           -1.710152614955    -0.442941721137    -0.288864483566
    C           -1.176867316685     0.320763616004     0.266715087410
    N            0.188701123646    -0.103135002426     0.484808510627
    H           -1.674158388892     0.436063808133     1.223200321988
    H           -1.273514716734     1.261470823285    -0.281790403484
    C            0.990216407245    -0.268127120222    -0.718472077112
    H            0.643070736265     0.507244038527     1.130831701531
    H            1.759927284638     0.494686428169    -0.813279455892
    H            0.367919092862    -0.216766034145    -1.605489030376
    H            1.487449501211    -1.233497231989    -0.721714826888

  Mulliken Charges: (a.u.)
   Center  Symbol    Alpha    Beta     Spin     Total
       1     H     0.41784  0.41784  0.00000  0.16431
       2     C     3.14235  3.14235  0.00000 -0.28470
       3     N     3.84682  3.84682  0.00000 -0.69365
       4     H     0.41816  0.41816  0.00000  0.16367
       5     H     0.43513  0.43513  0.00000  0.12974
       6     C     3.14369  3.14369  0.00000 -0.28738
       7     H     0.33050  0.33050  0.00000  0.33901
       8     H     0.42730  0.42730  0.00000  0.14539
       9     H     0.42153  0.42153  0.00000  0.15694
      10     H     0.41667  0.41667  0.00000  0.16666

   Total alpha = 13.00000, Total beta = 13.00000, Total charge = -0.00000
