  ==> Input File <==

--------------------------------------------------------------------------
set {
	reference rhf
	basis 6-31G*
}

set_num_threads( 4 )
memory 2 gb

molecule MOL {
0 1

H	 2.288329	 -1.829100	 0.533243
O	 2.826016	 -1.159218	 0.122261
C	 2.077727	 -0.067559	 -0.035091
C	 0.624473	 -0.343591	 0.253101
O	 2.542965	 0.974826	 -0.363729
C	 -0.265902	 0.883932	 0.072916
H	 0.324016	 -1.163849	 -0.390541
H	 0.565024	 -0.726111	 1.268924
C	 -1.728698	 0.646073	 0.462102
H	 -0.209144	 1.219470	 -0.958188
H	 0.135059	 1.692851	 0.673903
C	 -2.482460	 -0.343073	 -0.431425
H	 -2.245265	 1.602650	 0.432430
H	 -1.779332	 0.308348	 1.496285
C	 -3.960546	 -0.461025	 -0.060175
H	 -2.395034	 -0.026811	 -1.468912
H	 -2.024850	 -1.327147	 -0.371646
H	 -4.472726	 -1.168004	 -0.705284
H	 -4.465146	 0.496508	 -0.151489
H	 -4.081218	 -0.800940	 0.964585

	symmetry c1
}
set optking {
	frozen_dihedral = ("
		1 2 3 5
	")
}

ee = optimize('scf')
oeprop('DIPOLE', 'QUADRUPOLE', 'MULLIKEN_CHARGES')
f=open( 'psi4out.xyz', 'w' )
f.write( "20  " )
f.write( str(ee) + "\n" )
f.write( MOL.save_string_xyz() )
f.close()
--------------------------------------------------------------------------

    Molecular point group: c1
  Charge       = 0
  Multiplicity = 1
  Basis Set: 6-31G*
  Basis Set:
  @DF-RHF Final Energy:  -383.93577583311674
    Total Energy =                       -383.9357758331169066
    Molecular point group: c1
  Basis Set: 6-31G*
  Basis Set:
  Basis Set: 6-31G*
  Basis Set:
  @DF-RHF Final Energy:  -383.93717944998320
    Total Energy =                       -383.9371794499833186
  Basis Set: 6-31G*
  Basis Set:
  Basis Set: 6-31G*
  Basis Set:
  @DF-RHF Final Energy:  -383.93737612513286
    Total Energy =                       -383.9373761251329142
  Basis Set: 6-31G*
  Basis Set:
  Basis Set: 6-31G*
  Basis Set:
  @DF-RHF Final Energy:  -383.93733375499369
    Total Energy =                       -383.9373337549939151
  Basis Set: 6-31G*
  Basis Set:
  Basis Set: 6-31G*
  Basis Set:
  @DF-RHF Final Energy:  -383.93738254834739
    Total Energy =                       -383.9373825483477845
  Basis Set: 6-31G*
  Basis Set:
  Charge       = 0
  Multiplicity = 1
  Basis Set: 6-31G*
  Basis Set:

    Orbital Energies (a.u.)
    -----------------------

    Doubly Occupied:

       1A    -20.612113     2A    -20.547234     3A    -11.380243
       4A    -11.252190     5A    -11.228828     6A    -11.226006
       7A    -11.225414     8A    -11.216707     9A     -1.467823
      10A     -1.369620    11A     -1.101597    12A     -1.044506
      13A     -0.961032    14A     -0.866444    15A     -0.830872
      16A     -0.793663    17A     -0.720698    18A     -0.669007
      19A     -0.658313    20A     -0.636321    21A     -0.610723
      22A     -0.600929    23A     -0.571537    24A     -0.564038
      25A     -0.547087    26A     -0.517215    27A     -0.501500
      28A     -0.476743    29A     -0.474282    30A     -0.472318
      31A     -0.462742    32A     -0.439415

  @DF-RHF Final Energy:  -383.93738261235001

   => Energetics <=

    Nuclear Repulsion Energy =            375.9150605092094111
    One-Electron Energy =               -1267.6105620092562276
    Two-Electron Energy =                 507.7581188876966962
    DFT Exchange-Correlation Energy =       0.0000000000000000
    Empirical Dispersion Energy =           0.0000000000000000
    PCM Polarization Energy =               0.0000000000000000
    EFP Energy =                            0.0000000000000000
    Total Energy =                       -383.9373826123501203
    Molecular point group: c1
  Basis Set: 6-31G*
  Basis Set:

  -Total Gradient:
     Atom            X                  Y                   Z
    ------   -----------------  -----------------  -----------------
       1        0.000680618413     0.000812154120     0.002225228024
       2       -0.000743530228    -0.000832297480    -0.001865919303
       3       -0.000252423954    -0.000556573454    -0.002450567882
       4        0.000022844667     0.000003635560     0.000021313312
       5        0.000303121996     0.000577310998     0.002065175605
       6       -0.000016806105    -0.000001478736    -0.000023240972
       7        0.000023732719     0.000018737970     0.000012569817
       8       -0.000005897963    -0.000001638408     0.000005198996
       9        0.000000394330    -0.000015076315     0.000016067164
      10        0.000004556374    -0.000015270188    -0.000005551815
      11       -0.000008938750     0.000003056592    -0.000003936018
      12       -0.000003113535    -0.000001345851     0.000002594595
      13        0.000003279041     0.000003711296     0.000010065694
      14        0.000009021542    -0.000013579863     0.000000699557
      15        0.000000098101     0.000015998229    -0.000007304582
      16        0.000004487231    -0.000006914715    -0.000007158669
      17       -0.000021830238     0.000007079368     0.000005893626
      18        0.000001249439     0.000003946398    -0.000003146133
      19       -0.000003725813     0.000000940011     0.000004049104
      20        0.000002862728    -0.000002395532    -0.000002030119

  **** Optimization is complete! (in 6 steps) ****
    Final optimized geometry and variables:
    Molecular point group: c1

    Geometry (in Angstrom), charge = 0, multiplicity = 1:

    H            2.462576634735    -1.857510803587     0.520643568044
    O            2.902679156375    -1.125501287273     0.109663286591
    C            2.090681794440    -0.070972511575    -0.036452627101
    C            0.628428841847    -0.345723960886     0.254031602922
    O            2.528101696189     0.975268432640    -0.367678632754
    C           -0.260569189486     0.882409300210     0.069548866722
    H            0.316368405032    -1.163490606775    -0.390372728125
    H            0.553972675605    -0.717354568694     1.275722900663
    C           -1.724490367967     0.650464660858     0.457285093936
    H           -0.198380504690     1.212147157218    -0.962512089876
    H            0.144729244165     1.690404190831     0.667912534123
    C           -2.482629576350    -0.335510833157    -0.436132981013
    H           -2.235719170001     1.609610869668     0.425482752361
    H           -1.778892759023     0.315195245529     1.492218700448
    C           -3.962884063463    -0.440997389823    -0.069951752254
    H           -2.388738101928    -0.023290202634    -1.474134947850
    H           -2.033312823316    -1.323513174334    -0.372062708164
    H           -4.478062543659    -1.145774573625    -0.714952486055
    H           -4.459366579875     0.520148098926    -0.166204319249
    H           -4.090201380887    -0.776650963121     0.955416518270

  Mulliken Charges: (a.u.)
   Center  Symbol    Alpha    Beta     Spin     Total
       1     H     0.26885  0.26885  0.00000  0.46230
       2     O     4.35268  4.35268  0.00000 -0.70535
       3     C     2.60527  2.60527  0.00000  0.78945
       4     C     3.23977  3.23977  0.00000 -0.47953
       5     O     4.26345  4.26345  0.00000 -0.52691
       6     C     3.15213  3.15213  0.00000 -0.30426
       7     H     0.40118  0.40118  0.00000  0.19763
       8     H     0.40751  0.40751  0.00000  0.18499
       9     C     3.15649  3.15649  0.00000 -0.31299
      10     H     0.40898  0.40898  0.00000  0.18205
      11     H     0.40500  0.40500  0.00000  0.19000
      12     C     3.15468  3.15468  0.00000 -0.30936
      13     H     0.41610  0.41610  0.00000  0.16779
      14     H     0.42426  0.42426  0.00000  0.15149
      15     C     3.23932  3.23932  0.00000 -0.47864
      16     H     0.42010  0.42010  0.00000  0.15980
      17     H     0.42540  0.42540  0.00000  0.14920
      18     H     0.41779  0.41779  0.00000  0.16443
      19     H     0.41960  0.41960  0.00000  0.16080
      20     H     0.42144  0.42144  0.00000  0.15711

   Total alpha = 32.00000, Total beta = 32.00000, Total charge =  0.00000
