  ==> Input File <==

--------------------------------------------------------------------------
set {
	reference rhf
	basis 6-31G*
}

set_num_threads( 1 )
memory 2 gb

molecule MOL {
0 1

H	 -3.407059	 -1.043082	 0.000000
O	 -3.119761	 -0.140267	 0.000000
C	 -1.777559	 -0.059267	 0.000000
C	 -1.037447	 -0.014602	 -1.177812
C	 -1.140286	 -0.020808	 1.233884
H	 -1.539189	 -0.044881	 -2.129992
C	 0.337770	 0.068390	 -1.116903
H	 -1.733014	 -0.056578	 2.128124
C	 0.235779	 0.062235	 1.278425
H	 0.921302	 0.103606	 -2.017654
C	 0.990855	 0.107803	 0.110773
H	 0.730118	 0.092068	 2.234354
C	 2.462961	 0.196643	 0.174203
O	 3.182295	 0.240053	 -0.775235
H	 2.880920	 0.221866	 1.186053

	symmetry c1
}
set optking {
	frozen_dihedral = ("
		7 11 13 14
	")
}

ee = energy('scf')
oeprop('DIPOLE', 'QUADRUPOLE', 'MULLIKEN_CHARGES')
f=open( 'psi4out.xyz', 'w' )
f.write( "15  " )
f.write( str(ee) + "\n" )
f.write( MOL.save_string_xyz() )
f.close()
--------------------------------------------------------------------------

    Molecular point group: c1

    Geometry (in Angstrom), charge = 0, multiplicity = 1:

       Center              X                  Y                   Z               Mass
    ------------   -----------------  -----------------  -----------------  -----------------
           H         -3.404612034880    -1.083628028559     0.040619972832     1.007825032070
           O         -3.117314034880    -0.180813028559     0.040619972832    15.994914619560
           C         -1.775112034880    -0.099813028559     0.040619972832    12.000000000000
           C         -1.035000034880    -0.055148028559    -1.137192027168    12.000000000000
           C         -1.137839034880    -0.061354028559     1.274503972832    12.000000000000
           H         -1.536742034880    -0.085427028559    -2.089372027168     1.007825032070
           C          0.340216965120     0.027843971441    -1.076283027168    12.000000000000
           H         -1.730567034880    -0.097124028559     2.168743972832     1.007825032070
           C          0.238225965120     0.021688971441     1.319044972832    12.000000000000
           H          0.923748965120     0.063059971441    -1.977034027168     1.007825032070
           C          0.993301965120     0.067256971441     0.151392972832    12.000000000000
           H          0.732564965120     0.051521971441     2.274973972832     1.007825032070
           C          2.465407965120     0.156096971441     0.214822972832    12.000000000000
           O          3.184741965120     0.199506971441    -0.734615027168    15.994914619560
           H          2.883366965120     0.181319971441     1.226672972832     1.007825032070

  Charge       = 0
  Multiplicity = 1
  Basis Set: 6-31G*
  Basis Set:

    Orbital Energies (a.u.)
    -----------------------

    Doubly Occupied:

       1A    -20.593791     2A    -20.560014     3A    -11.330755
       4A    -11.313042     5A    -11.258926     6A    -11.253089
       7A    -11.243933     8A    -11.242213     9A    -11.240859
      10A     -1.420174    11A     -1.400497    12A     -1.169583
      13A     -1.040347    14A     -1.036368    15A     -0.888650
      16A     -0.856806    17A     -0.798140    18A     -0.754633
      19A     -0.706135    20A     -0.673082    21A     -0.647557
      22A     -0.630803    23A     -0.618917    24A     -0.606295
      25A     -0.560371    26A     -0.552671    27A     -0.536372
      28A     -0.494126    29A     -0.479948    30A     -0.421720
      31A     -0.354981    32A     -0.339249

  @DF-RHF Final Energy:  -418.28310328422589

   => Energetics <=

    Nuclear Repulsion Energy =            401.2925103432219771
    One-Electron Energy =               -1365.1030544084424037
    Two-Electron Energy =                 545.5274407809941977
    DFT Exchange-Correlation Energy =       0.0000000000000000
    Empirical Dispersion Energy =           0.0000000000000000
    PCM Polarization Energy =               0.0000000000000000
    EFP Energy =                            0.0000000000000000
    Total Energy =                       -418.2831032842262857

  Mulliken Charges: (a.u.)
   Center  Symbol    Alpha    Beta     Spin     Total
       1     H     0.26677  0.26677  0.00000  0.46646
       2     O     4.38296  4.38296  0.00000 -0.76593
       3     C     2.80772  2.80772  0.00000  0.38457
       4     C     3.12387  3.12387  0.00000 -0.24774
       5     C     3.12397  3.12397  0.00000 -0.24794
       6     H     0.38899  0.38899  0.00000  0.22202
       7     C     3.08469  3.08469  0.00000 -0.16938
       8     H     0.38959  0.38959  0.00000  0.22082
       9     C     3.09799  3.09799  0.00000 -0.19599
      10     H     0.37516  0.37516  0.00000  0.24967
      11     C     3.06079  3.06079  0.00000 -0.12158
      12     H     0.39114  0.39114  0.00000  0.21771
      13     C     2.83081  2.83081  0.00000  0.33839
      14     O     4.25178  4.25178  0.00000 -0.50356
      15     H     0.42376  0.42376  0.00000  0.15248

   Total alpha = 32.00000, Total beta = 32.00000, Total charge =  0.00000
