  ==> Input File <==

--------------------------------------------------------------------------
set {
	reference rhf
	basis 6-31G*
}

set_num_threads( 4 )
memory 2 gb

molecule MOL {
0 1

H	 -2.172150	 0.880146	 0.502514
C	 -2.018062	 -0.000025	 -0.114509
O	 -0.774054	 0.001095	 -0.743181
H	 -2.760490	 0.003458	 -0.901350
H	 -2.173624	 -0.884374	 0.496163
C	 0.324311	 -0.646102	 -0.125717
C	 1.471614	 -0.428044	 -1.109668
C	 0.661176	 0.001352	 1.221322
C	 0.058789	 -2.145444	 0.043360
H	 1.644640	 0.632709	 -1.252132
H	 1.225021	 -0.861091	 -2.072495
H	 2.388047	 -0.883681	 -0.748826
H	 0.776838	 1.073676	 1.103965
H	 1.590675	 -0.401639	 1.610206
H	 -0.106744	 -0.179512	 1.965729
H	 -0.248295	 -2.581323	 -0.901500
H	 0.959269	 -2.651489	 0.375907
H	 -0.714283	 -2.343854	 0.777951

	symmetry c1
}
set optking {
	frozen_dihedral = ("
		6 3 2 5
	")
}

ee = optimize('scf')
oeprop('DIPOLE', 'QUADRUPOLE', 'MULLIKEN_CHARGES')
f=open( 'psi4out.xyz', 'w' )
f.write( "18  " )
f.write( str(ee) + "\n" )
f.write( MOL.save_string_xyz() )
f.close()
--------------------------------------------------------------------------

    Molecular point group: c1
  Charge       = 0
  Multiplicity = 1
  Basis Set: 6-31G*
  Basis Set:
  @DF-RHF Final Energy:  -271.17391668588516
    Total Energy =                       -271.1739166858851604
    Molecular point group: c1
  Basis Set: 6-31G*
  Basis Set:
  Basis Set: 6-31G*
  Basis Set:
  @DF-RHF Final Energy:  -271.17349391654511
    Total Energy =                       -271.1734939165450555
  Basis Set: 6-31G*
  Basis Set:
  Basis Set: 6-31G*
  Basis Set:
  @DF-RHF Final Energy:  -271.17442427569733
    Total Energy =                       -271.1744242756974472
  Basis Set: 6-31G*
  Basis Set:
  Basis Set: 6-31G*
  Basis Set:
  @DF-RHF Final Energy:  -271.17446460885446
    Total Energy =                       -271.1744646088544641
  Basis Set: 6-31G*
  Basis Set:
  Basis Set: 6-31G*
  Basis Set:
  @DF-RHF Final Energy:  -271.17445567032217
    Total Energy =                       -271.1744556703220042
  Basis Set: 6-31G*
  Basis Set:
  Basis Set: 6-31G*
  Basis Set:
  @DF-RHF Final Energy:  -271.17448112780312
    Total Energy =                       -271.1744811278031762
  Basis Set: 6-31G*
  Basis Set:
  Basis Set: 6-31G*
  Basis Set:
  @DF-RHF Final Energy:  -271.17447838943116
    Total Energy =                       -271.1744783894308739
  Basis Set: 6-31G*
  Basis Set:
  Charge       = 0
  Multiplicity = 1
  Basis Set: 6-31G*
  Basis Set:

    Orbital Energies (a.u.)
    -----------------------

    Doubly Occupied:

       1A    -20.545502     2A    -11.281651     3A    -11.260989
       4A    -11.209524     5A    -11.207897     6A    -11.203289
       7A     -1.369001     8A     -1.072675     9A     -0.946087
      10A     -0.939639    11A     -0.912621    12A     -0.752625
      13A     -0.655322    14A     -0.643792    15A     -0.638284
      16A     -0.590619    17A     -0.572128    18A     -0.552803
      19A     -0.536586    20A     -0.524048    21A     -0.514920
      22A     -0.489555    23A     -0.486943    24A     -0.438550
      25A     -0.402090

  @DF-RHF Final Energy:  -271.17448156898308

   => Energetics <=

    Nuclear Repulsion Energy =            272.2949021929537139
    One-Electron Energy =                -907.4444925470297676
    Two-Electron Energy =                 363.9751087850926865
    DFT Exchange-Correlation Energy =       0.0000000000000000
    Empirical Dispersion Energy =           0.0000000000000000
    PCM Polarization Energy =               0.0000000000000000
    EFP Energy =                            0.0000000000000000
    Total Energy =                       -271.1744815689833672
    Molecular point group: c1
  Basis Set: 6-31G*
  Basis Set:

  -Total Gradient:
     Atom            X                  Y                   Z
    ------   -----------------  -----------------  -----------------
       1       -0.000003912679     0.000001784884     0.000000446255
       2       -0.001369638046    -0.002135586649    -0.002157107034
       3        0.000941292898     0.002471344457     0.001337477967
       4        0.000002364688     0.000000851299     0.000000711494
       5        0.000879868583     0.001083725092     0.001422722883
       6       -0.000442633648    -0.001420445750    -0.000609351270
       7        0.000005300340    -0.000002345712    -0.000006552512
       8       -0.000004140974    -0.000003959279     0.000013065387
       9       -0.000007689624     0.000001917902     0.000004351170
      10        0.000000305005    -0.000000927019    -0.000000835625
      11        0.000002734281     0.000000350712    -0.000002192337
      12        0.000000216995     0.000000441157    -0.000001816328
      13        0.000000342070    -0.000001771668    -0.000000477501
      14       -0.000001595094     0.000000395589    -0.000000472398
      15       -0.000000475259     0.000002062443     0.000004782809
      16       -0.000000471024    -0.000003943697    -0.000002156904
      17       -0.000002984338     0.000008788666    -0.000003810701
      18        0.000001115827    -0.000002682426     0.000001214647

  **** Optimization is complete! (in 8 steps) ****
    Final optimized geometry and variables:
    Molecular point group: c1

    Geometry (in Angstrom), charge = 0, multiplicity = 1:

    H           -2.005155465956     1.519403804819     0.595753938871
    C           -1.936098541427     0.580036893332     0.053350526407
    O           -0.721949755907     0.482366719378    -0.628384550038
    H           -2.728514693441     0.549881719545    -0.683324511020
    H           -2.090822506912    -0.225101848396     0.762592499077
    C            0.390906143521    -0.124541436785     0.003191133345
    C            1.543747123849     0.124329366791    -0.966582903942
    C            0.689094767357     0.536011800155     1.352609902046
    C            0.164929757143    -1.631149774280     0.165756065844
    H            1.694734491356     1.189171586623    -1.102991699973
    H            1.317943763704    -0.310300306999    -1.933764135809
    H            2.465971889026    -0.312647313859    -0.597238176087
    H            0.805696352894     1.607642138032     1.229300457577
    H            1.607345521575     0.139975287708     1.773909392379
    H           -0.102658551750     0.361344604127     2.073722535980
    H           -0.088501539446    -2.074223887114    -0.791180300719
    H            1.064280168067    -2.111087934707     0.538289912257
    H           -0.633967971140    -1.853822326329     0.864630634846

  Mulliken Charges: (a.u.)
   Center  Symbol    Alpha    Beta     Spin     Total
       1     H     0.42644  0.42644  0.00000  0.14713
       2     C     3.07793  3.07793  0.00000 -0.15585
       3     O     4.32027  4.32027  0.00000 -0.64054
       4     H     0.41472  0.41472  0.00000  0.17055
       5     H     0.43056  0.43056  0.00000  0.13889
       6     C     2.84408  2.84408  0.00000  0.31184
       7     C     3.23306  3.23306  0.00000 -0.46611
       8     C     3.24783  3.24783  0.00000 -0.49565
       9     C     3.24348  3.24348  0.00000 -0.48696
      10     H     0.41457  0.41457  0.00000  0.17085
      11     H     0.41372  0.41372  0.00000  0.17255
      12     H     0.42508  0.42508  0.00000  0.14983
      13     H     0.41363  0.41363  0.00000  0.17273
      14     H     0.41904  0.41904  0.00000  0.16193
      15     H     0.42040  0.42040  0.00000  0.15920
      16     H     0.41330  0.41330  0.00000  0.17340
      17     H     0.42105  0.42105  0.00000  0.15791
      18     H     0.42085  0.42085  0.00000  0.15830

   Total alpha = 25.00000, Total beta = 25.00000, Total charge =  0.00000
