  ==> Input File <==

--------------------------------------------------------------------------
set {
	reference rhf
	basis 6-31G*
}

set_num_threads( 4 )
memory 2 gb

molecule MOL {
0 1

H	 -3.161837	 0.500524	 -0.000234
C	 -2.367097	 -0.232926	 -0.000000
O	 -1.158440	 0.455814	 -0.000122
H	 -2.468853	 -0.861886	 -0.882833
H	 -2.468942	 -0.861421	 0.883154
C	 -0.029776	 -0.365156	 0.000148
C	 1.212217	 0.508981	 0.000007
H	 -0.036772	 -1.013236	 -0.877259
H	 -0.036869	 -1.012778	 0.877897
C	 1.322508	 1.367457	 -1.259253
H	 1.189093	 1.140043	 0.883120
H	 2.083857	 -0.131243	 0.095169
H	 0.470453	 2.033908	 -1.360591
H	 2.217299	 1.980240	 -1.232975
H	 1.370870	 0.753555	 -2.154345

	symmetry c1
}
set optking {
	frozen_dihedral = ("
		11 7 6 8
	")
}

ee = optimize('scf')
oeprop('DIPOLE', 'QUADRUPOLE', 'MULLIKEN_CHARGES')
f=open( 'psi4out.xyz', 'w' )
f.write( "15  " )
f.write( str(ee) + "\n" )
f.write( MOL.save_string_xyz() )
f.close()
--------------------------------------------------------------------------

    Molecular point group: c1
  Charge       = 0
  Multiplicity = 1
  Basis Set: 6-31G*
  Basis Set:
  @DF-RHF Final Energy:  -232.13959083859052
    Total Energy =                       -232.1395908385904931
    Molecular point group: c1
  Basis Set: 6-31G*
  Basis Set:
  Basis Set: 6-31G*
  Basis Set:
  @DF-RHF Final Energy:  -232.13966108328785
    Total Energy =                       -232.1396610832879901
  Basis Set: 6-31G*
  Basis Set:
  Basis Set: 6-31G*
  Basis Set:
  @DF-RHF Final Energy:  -232.13966854288466
    Total Energy =                       -232.1396685428848059
  Basis Set: 6-31G*
  Basis Set:
  Charge       = 0
  Multiplicity = 1
  Basis Set: 6-31G*
  Basis Set:

    Orbital Energies (a.u.)
    -----------------------

    Doubly Occupied:

       1A    -20.554247     2A    -11.266687     3A    -11.264645
       4A    -11.214952     5A    -11.203410     6A     -1.378946
       7A     -1.053909     8A     -0.950300     9A     -0.886281
      10A     -0.799069    11A     -0.669565    12A     -0.661854
      13A     -0.633153    14A     -0.591752    15A     -0.565803
      16A     -0.545870    17A     -0.499756    18A     -0.483585
      19A     -0.478509    20A     -0.459148    21A     -0.413471

  @DF-RHF Final Energy:  -232.13966883040456

   => Energetics <=

    Nuclear Repulsion Energy =            192.8683314431067970
    One-Electron Energy =                -696.8661719146110727
    Two-Electron Energy =                 271.8581716410996023
    DFT Exchange-Correlation Energy =       0.0000000000000000
    Empirical Dispersion Energy =           0.0000000000000000
    PCM Polarization Energy =               0.0000000000000000
    EFP Energy =                            0.0000000000000000
    Total Energy =                       -232.1396688304046734
    Molecular point group: c1
  Basis Set: 6-31G*
  Basis Set:

  -Total Gradient:
     Atom            X                  Y                   Z
    ------   -----------------  -----------------  -----------------
       1       -0.000009125075    -0.000006567568     0.000000815436
       2       -0.000025871084     0.000009282311     0.000006411730
       3        0.000030208604    -0.000044724664     0.000007693283
       4        0.000004792908     0.000002579039     0.000003223345
       5       -0.000003862880    -0.000001466902    -0.000003888226
       6        0.000036569836    -0.000036923669     0.000019194060
       7        0.000075151842    -0.000033505493     0.000071228901
       8       -0.000055565638     0.000054494434    -0.000054653785
       9        0.000004731128     0.000017664408    -0.000004300141
      10       -0.000029164278     0.000012624545    -0.000021584702
      11       -0.000051441485     0.000061418703    -0.000037878348
      12        0.000009861337    -0.000010062556     0.000014083798
      13        0.000012435832     0.000006213866     0.000009338054
      14       -0.000003806289    -0.000026079409     0.000005369248
      15        0.000005085242    -0.000004947045    -0.000015052652

  **** Optimization is complete! (in 4 steps) ****
    Final optimized geometry and variables:
    Molecular point group: c1

    Geometry (in Angstrom), charge = 0, multiplicity = 1:

    H           -2.929476181936     0.150110557260     0.260974453346
    C           -2.130930151695    -0.579211456984     0.253283582584
    O           -0.925387681652     0.114753023710     0.264708077105
    H           -2.227311398640    -1.197192633242    -0.637752934365
    H           -2.231167651353    -1.219545417713     1.128059008813
    C            0.207991519939    -0.701766063150     0.260056860813
    C            1.451620153506     0.171324365247     0.247566292381
    H            0.194753239439    -1.353179336500    -0.614945053691
    H            0.207794303630    -1.342536602326     1.141893593307
    C            1.571878606399     1.031251876784    -1.009489335172
    H            1.434299704894     0.805679995750     1.128891318501
    H            2.321080226334    -0.475680750216     0.339196871054
    H            0.722651900545     1.696776584313    -1.104529819801
    H            2.473900499772     1.634560897389    -0.980569386020
    H            1.615868500450     0.413303531747    -1.902496903998

  Mulliken Charges: (a.u.)
   Center  Symbol    Alpha    Beta     Spin     Total
       1     H     0.41221  0.41221  0.00000  0.17559
       2     C     3.07893  3.07893  0.00000 -0.15786
       3     O     4.30382  4.30382  0.00000 -0.60764
       4     H     0.43009  0.43009  0.00000  0.13983
       5     H     0.43037  0.43037  0.00000  0.13925
       6     C     2.98865  2.98865  0.00000  0.02270
       7     C     3.16020  3.16020  0.00000 -0.32040
       8     H     0.43327  0.43327  0.00000  0.13346
       9     H     0.43013  0.43013  0.00000  0.13974
      10     C     3.24147  3.24147  0.00000 -0.48294
      11     H     0.41468  0.41468  0.00000  0.17064
      12     H     0.42308  0.42308  0.00000  0.15384
      13     H     0.40749  0.40749  0.00000  0.18502
      14     H     0.42083  0.42083  0.00000  0.15834
      15     H     0.42479  0.42479  0.00000  0.15043

   Total alpha = 21.00000, Total beta = 21.00000, Total charge =  0.00000
