                              Psi4 1.0.54 Driver

  ==> Input File <==

--------------------------------------------------------------------------
set {
	reference rhf
	basis cc-pvtz
}

set_num_threads( 4 )
memory 2 gb

molecule MOL {
0 1

H	 -1.835082	 1.385983	 0.000069
C	 -1.300516	 0.441153	 -0.000028
O	 -0.006604	 0.654344	 -0.000106
O	 -1.828920	 -0.612308	 0.000113
C	 0.852093	 -0.482521	 -0.000161
C	 0.060719	 -1.658078	 -0.522169
H	 1.204359	 -0.654160	 1.007017
H	 1.710641	 -0.271709	 -0.621786
H	 -0.797582	 -1.855123	 0.107484
H	 0.687127	 -2.541991	 -0.535020
H	 -0.288781	 -1.470738	 -1.529503

	symmetry c1
}
set optking {
	frozen_dihedral = ("
		7 5 3 2
	")
}

ee,wfn = optimize('scf', return_wfn=True)
oeprop( wfn, 'DIPOLE', 'QUADRUPOLE', 'MULLIKEN_CHARGES')
f=open( 'psi4out.xyz', 'w' )
f.write( "11  " )
f.write( str(ee) + "\n" )
f.write( MOL.save_string_xyz() )
f.close()
--------------------------------------------------------------------------

    Molecular point group: c1
  Charge       = 0
  Multiplicity = 1
  Basis Set: CC-PVTZ
  Basis Set:
  @DF-RHF Final Energy:  -266.87354658957571
    Total Energy =                       -266.8735465895755965
    Molecular point group: c1
  Basis Set: CC-PVTZ
  Basis Set:
  Basis Set: CC-PVTZ
  Basis Set:
  @DF-RHF Final Energy:  -266.57099223360365
    Total Energy =                       -266.5709922336033060
  Basis Set: CC-PVTZ
  Basis Set:
  Basis Set: CC-PVTZ
  Basis Set:
  @DF-RHF Final Energy:  -266.71950400386925
    Total Energy =                       -266.7195040038692468
  Basis Set: CC-PVTZ
  Basis Set:
  Basis Set: CC-PVTZ
  Basis Set:
  @DF-RHF Final Energy:  -266.89312611922651
    Total Energy =                       -266.8931261192266220
  Basis Set: CC-PVTZ
  Basis Set:
  @DF-RHF Final Energy:  -266.91453813191970
    Total Energy =                       -266.9145381319196417
  @DF-RHF Final Energy:  -266.92028217132116
    Total Energy =                       -266.9202821713212188
  @DF-RHF Final Energy:  -266.92012006272796
    Total Energy =                       -266.9201200627280173
  @DF-RHF Final Energy:  -266.78892400077211
    Total Energy =                       -266.7889240007719991
  @DF-RHF Final Energy:  -266.89403806376606
    Total Energy =                       -266.8940380637660610
  @DF-RHF Final Energy:  -266.92081704744407
    Total Energy =                       -266.9208170474443023
  @DF-RHF Final Energy:  -266.91916527074278
    Total Energy =                       -266.9191652707428375
  Basis Set: CC-PVTZ
  Basis Set:
  @DF-RHF Final Energy:  -266.92198544322378
    Total Energy =                       -266.9219854432235479
  Basis Set: CC-PVTZ
  Basis Set:
  Basis Set: CC-PVTZ
  Basis Set:
  @DF-RHF Final Energy:  -266.92219686303656
    Total Energy =                       -266.9221968630365609
  Basis Set: CC-PVTZ
  Basis Set:
  Basis Set: CC-PVTZ
  Basis Set:
  @DF-RHF Final Energy:  -266.92223575933707
    Total Energy =                       -266.9222357593371839
  Basis Set: CC-PVTZ
  Basis Set:
  Charge       = 0
  Multiplicity = 1
  Basis Set: CC-PVTZ
  Basis Set:

    Orbital Energies (a.u.)
    -----------------------

    Doubly Occupied:

       1A    -20.602617     2A    -20.542077     3A    -11.370517
       4A    -11.294972     5A    -11.219657     6A     -1.472685
       7A     -1.376579     8A     -1.050263     9A     -0.919915
      10A     -0.795929    11A     -0.726418    12A     -0.686733
      13A     -0.671344    14A     -0.617244    15A     -0.580836
      16A     -0.546742    17A     -0.529791    18A     -0.505483
      19A     -0.456430    20A     -0.448200

  @DF-RHF Final Energy:  -266.92223917837873

   => Energetics <=

    Nuclear Repulsion Energy =            182.6902495182610267
    One-Electron Energy =                -726.3961158104852984
    Two-Electron Energy =                 276.7836271138457960
    DFT Exchange-Correlation Energy =       0.0000000000000000
    Empirical Dispersion Energy =           0.0000000000000000
    PCM Polarization Energy =               0.0000000000000000
    EFP Energy =                            0.0000000000000000
    Total Energy =                       -266.9222391783785042
    Molecular point group: c1
  Basis Set: CC-PVTZ
  Basis Set:

  -Total Gradient:
     Atom            X                  Y                   Z
    ------   -----------------  -----------------  -----------------
       1        0.000018671085     0.000025775826     0.000018704231
       2       -0.002376143177    -0.001898032237    -0.003576532193
       3        0.004154194177     0.002745929736     0.004931592673
       4        0.000194109207     0.000042253384    -0.000133024899
       5       -0.005648840871    -0.001003999880     0.001924246608
       6        0.000030585093    -0.000010290380     0.000016515682
       7        0.003633542256     0.000134370401    -0.003163805624
       8        0.000049395839     0.000008480821    -0.000039601250
       9       -0.000029477792    -0.000006713956     0.000030037947
      10       -0.000009195346    -0.000031547119    -0.000000623609
      11       -0.000016840470    -0.000006226592    -0.000007509566

  **** Optimization is complete! (in 15 steps) ****
    Final optimized geometry and variables:
    Molecular point group: c1

    Geometry (in Angstrom), charge = 0, multiplicity = 1:

    H           -0.573055757702     2.067182585074    -0.766290857400
    C           -0.461551739368     1.149269875040    -0.195884444234
    O            0.658500275708     0.565041424681    -0.543182861939
    O           -1.242237960759     0.792351720996     0.610821002320
    C            1.071385716667    -0.736521711154    -0.115944870335
    C           -0.005455226382    -1.745334710770     0.231528538446
    H            1.779734882733    -0.598454303513     0.690314135649
    H            1.636469879986    -1.099602126379    -0.962316738394
    H           -0.517603714550    -1.512200759375     1.149276701050
    H            0.481284618523    -2.709458761383     0.332872415080
    H           -0.738723486475    -1.823401172316    -0.561194443140

  Mulliken Charges: (a.u.)
   Center  Symbol    Alpha    Beta     Spin     Total
       1     H     0.44730  0.44730  0.00000  0.10541
       2     C     2.84403  2.84403  0.00000  0.31195
       3     O     4.14779  4.14779  0.00000 -0.29557
       4     O     4.19598  4.19598  0.00000 -0.39196
       5     C     2.97408  2.97408  0.00000  0.05184
       6     C     3.15249  3.15249  0.00000 -0.30498
       7     H     0.45404  0.45404  0.00000  0.09193
       8     H     0.44985  0.44985  0.00000  0.10029
       9     H     0.43502  0.43502  0.00000  0.12996
      10     H     0.45053  0.45053  0.00000  0.09895
      11     H     0.44890  0.44890  0.00000  0.10220

   Total alpha = 20.00000, Total beta = 20.00000, Total charge =  0.00000

*** Psi4 exiting successfully. Buy a developer a beer!
