  ==> Input File <==

--------------------------------------------------------------------------
set {
	reference rhf
	basis 6-31G*
}

set_num_threads( 4 )
memory 2 gb

molecule MOL {
0 1

H	 -2.909810	 0.112983	 2.054523
O	 -2.059386	 0.390826	 1.745722
C	 -2.026376	 0.340750	 0.341611
C	 -0.673256	 0.843270	 -0.132153
H	 -2.180959	 -0.679438	 -0.005172
H	 -2.820173	 0.955183	 -0.081486
C	 0.486613	 -0.083066	 0.235839
H	 -0.715586	 0.970948	 -1.210718
H	 -0.508072	 1.829858	 0.297090
C	 1.840406	 0.433480	 -0.254303
H	 0.300215	 -1.068318	 -0.178947
H	 0.519509	 -0.203625	 1.318070
C	 3.000220	 -0.489290	 0.118523
H	 1.809207	 0.553576	 -1.335192
H	 2.021860	 1.424500	 0.157276
H	 2.864959	 -1.479103	 -0.307933
H	 3.946603	 -0.099227	 -0.243630
H	 3.080049	 -0.602997	 1.196117

	symmetry c1
}
set optking {
	frozen_dihedral = ("
		2 3 4 8
	")
}

ee = optimize('scf')
oeprop('DIPOLE', 'QUADRUPOLE', 'MULLIKEN_CHARGES')
f=open( 'psi4out.xyz', 'w' )
f.write( "18  " )
f.write( str(ee) + "\n" )
f.write( MOL.save_string_xyz() )
f.close()
--------------------------------------------------------------------------

    Molecular point group: c1
  Charge       = 0
  Multiplicity = 1
  Basis Set: 6-31G*
  Basis Set:
  @DF-RHF Final Energy:  -271.17976025448127
    Total Energy =                       -271.1797602544814367
    Molecular point group: c1
  Basis Set: 6-31G*
  Basis Set:
  Basis Set: 6-31G*
  Basis Set:
  @DF-RHF Final Energy:  -271.17986093726381
    Total Energy =                       -271.1798609372638111
  Basis Set: 6-31G*
  Basis Set:
  Basis Set: 6-31G*
  Basis Set:
  @DF-RHF Final Energy:  -271.17987667505173
    Total Energy =                       -271.1798766750516734
  Basis Set: 6-31G*
  Basis Set:
  Basis Set: 6-31G*
  Basis Set:
  @DF-RHF Final Energy:  -271.17987825091518
    Total Energy =                       -271.1798782509152943
  Basis Set: 6-31G*
  Basis Set:
  Basis Set: 6-31G*
  Basis Set:
  @DF-RHF Final Energy:  -271.17987988232460
    Total Energy =                       -271.1798798823247125
  Basis Set: 6-31G*
  Basis Set:
  Charge       = 0
  Multiplicity = 1
  Basis Set: 6-31G*
  Basis Set:

    Orbital Energies (a.u.)
    -----------------------

    Doubly Occupied:

       1A    -20.552970     2A    -11.267955     3A    -11.211824
       4A    -11.210946     5A    -11.206934     6A    -11.204743
       7A     -1.359589     8A     -1.074993     9A     -1.008802
      10A     -0.913117    11A     -0.817784    12A     -0.784270
      13A     -0.705251    14A     -0.640003    15A     -0.626928
      16A     -0.578964    17A     -0.570702    18A     -0.558619
      19A     -0.522751    20A     -0.500155    21A     -0.487904
      22A     -0.467855    23A     -0.458699    24A     -0.448821
      25A     -0.428222

  @DF-RHF Final Energy:  -271.17987994548588

   => Energetics <=

    Nuclear Repulsion Energy =            248.8761425578359763
    One-Electron Energy =                -860.8944404856796382
    Two-Electron Energy =                 340.8384179823577824
    DFT Exchange-Correlation Energy =       0.0000000000000000
    Empirical Dispersion Energy =           0.0000000000000000
    PCM Polarization Energy =               0.0000000000000000
    EFP Energy =                            0.0000000000000000
    Total Energy =                       -271.1798799454858226
    Molecular point group: c1
  Basis Set: 6-31G*
  Basis Set:

  -Total Gradient:
     Atom            X                  Y                   Z
    ------   -----------------  -----------------  -----------------
       1        0.000000835222     0.000002467665    -0.000001242548
       2       -0.000298289474     0.000774548212    -0.000041182319
       3        0.000313777110    -0.000789658676     0.000081037296
       4        0.000297078144    -0.000997357383    -0.000171882790
       5       -0.000000523365     0.000002924190    -0.000009044194
       6        0.000000164664     0.000003435520     0.000010473871
       7       -0.000004655191    -0.000007137585    -0.000015525792
       8       -0.000314625839     0.000995151288     0.000126564492
       9        0.000004791174     0.000010485374     0.000004454550
      10       -0.000007243258    -0.000015415232    -0.000027889631
      11        0.000011167237     0.000028914412     0.000008004802
      12       -0.000002005874    -0.000010703227     0.000029376055
      13        0.000000435191     0.000003559471     0.000009221785
      14        0.000001261559     0.000003333924    -0.000005292201
      15       -0.000002857131    -0.000006002619     0.000000297735
      16        0.000000257913     0.000003920952    -0.000003272187
      17        0.000000696067     0.000003122948     0.000004811612
      18       -0.000000264153    -0.000005589231     0.000001089462

  **** Optimization is complete! (in 6 steps) ****
    Final optimized geometry and variables:
    Molecular point group: c1

    Geometry (in Angstrom), charge = 0, multiplicity = 1:

    H           -2.907544083366    -0.163915851201     1.699054529070
    O           -2.089765077889     0.181550117507     1.370835856937
    C           -2.075427984649     0.111466722297    -0.032986205138
    C           -0.724027812331     0.598557034052    -0.527757261925
    H           -2.251555504928    -0.909665946004    -0.368675666447
    H           -2.864988041124     0.734488254037    -0.449376219227
    C            0.435605333768    -0.323199275581    -0.149280580418
    H           -0.774766667206     0.713188222342    -1.608927946774
    H           -0.555281442699     1.590841981666    -0.117385304036
    C            1.792602066879     0.197343907397    -0.625929147389
    H            0.261771114244    -1.311288533753    -0.573828769742
    H            0.451486700107    -0.448431048214     0.928903792828
    C            2.950298830482    -0.727208161858    -0.251012395349
    H            1.771877062284     0.329234149985    -1.706062623652
    H            1.967827340925     1.183702877639    -0.201804941480
    H            2.823201956635    -1.712745895041    -0.690367371781
    H            3.899720603866    -0.330749795890    -0.597839717554
    H            3.017393303226    -0.852840447754     0.825877807787

  Mulliken Charges: (a.u.)
   Center  Symbol    Alpha    Beta     Spin     Total
       1     H     0.28064  0.28064  0.00000  0.43871
       2     O     4.36977  4.36977  0.00000 -0.73954
       3     C     2.99749  2.99749  0.00000  0.00501
       4     C     3.16015  3.16015  0.00000 -0.32030
       5     H     0.43258  0.43258  0.00000  0.13485
       6     H     0.42928  0.42928  0.00000  0.14145
       7     C     3.15347  3.15347  0.00000 -0.30694
       8     H     0.42402  0.42402  0.00000  0.15196
       9     H     0.41431  0.41431  0.00000  0.17139
      10     C     3.15179  3.15179  0.00000 -0.30357
      11     H     0.42762  0.42762  0.00000  0.14476
      12     H     0.40865  0.40865  0.00000  0.18270
      13     C     3.23897  3.23897  0.00000 -0.47794
      14     H     0.42519  0.42519  0.00000  0.14962
      15     H     0.42222  0.42222  0.00000  0.15557
      16     H     0.42271  0.42271  0.00000  0.15458
      17     H     0.42026  0.42026  0.00000  0.15947
      18     H     0.42089  0.42089  0.00000  0.15822

   Total alpha = 25.00000, Total beta = 25.00000, Total charge =  0.00000
