  ==> Input File <==

--------------------------------------------------------------------------
set {
	reference rhf
	basis 6-31G*
}

set_num_threads( 4 )
memory 2 gb

molecule MOL {
0 1

H	 -3.407059	 -1.043082	 0.000000
O	 -3.119761	 -0.140267	 0.000000
C	 -1.777559	 -0.059267	 0.000000
C	 -1.013181	 -0.416706	 1.106781
C	 -1.165708	 0.400439	 -1.159472
H	 -1.495305	 -0.772059	 2.001538
C	 0.360782	 -0.312919	 1.049546
H	 -1.776859	 0.669961	 -1.999783
C	 0.209440	 0.498688	 -1.201326
H	 0.962871	 -0.585219	 1.895974
C	 0.988573	 0.145621	 -0.104093
H	 0.684084	 0.854874	 -2.099606
C	 2.459372	 0.256115	 -0.163697
O	 3.198267	 -0.024611	 0.728483
H	 2.856484	 0.626783	 -1.114526

	symmetry c1
}
set optking {
	frozen_dihedral = ("
		5 3 2 1
	")
}

ee = optimize('scf')
oeprop('DIPOLE', 'QUADRUPOLE', 'MULLIKEN_CHARGES')
f=open( 'psi4out.xyz', 'w' )
f.write( "15  " )
f.write( str(ee) + "\n" )
f.write( MOL.save_string_xyz() )
f.close()
--------------------------------------------------------------------------

    Molecular point group: c1
  Charge       = 0
  Multiplicity = 1
  Basis Set: 6-31G*
  Basis Set:
  @DF-RHF Final Energy:  -418.28411366144041
    Total Energy =                       -418.2841136614401876
    Molecular point group: c1
  Basis Set: 6-31G*
  Basis Set:
  Basis Set: 6-31G*
  Basis Set:
  @DF-RHF Final Energy:  -418.28469702147271
    Total Energy =                       -418.2846970214728799
  Basis Set: 6-31G*
  Basis Set:
  Basis Set: 6-31G*
  Basis Set:
  @DF-RHF Final Energy:  -418.28461250756681
    Total Energy =                       -418.2846125075672035
  Basis Set: 6-31G*
  Basis Set:
  Basis Set: 6-31G*
  Basis Set:
  @DF-RHF Final Energy:  -418.28462827809125
    Total Energy =                       -418.2846282780915317
  Basis Set: 6-31G*
  Basis Set:
  Basis Set: 6-31G*
  Basis Set:
  @DF-RHF Final Energy:  -418.28476001015071
    Total Energy =                       -418.2847600101512171
  Basis Set: 6-31G*
  Basis Set:
  Charge       = 0
  Multiplicity = 1
  Basis Set: 6-31G*
  Basis Set:

    Orbital Energies (a.u.)
    -----------------------

    Doubly Occupied:

       1A    -20.594672     2A    -20.560621     3A    -11.331288
       4A    -11.313831     5A    -11.260157     6A    -11.253985
       7A    -11.244605     8A    -11.242860     9A    -11.242311
      10A     -1.412272    11A     -1.401634    12A     -1.170692
      13A     -1.041311    14A     -1.037060    15A     -0.887102
      16A     -0.859051    17A     -0.795933    18A     -0.750777
      19A     -0.708716    20A     -0.668356    21A     -0.647616
      22A     -0.630957    23A     -0.617085    24A     -0.607108
      25A     -0.560182    26A     -0.552730    27A     -0.538022
      28A     -0.497219    29A     -0.482686    30A     -0.421913
      31A     -0.355368    32A     -0.339659

  @DF-RHF Final Energy:  -418.28476084465609

   => Energetics <=

    Nuclear Repulsion Energy =            400.8202076713608335
    One-Electron Energy =               -1364.1543772680604434
    Two-Electron Energy =                 545.0494087520436324
    DFT Exchange-Correlation Energy =       0.0000000000000000
    Empirical Dispersion Energy =           0.0000000000000000
    PCM Polarization Energy =               0.0000000000000000
    EFP Energy =                            0.0000000000000000
    Total Energy =                       -418.2847608446560344
    Molecular point group: c1
  Basis Set: 6-31G*
  Basis Set:

  -Total Gradient:
     Atom            X                  Y                   Z
    ------   -----------------  -----------------  -----------------
       1       -0.000088151344     0.000003466643    -0.002027388915
       2        0.000057463621    -0.000732597491     0.002256607149
       3       -0.000030266447     0.002092536359     0.000492974569
       4       -0.000175987317    -0.000037508832    -0.000096753153
       5        0.000195807300    -0.001327354341    -0.000600927529
       6        0.000005696793     0.000005691142     0.000004661788
       7        0.000144448500     0.000073616861    -0.000091152569
       8       -0.000001410314     0.000000078230     0.000017621770
       9       -0.000107874225    -0.000069973578    -0.000106952111
      10       -0.000012218436    -0.000006478695     0.000003793835
      11        0.000000724684    -0.000034882376     0.000152893663
      12        0.000018967312     0.000015743199     0.000010003177
      13        0.000014633355     0.000042646681    -0.000011855636
      14       -0.000014277682    -0.000016615320     0.000000579740
      15       -0.000007555796    -0.000008368482    -0.000004105778

  **** Optimization is complete! (in 6 steps) ****
    Final optimized geometry and variables:
    Molecular point group: c1

    Geometry (in Angstrom), charge = 0, multiplicity = 1:

    H           -3.414321497815    -1.070157219275    -0.007245300232
    O           -3.131407187082    -0.165096274715    -0.009405947350
    C           -1.770341961972    -0.089225402165    -0.050925196787
    C           -1.012707076244    -0.445918775794     1.059085154147
    C           -1.159027817727     0.369877414401    -1.204964197414
    H           -1.510923970829    -0.786876488468     1.948388066256
    C            0.361392993586    -0.343505135530     1.008736976424
    H           -1.767266182963     0.641777966336    -2.047019085651
    C            0.220288602011     0.477929946260    -1.243767641765
    H            0.963175714135    -0.613497677506     1.856029759240
    C            0.989109747859     0.120678325178    -0.144839026573
    H            0.699265506502     0.837929603809    -2.138117216733
    C            2.463475391262     0.235033053777    -0.201232710638
    O            3.198837204225    -0.055030328774     0.689724561130
    H            2.862218033204     0.616228152962    -1.146785193173

  Mulliken Charges: (a.u.)
   Center  Symbol    Alpha    Beta     Spin     Total
       1     H     0.26842  0.26842  0.00000  0.46316
       2     O     4.38460  4.38460  0.00000 -0.76920
       3     C     2.80665  2.80665  0.00000  0.38670
       4     C     3.12636  3.12636  0.00000 -0.25272
       5     C     3.12184  3.12184  0.00000 -0.24367
       6     H     0.39035  0.39035  0.00000  0.21929
       7     C     3.08407  3.08407  0.00000 -0.16814
       8     H     0.38772  0.38772  0.00000  0.22456
       9     C     3.09837  3.09837  0.00000 -0.19674
      10     H     0.37495  0.37495  0.00000  0.25009
      11     C     3.06110  3.06110  0.00000 -0.12220
      12     H     0.38993  0.38993  0.00000  0.22013
      13     C     2.83084  2.83084  0.00000  0.33832
      14     O     4.25130  4.25130  0.00000 -0.50260
      15     H     0.42349  0.42349  0.00000  0.15301

   Total alpha = 32.00000, Total beta = 32.00000, Total charge =  0.00000
