  ==> Input File <==

--------------------------------------------------------------------------
set {
	reference rhf
	basis 6-31G*
}

set_num_threads( 1 )
memory 2 gb

molecule MOL {
0 1

O	 -0.988096	 -1.408613	 0.050699
C	 -0.676749	 -0.249230	 -0.009274
C	 -1.746085	 0.827156	 -0.009539
N	 0.623947	 0.147590	 -0.102813
H	 -1.701500	 1.431508	 -0.908902
H	 -2.703425	 0.330732	 0.036390
H	 -1.647323	 1.487769	 0.845106
C	 1.473641	 -0.484952	 -1.092655
C	 1.318268	 0.895739	 0.922095
H	 2.138967	 0.255155	 -1.523470
H	 0.863036	 -0.911525	 -1.869274
H	 2.078762	 -1.272422	 -0.648650
H	 2.060664	 1.531817	 0.454877
H	 0.644916	 1.531835	 1.474284
H	 1.831357	 0.242032	 1.625103

	symmetry c1
}
set optking {
	frozen_dihedral = ("
		2 4 8 10
	")
}

ee = energy('scf')
oeprop('DIPOLE', 'QUADRUPOLE', 'MULLIKEN_CHARGES')
f=open( 'psi4out.xyz', 'w' )
f.write( "15  " )
f.write( str(ee) + "\n" )
f.write( MOL.save_string_xyz() )
f.close()
--------------------------------------------------------------------------

    Molecular point group: c1

    Geometry (in Angstrom), charge = 0, multiplicity = 1:

       Center              X                  Y                   Z               Mass
    ------------   -----------------  -----------------  -----------------  -----------------
           O         -0.999063452020    -1.363404087272     0.089976276091    15.994914619560
           C         -0.687716452020    -0.204021087272     0.030003276091    12.000000000000
           C         -1.757052452020     0.872364912728     0.029738276091    12.000000000000
           N          0.612979547980     0.192798912728    -0.063535723909    14.003074004780
           H         -1.712467452020     1.476716912728    -0.869624723909     1.007825032070
           H         -2.714392452020     0.375940912728     0.075667276091     1.007825032070
           H         -1.658290452020     1.532977912728     0.884383276091     1.007825032070
           C          1.462673547980    -0.439743087272    -1.053377723909    12.000000000000
           C          1.307300547980     0.940947912728     0.961372276091    12.000000000000
           H          2.127999547980     0.300363912728    -1.484192723909     1.007825032070
           H          0.852068547980    -0.866316087272    -1.829996723909     1.007825032070
           H          2.067794547980    -1.227213087272    -0.609372723909     1.007825032070
           H          2.049696547980     1.577025912728     0.494154276091     1.007825032070
           H          0.633948547980     1.577043912728     1.513561276091     1.007825032070
           H          1.820389547980     0.287240912728     1.664380276091     1.007825032070

  Charge       = 0
  Multiplicity = 1
  Basis Set: 6-31G*
  Basis Set:

    Orbital Energies (a.u.)
    -----------------------

    Doubly Occupied:

       1A    -20.535630     2A    -15.560650     3A    -11.345266
       4A    -11.263535     5A    -11.252394     6A    -11.225245
       7A     -1.393567     8A     -1.237136     9A     -1.008316
      10A     -0.973303    11A     -0.916108    12A     -0.738526
      13A     -0.676213    14A     -0.656362    15A     -0.647252
      16A     -0.597161    17A     -0.581440    18A     -0.573050
      19A     -0.557534    20A     -0.546659    21A     -0.535160
      22A     -0.486492    23A     -0.420225    24A     -0.356526

  @DF-RHF Final Energy:  -286.00623906478825

   => Energetics <=

    Nuclear Repulsion Energy =            251.2367097765355481
    One-Electron Energy =                -886.3184001796223583
    Two-Electron Energy =                 349.0754513382986488
    DFT Exchange-Correlation Energy =       0.0000000000000000
    Empirical Dispersion Energy =           0.0000000000000000
    PCM Polarization Energy =               0.0000000000000000
    EFP Energy =                            0.0000000000000000
    Total Energy =                       -286.0062390647881330

  Mulliken Charges: (a.u.)
   Center  Symbol    Alpha    Beta     Spin     Total
       1     O     4.26854  4.26854  0.00000 -0.53709
       2     C     2.65548  2.65548  0.00000  0.68904
       3     C     3.28229  3.28229  0.00000 -0.56458
       4     N     3.82240  3.82240  0.00000 -0.64479
       5     H     0.40595  0.40595  0.00000  0.18810
       6     H     0.39728  0.39728  0.00000  0.20544
       7     H     0.41071  0.41071  0.00000  0.17857
       8     C     3.13380  3.13380  0.00000 -0.26759
       9     C     3.13718  3.13718  0.00000 -0.27435
      10     H     0.41881  0.41881  0.00000  0.16239
      11     H     0.40602  0.40602  0.00000  0.18795
      12     H     0.41805  0.41805  0.00000  0.16390
      13     H     0.41530  0.41530  0.00000  0.16939
      14     H     0.41305  0.41305  0.00000  0.17389
      15     H     0.41513  0.41513  0.00000  0.16973

   Total alpha = 24.00000, Total beta = 24.00000, Total charge = -0.00000
