  ==> Input File <==

--------------------------------------------------------------------------
set {
	reference rhf
	basis cc-pvtz
}

set_num_threads( 4 )
memory 2 gb

molecule MOL {
0 1

H	 -1.888943	 -1.175414	 1.427236
N	 -1.106201	 -0.558282	 1.382114
C	 -0.561396	 -0.500007	 0.035200
H	 -0.424769	 -0.898894	 2.027846
C	 0.575129	 0.507849	 -0.048832
H	 -1.359507	 -0.193803	 -0.632988
H	 -0.207911	 -1.468106	 -0.322916
C	 1.951750	 -0.141983	 0.035101
H	 0.478254	 1.061643	 -0.975981
H	 0.467676	 1.231891	 0.755499
H	 2.101550	 -0.848142	 -0.774949
H	 2.738260	 0.600794	 -0.026526
H	 2.078939	 -0.679792	 0.968824

	symmetry c1
}
set optking {
	frozen_dihedral = ("
		6 3 5 9
	")
}

ee = optimize('scf')
oeprop('DIPOLE', 'QUADRUPOLE', 'MULLIKEN_CHARGES')
f=open( 'psi4out.xyz', 'w' )
f.write( "13  " )
f.write( str(ee) + "\n" )
f.write( MOL.save_string_xyz() )
f.close()
--------------------------------------------------------------------------

    Molecular point group: c1
  Charge       = 0
  Multiplicity = 1
  Basis Set: CC-PVTZ
  Basis Set:
  @DF-RHF Final Energy:  -173.34757539885561
    Total Energy =                       -173.3475753988556676
    Molecular point group: c1
  Basis Set: CC-PVTZ
  Basis Set:
  Basis Set: CC-PVTZ
  Basis Set:
  @DF-RHF Final Energy:  -173.34799841903498
    Total Energy =                       -173.3479984190348944
  Basis Set: CC-PVTZ
  Basis Set:
  Basis Set: CC-PVTZ
  Basis Set:
  @DF-RHF Final Energy:  -173.34809225343832
    Total Energy =                       -173.3480922534383240
  Basis Set: CC-PVTZ
  Basis Set:
  Basis Set: CC-PVTZ
  Basis Set:
  @DF-RHF Final Energy:  -173.34809460207615
    Total Energy =                       -173.3480946020758893
  Basis Set: CC-PVTZ
  Basis Set:
  Charge       = 0
  Multiplicity = 1
  Basis Set: CC-PVTZ
  Basis Set:

    Orbital Energies (a.u.)
    -----------------------

    Doubly Occupied:

       1A    -15.527368     2A    -11.238414     3A    -11.210318
       4A    -11.208549     5A     -1.178200     6A     -1.033823
       7A     -0.904400     8A     -0.796371     9A     -0.667727
      10A     -0.632783    11A     -0.586322    12A     -0.563595
      13A     -0.554974    14A     -0.485942    15A     -0.478186
      16A     -0.466593    17A     -0.383298

  @DF-RHF Final Energy:  -173.34809498942099

   => Energetics <=

    Nuclear Repulsion Energy =            132.8414185909900311
    One-Electron Energy =                -496.5453025775207152
    Two-Electron Energy =                 190.3557889971096984
    DFT Exchange-Correlation Energy =       0.0000000000000000
    Empirical Dispersion Energy =           0.0000000000000000
    PCM Polarization Energy =               0.0000000000000000
    EFP Energy =                            0.0000000000000000
    Total Energy =                       -173.3480949894209857
    Molecular point group: c1
  Basis Set: CC-PVTZ
  Basis Set:

  -Total Gradient:
     Atom            X                  Y                   Z
    ------   -----------------  -----------------  -----------------
       1       -0.000030486361    -0.000014364330     0.000023228800
       2        0.000014297432     0.000014623456    -0.000042705323
       3       -0.002539174176     0.003543769060     0.004271081938
       4        0.000007446331    -0.000014829342     0.000005324013
       5        0.003233248855    -0.004166437969    -0.003111769544
       6        0.001631609192    -0.002255817458    -0.003072226563
       7        0.000010033714    -0.000029992902    -0.000000141835
       8       -0.000039827770     0.000021420028     0.000002756943
       9       -0.002279083641     0.002873996071     0.001903993688
      10        0.000000902965     0.000015355775     0.000020378054
      11       -0.000010668724     0.000009579595     0.000003125227
      12        0.000002280301    -0.000001121098     0.000004262003
      13       -0.000000578117     0.000003819115    -0.000007307402

  **** Optimization is complete! (in 5 steps) ****
    Final optimized geometry and variables:
    Molecular point group: c1

    Geometry (in Angstrom), charge = 0, multiplicity = 1:

    H           -2.064207729104    -1.013856564593     1.073574959624
    N           -1.307412761191    -0.365119436366     1.019242464445
    C           -0.788290109247    -0.286473669402    -0.338224747640
    H           -0.603879860797    -0.687153947233     1.651065097097
    C            0.377665097671     0.703087107494    -0.443560181914
    H           -1.591102608825     0.021653876753    -0.996945603649
    H           -0.459733760710    -1.256629024737    -0.715488719897
    C            1.754502031077     0.056932319622    -0.330595812740
    H            0.299187067234     1.260328277173    -1.370881823749
    H            0.255254194651     1.439459179721     0.343698943574
    H            1.929059926558    -0.639915469360    -1.143246103413
    H            2.540551198777     0.802676744124    -0.358846938691
    H            1.859208978343    -0.491893944200     0.600285309278

  Mulliken Charges: (a.u.)
   Center  Symbol    Alpha    Beta     Spin     Total
       1     H     0.42967  0.42967  0.00000  0.14066
       2     N     3.68743  3.68743  0.00000 -0.37486
       3     C     3.02796  3.02796  0.00000 -0.05591
       4     H     0.43109  0.43109  0.00000  0.13782
       5     C     3.09260  3.09260  0.00000 -0.18520
       6     H     0.45324  0.45324  0.00000  0.09351
       7     H     0.47044  0.47044  0.00000  0.05912
       8     C     3.14517  3.14517  0.00000 -0.29035
       9     H     0.45098  0.45098  0.00000  0.09805
      10     H     0.44886  0.44886  0.00000  0.10227
      11     H     0.45538  0.45538  0.00000  0.08924
      12     H     0.44842  0.44842  0.00000  0.10315
      13     H     0.45876  0.45876  0.00000  0.08249

   Total alpha = 17.00000, Total beta = 17.00000, Total charge =  0.00000
