                              Psi4 1.0.54 Driver

  ==> Input File <==

--------------------------------------------------------------------------
set {
	reference rhf
	basis cc-pvtz
}

set_num_threads( 4 )
memory 2 gb

molecule MOL {
0 1

H	 2.453980	 -0.658772	 -0.000910
C	 1.738127	 0.145832	 -0.000355
O	 0.462329	 -0.453336	 -0.000137
H	 1.883942	 0.752175	 -0.885399
H	 1.884564	 0.751513	 0.885052
C	 -0.590565	 0.341382	 0.000062
O	 -1.693898	 -0.053880	 0.000252
H	 -0.340426	 1.403822	 0.000200

	symmetry c1
}
set optking {
	frozen_dihedral = ("
		2 3 6 7
	")
}

ee,wfn = optimize('scf', return_wfn=True)
oeprop( wfn, 'DIPOLE', 'QUADRUPOLE', 'MULLIKEN_CHARGES')
f=open( 'psi4out.xyz', 'w' )
f.write( "8  " )
f.write( str(ee) + "\n" )
f.write( MOL.save_string_xyz() )
f.close()
--------------------------------------------------------------------------

    Molecular point group: c1
  Charge       = 0
  Multiplicity = 1
  Basis Set: CC-PVTZ
  Basis Set:

    Orbital Energies (a.u.)
    -----------------------

    Doubly Occupied:

       1A    -20.610227     2A    -20.546860     3A    -11.374344
       4A    -11.302211     5A     -1.480200     6A     -1.386115
       7A     -0.994188     8A     -0.849705     9A     -0.740571
      10A     -0.689655    11A     -0.685326    12A     -0.607379
      13A     -0.574021    14A     -0.543722    15A     -0.465366
      16A     -0.457470

  @DF-RHF Final Energy:  -227.87012682486517

   => Energetics <=

    Nuclear Repulsion Energy =            121.5117059785107614
    One-Electron Energy =                -552.1489462570563092
    Two-Electron Energy =                 202.7671134536805368
    DFT Exchange-Correlation Energy =       0.0000000000000000
    Empirical Dispersion Energy =           0.0000000000000000
    PCM Polarization Energy =               0.0000000000000000
    EFP Energy =                            0.0000000000000000
    Total Energy =                       -227.8701268248650251
    Molecular point group: c1
  Basis Set: CC-PVTZ
  Basis Set:

  -Total Gradient:
     Atom            X                  Y                   Z
    ------   -----------------  -----------------  -----------------
       1       -0.000006877569    -0.000005968696    -0.000000091468
       2        0.000076764297     0.000047559061    -0.000004668493
       3       -0.000008380355     0.000010924137     0.000008087836
       4       -0.000007685055    -0.000012222927     0.000000356704
       5       -0.000004362325    -0.000008232808     0.000004899897
       6        0.000052114171    -0.000116475580    -0.000027552791
       7       -0.000104464290     0.000027072397     0.000009059783
       8        0.000002891123     0.000057344416     0.000009908531

  **** Optimization is complete! (in 1 steps) ****
    Final optimized geometry and variables:
    Molecular point group: c1

    Geometry (in Angstrom), charge = 0, multiplicity = 1:

    H            2.453980161526    -0.658772430403    -0.000864318489
    C            1.738127161526     0.145831569597    -0.000309318489
    O            0.462329161526    -0.453336430403    -0.000091318489
    H            1.883942161526     0.752174569597    -0.885353318489
    H            1.884564161526     0.751512569597     0.885097681511
    C           -0.590564838474     0.341381569597     0.000107681511
    O           -1.693897838474    -0.053880430403     0.000297681511
    H           -0.340425838474     1.403821569597     0.000245681511

  Mulliken Charges: (a.u.)
   Center  Symbol    Alpha    Beta     Spin     Total
       1     H     0.43869  0.43869  0.00000  0.12261
       2     C     3.03399  3.03399  0.00000 -0.06797
       3     O     4.12079  4.12079  0.00000 -0.24158
       4     H     0.45909  0.45909  0.00000  0.08182
       5     H     0.45908  0.45908  0.00000  0.08184
       6     C     2.83603  2.83603  0.00000  0.32795
       7     O     4.17473  4.17473  0.00000 -0.34947
       8     H     0.47760  0.47760  0.00000  0.04480

   Total alpha = 16.00000, Total beta = 16.00000, Total charge = -0.00000

*** Psi4 exiting successfully. Buy a developer a beer!
