  ==> Input File <==

--------------------------------------------------------------------------
set {
	reference rhf
	basis 6-31G*
}

set_num_threads( 1 )
memory 2 gb

molecule MOL {
0 1

H	 -3.407059	 -1.043082	 0.000000
O	 -3.119761	 -0.140267	 0.000000
C	 -1.777559	 -0.059267	 0.000000
C	 -1.072922	 0.573234	 -1.020015
C	 -1.103122	 -0.636630	 1.068575
H	 -1.603344	 1.018181	 -1.844627
C	 0.304129	 0.625828	 -0.967267
H	 -1.668916	 -1.118708	 1.843010
C	 0.274285	 -0.575816	 1.107148
H	 0.860531	 1.110600	 -1.747339
C	 0.994191	 0.052517	 0.095932
H	 0.797416	 -1.023080	 1.935007
C	 2.468208	 0.109699	 0.150864
O	 3.158945	 0.626967	 -0.671373
H	 2.916643	 -0.370084	 1.027152

	symmetry c1
}
set optking {
	frozen_dihedral = ("
		7 11 13 14
	")
}

ee = energy('scf')
oeprop('DIPOLE', 'QUADRUPOLE', 'MULLIKEN_CHARGES')
f=open( 'psi4out.xyz', 'w' )
f.write( "15  " )
f.write( str(ee) + "\n" )
f.write( MOL.save_string_xyz() )
f.close()
--------------------------------------------------------------------------

    Molecular point group: c1

    Geometry (in Angstrom), charge = 0, multiplicity = 1:

       Center              X                  Y                   Z               Mass
    ------------   -----------------  -----------------  -----------------  -----------------
           H         -3.403388517711    -1.103901141004     0.035178029775     1.007825032070
           O         -3.116090517711    -0.201086141004     0.035178029775    15.994914619560
           C         -1.773888517711    -0.120086141004     0.035178029775    12.000000000000
           C         -1.069251517711     0.512414858996    -0.984836970225    12.000000000000
           C         -1.099451517711    -0.697449141004     1.103753029775    12.000000000000
           H         -1.599673517711     0.957361858996    -1.809448970225     1.007825032070
           C          0.307799482289     0.565008858996    -0.932088970225    12.000000000000
           H         -1.665245517711    -1.179527141004     1.878188029775     1.007825032070
           C          0.277955482289    -0.636635141004     1.142326029775    12.000000000000
           H          0.864201482289     1.049780858996    -1.712160970225     1.007825032070
           C          0.997861482289    -0.008302141004     0.131110029775    12.000000000000
           H          0.801086482289    -1.083899141004     1.970185029775     1.007825032070
           C          2.471878482289     0.048879858996     0.186042029775    12.000000000000
           O          3.162615482289     0.566147858996    -0.636194970225    15.994914619560
           H          2.920313482289    -0.430903141004     1.062330029775     1.007825032070

  Charge       = 0
  Multiplicity = 1
  Basis Set: 6-31G*
  Basis Set:

    Orbital Energies (a.u.)
    -----------------------

    Doubly Occupied:

       1A    -20.597707     2A    -20.559005     3A    -11.330143
       4A    -11.316325     5A    -11.260379     6A    -11.253735
       7A    -11.242705     8A    -11.241905     9A    -11.241615
      10A     -1.423320    11A     -1.399665    12A     -1.170038
      13A     -1.041095    14A     -1.036725    15A     -0.890176
      16A     -0.856321    17A     -0.800961    18A     -0.755642
      19A     -0.701901    20A     -0.679778    21A     -0.643892
      22A     -0.629690    23A     -0.619418    24A     -0.607071
      25A     -0.562856    26A     -0.552340    27A     -0.540723
      28A     -0.497130    29A     -0.482240    30A     -0.420950
      31A     -0.355857    32A     -0.335774

  @DF-RHF Final Energy:  -418.28391292697142

   => Energetics <=

    Nuclear Repulsion Energy =            401.3337429206685556
    One-Electron Energy =               -1365.1411984128901622
    Two-Electron Energy =                 545.5235425652499544
    DFT Exchange-Correlation Energy =       0.0000000000000000
    Empirical Dispersion Energy =           0.0000000000000000
    PCM Polarization Energy =               0.0000000000000000
    EFP Energy =                            0.0000000000000000
    Total Energy =                       -418.2839129269716523

  Mulliken Charges: (a.u.)
   Center  Symbol    Alpha    Beta     Spin     Total
       1     H     0.26724  0.26724  0.00000  0.46552
       2     O     4.38116  4.38116  0.00000 -0.76232
       3     C     2.79823  2.79823  0.00000  0.40353
       4     C     3.12393  3.12393  0.00000 -0.24786
       5     C     3.13409  3.13409  0.00000 -0.26818
       6     H     0.38717  0.38717  0.00000  0.22566
       7     C     3.08301  3.08301  0.00000 -0.16602
       8     H     0.39320  0.39320  0.00000  0.21359
       9     C     3.09583  3.09583  0.00000 -0.19166
      10     H     0.37460  0.37460  0.00000  0.25079
      11     C     3.06312  3.06312  0.00000 -0.12623
      12     H     0.39109  0.39109  0.00000  0.21782
      13     C     2.83067  2.83067  0.00000  0.33867
      14     O     4.25237  4.25237  0.00000 -0.50475
      15     H     0.42428  0.42428  0.00000  0.15144

   Total alpha = 32.00000, Total beta = 32.00000, Total charge =  0.00000
