  ==> Input File <==

--------------------------------------------------------------------------
set {
	reference rhf
	basis 6-31G*
}

set_num_threads( 1 )
memory 2 gb

molecule MOL {
0 1

H	 -2.172150	 0.880146	 0.502514
C	 -2.018062	 -0.000025	 -0.114509
O	 -0.774054	 0.001095	 -0.743181
H	 -2.760490	 0.003458	 -0.901350
H	 -2.173624	 -0.884374	 0.496163
C	 0.378774	 0.386946	 -0.016106
C	 1.509512	 0.251215	 -1.033466
C	 0.273092	 1.840394	 0.456662
C	 0.625791	 -0.553047	 1.168171
H	 1.324305	 0.895498	 -1.885540
H	 1.569395	 -0.770566	 -1.390891
H	 2.464550	 0.521873	 -0.594938
H	 0.027068	 2.489441	 -0.377148
H	 1.218021	 2.168578	 0.877382
H	 -0.484081	 1.967466	 1.222884
H	 0.627962	 -1.585283	 0.834200
H	 1.587525	 -0.339649	 1.623211
H	 -0.128684	 -0.445744	 1.940107

	symmetry c1
}
set optking {
	frozen_dihedral = ("
		2 3 6 7
	")
}

ee = energy('scf')
oeprop('DIPOLE', 'QUADRUPOLE', 'MULLIKEN_CHARGES')
f=open( 'psi4out.xyz', 'w' )
f.write( "18  " )
f.write( str(ee) + "\n" )
f.write( MOL.save_string_xyz() )
f.close()
--------------------------------------------------------------------------

    Molecular point group: c1

    Geometry (in Angstrom), charge = 0, multiplicity = 1:

       Center              X                  Y                   Z               Mass
    ------------   -----------------  -----------------  -----------------  -----------------
           H         -2.148954765803     0.561575433560     0.547844800152     1.007825032070
           C         -1.994866765803    -0.318595566440    -0.069178199848    12.000000000000
           O         -0.750858765803    -0.317475566440    -0.697850199848    15.994914619560
           H         -2.737294765803    -0.315112566440    -0.856019199848     1.007825032070
           H         -2.150428765803    -1.202944566440     0.541493800152     1.007825032070
           C          0.401969234197     0.068375433560     0.029224800152    12.000000000000
           C          1.532707234197    -0.067355566440    -0.988135199848    12.000000000000
           C          0.296287234197     1.521823433560     0.501992800152    12.000000000000
           C          0.648986234197    -0.871617566440     1.213501800152    12.000000000000
           H          1.347500234197     0.576927433560    -1.840209199848     1.007825032070
           H          1.592590234197    -1.089136566440    -1.345560199848     1.007825032070
           H          2.487745234197     0.203302433560    -0.549607199848     1.007825032070
           H          0.050263234197     2.170870433560    -0.331817199848     1.007825032070
           H          1.241216234197     1.850007433560     0.922712800152     1.007825032070
           H         -0.460885765803     1.648895433560     1.268214800152     1.007825032070
           H          0.651157234197    -1.903853566440     0.879530800152     1.007825032070
           H          1.610720234197    -0.658219566440     1.668541800152     1.007825032070
           H         -0.105488765803    -0.764314566440     1.985437800152     1.007825032070

  Charge       = 0
  Multiplicity = 1
  Basis Set: 6-31G*
  Basis Set:

    Orbital Energies (a.u.)
    -----------------------

    Doubly Occupied:

       1A    -20.546506     2A    -11.281431     3A    -11.260362
       4A    -11.208800     5A    -11.208656     6A    -11.203232
       7A     -1.369958     8A     -1.073061     9A     -0.945893
      10A     -0.939798    11A     -0.912337    12A     -0.752443
      13A     -0.655392    14A     -0.644217    15A     -0.637622
      16A     -0.592374    17A     -0.574270    18A     -0.552751
      19A     -0.534913    20A     -0.523664    21A     -0.514785
      22A     -0.487802    23A     -0.486288    24A     -0.438715
      25A     -0.403984

  @DF-RHF Final Energy:  -271.17487751579358

   => Energetics <=

    Nuclear Repulsion Energy =            272.2914364953761606
    One-Electron Energy =                -907.4337585193914038
    Two-Electron Energy =                 363.9674445082212628
    DFT Exchange-Correlation Energy =       0.0000000000000000
    Empirical Dispersion Energy =           0.0000000000000000
    PCM Polarization Energy =               0.0000000000000000
    EFP Energy =                            0.0000000000000000
    Total Energy =                       -271.1748775157939804

  Mulliken Charges: (a.u.)
   Center  Symbol    Alpha    Beta     Spin     Total
       1     H     0.43047  0.43047  0.00000  0.13907
       2     C     3.07875  3.07875  0.00000 -0.15750
       3     O     4.31879  4.31879  0.00000 -0.63757
       4     H     0.41379  0.41379  0.00000  0.17241
       5     H     0.42801  0.42801  0.00000  0.14398
       6     C     2.84303  2.84303  0.00000  0.31394
       7     C     3.23306  3.23306  0.00000 -0.46611
       8     C     3.24743  3.24743  0.00000 -0.49486
       9     C     3.24672  3.24672  0.00000 -0.49344
      10     H     0.41412  0.41412  0.00000  0.17175
      11     H     0.41407  0.41407  0.00000  0.17187
      12     H     0.42515  0.42515  0.00000  0.14971
      13     H     0.41320  0.41320  0.00000  0.17360
      14     H     0.41950  0.41950  0.00000  0.16099
      15     H     0.42017  0.42017  0.00000  0.15967
      16     H     0.41332  0.41332  0.00000  0.17335
      17     H     0.41991  0.41991  0.00000  0.16019
      18     H     0.42052  0.42052  0.00000  0.15896

   Total alpha = 25.00000, Total beta = 25.00000, Total charge =  0.00000
