  ==> Input File <==

--------------------------------------------------------------------------
set {
	reference rhf
	basis 6-31G*
}

set_num_threads( 4 )
memory 2 gb

molecule MOL {
0 1

H	 -0.275822	 3.375306	 -1.189027
C	 0.278963	 3.124448	 -0.276390
C	 -0.516903	 2.388328	 0.771147
O	 1.421409	 3.432473	 -0.168279
C	 -1.220012	 1.144545	 0.209990
H	 0.146639	 2.135677	 1.590042
H	 -1.265843	 3.082589	 1.150286
C	 -0.252658	 0.041456	 -0.226725
H	 -1.890534	 0.755969	 0.970709
H	 -1.850225	 1.433764	 -0.629618
C	 1.180775	 0.282413	 0.250794
H	 -0.266029	 -0.034465	 -1.312038
H	 -0.597733	 -0.921000	 0.146291
C	 2.148627	 -0.814315	 -0.201312
H	 1.516199	 1.249228	 -0.115937
H	 1.192670	 0.346017	 1.338083
C	 3.580890	 -0.659131	 0.322722
H	 2.166869	 -0.852443	 -1.289387
H	 1.762857	 -1.776509	 0.128956
C	 4.324889	 0.564933	 -0.213704
H	 4.142010	 -1.551473	 0.056605
H	 3.564836	 -0.624694	 1.410140
H	 4.342616	 0.565491	 -1.300421
H	 3.866655	 1.493402	 0.110242
H	 5.353900	 0.572371	 0.132816

	symmetry c1
}
set optking {
	frozen_dihedral = ("
		3 5 8 12
	")
}

ee = optimize('scf')
oeprop('DIPOLE', 'QUADRUPOLE', 'MULLIKEN_CHARGES')
f=open( 'psi4out.xyz', 'w' )
f.write( "25  " )
f.write( str(ee) + "\n" )
f.write( MOL.save_string_xyz() )
f.close()
--------------------------------------------------------------------------

    Molecular point group: c1
  Charge       = 0
  Multiplicity = 1
  Basis Set: 6-31G*
  Basis Set:
  @DF-RHF Final Energy:  -387.10486849699356
    Total Energy =                       -387.1048684969936176
    Molecular point group: c1
  Basis Set: 6-31G*
  Basis Set:
  Basis Set: 6-31G*
  Basis Set:
  @DF-RHF Final Energy:  -387.11039675219746
    Total Energy =                       -387.1103967521971754
  Basis Set: 6-31G*
  Basis Set:
  Basis Set: 6-31G*
  Basis Set:
  @DF-RHF Final Energy:  -387.11247134450099
    Total Energy =                       -387.1124713445009320
  Basis Set: 6-31G*
  Basis Set:
  Basis Set: 6-31G*
  Basis Set:
  @DF-RHF Final Energy:  -387.11277919404046
    Total Energy =                       -387.1127791940408542
  Basis Set: 6-31G*
  Basis Set:
  @DF-RHF Final Energy:  -387.11297885660792
    Total Energy =                       -387.1129788566076968
  @DF-RHF Final Energy:  -387.11318823394703
    Total Energy =                       -387.1131882339473123
  @DF-RHF Final Energy:  -387.11330676673862
    Total Energy =                       -387.1133067667378782
  @DF-RHF Final Energy:  -387.11336913731861
    Total Energy =                       -387.1133691373187276
  @DF-RHF Final Energy:  -387.11338251239442
    Total Energy =                       -387.1133825123945371
  @DF-RHF Final Energy:  -387.11337497579973
    Total Energy =                       -387.1133749758004114
  Basis Set: 6-31G*
  Basis Set:
  @DF-RHF Final Energy:  -387.11338881620105
    Total Energy =                       -387.1133888162005405
  Basis Set: 6-31G*
  Basis Set:
  Basis Set: 6-31G*
  Basis Set:
  @DF-RHF Final Energy:  -387.11338989467907
    Total Energy =                       -387.1133898946786758
  Basis Set: 6-31G*
  Basis Set:
  Basis Set: 6-31G*
  Basis Set:
  @DF-RHF Final Energy:  -387.11339100260545
    Total Energy =                       -387.1133910026048852
  Basis Set: 6-31G*
  Basis Set:
  Charge       = 0
  Multiplicity = 1
  Basis Set: 6-31G*
  Basis Set:

    Orbital Energies (a.u.)
    -----------------------

    Doubly Occupied:

       1A    -20.563059     2A    -11.327143     3A    -11.236090
       4A    -11.235172     5A    -11.223135     6A    -11.214707
       7A    -11.213717     8A    -11.213020     9A    -11.203183
      10A     -1.402778    11A     -1.099256    12A     -1.064716
      13A     -1.007582    14A     -0.942171    15A     -0.878849
      16A     -0.817229    17A     -0.786770    18A     -0.770726
      19A     -0.666312    20A     -0.657961    21A     -0.631703
      22A     -0.620065    23A     -0.602258    24A     -0.595852
      25A     -0.564306    26A     -0.547529    27A     -0.536268
      28A     -0.524619    29A     -0.510384    30A     -0.499414
      31A     -0.474256    32A     -0.472270    33A     -0.458679
      34A     -0.451452    35A     -0.441734    36A     -0.409006

  @DF-RHF Final Energy:  -387.11339115629158

   => Energetics <=

    Nuclear Repulsion Energy =            455.9402536115501903
    One-Electron Energy =               -1428.3805514393679914
    Two-Electron Energy =                 585.3269066715261033
    DFT Exchange-Correlation Energy =       0.0000000000000000
    Empirical Dispersion Energy =           0.0000000000000000
    PCM Polarization Energy =               0.0000000000000000
    EFP Energy =                            0.0000000000000000
    Total Energy =                       -387.1133911562917547
    Molecular point group: c1
  Basis Set: 6-31G*
  Basis Set:

  -Total Gradient:
     Atom            X                  Y                   Z
    ------   -----------------  -----------------  -----------------
       1       -0.000002942331     0.000001497950     0.000001836556
       2        0.000013597552     0.000003264824     0.000003682599
       3       -0.000003274569    -0.001640444315     0.003971571639
       4       -0.000008848042    -0.000007183448    -0.000002163080
       5       -0.000926184655     0.001451741038    -0.005714364917
       6       -0.000001087840     0.000001759908    -0.000002287083
       7       -0.000004260503    -0.000001735227    -0.000000368100
       8        0.004923277723     0.004286539765     0.001298549764
       9        0.000011426703     0.000001173305     0.000011029952
      10       -0.000012015219    -0.000010324746     0.000008832706
      11       -0.000003404181    -0.000000291613     0.000027276649
      12       -0.003990746859    -0.004084352166     0.000424801540
      13       -0.000005551272     0.000006442982    -0.000017383176
      14        0.000004782123    -0.000001735969    -0.000006232111
      15       -0.000008051941    -0.000011503861    -0.000004304019
      16        0.000005625235     0.000006837266     0.000002319109
      17       -0.000004150215     0.000005072784     0.000005643112
      18        0.000004552916    -0.000000634820    -0.000001563262
      19       -0.000001382484     0.000000551310    -0.000003029079
      20        0.000003737876    -0.000003300960    -0.000000756352
      21        0.000000995129     0.000002671235    -0.000003982379
      22        0.000001003225    -0.000002708395     0.000001075442
      23        0.000000587587    -0.000000225459     0.000000212820
      24        0.000000292103    -0.000004407442    -0.000001137887
      25        0.000002021941     0.000001296045     0.000000739559

  **** Optimization is complete! (in 14 steps) ****
    Final optimized geometry and variables:
    Molecular point group: c1

    Geometry (in Angstrom), charge = 0, multiplicity = 1:

    H           -1.906039834120     2.437628611234    -1.202362883565
    C           -1.254245570649     2.255634306085    -0.338654792225
    C           -1.846562852984     1.367724613377     0.726204296443
    O           -0.176664518931     2.755457596238    -0.290203815779
    C           -2.382779260481     0.034950184981     0.174442305968
    H           -1.116763195569     1.228054999019     1.512017084755
    H           -2.686789624909     1.916486071152     1.150362387535
    C           -1.340693933150    -1.029183073014    -0.263434994736
    H           -3.003548509967    -0.392081028206     0.955307171350
    H           -3.057941397880     0.242104934898    -0.651662030501
    C            0.098706187342    -0.855985965229     0.229546624820
    H           -1.356451775082    -1.126298471583    -1.346393512479
    H           -1.698568643649    -1.993046689217     0.090619818398
    C            1.004381160578    -1.994135870282    -0.249879545839
    H            0.498382111264     0.095156923955    -0.101281962233
    H            0.109342182286    -0.833140123690     1.317900720857
    C            2.441754958634    -1.927455438066     0.279052731939
    H            1.024331841720    -2.003948690703    -1.338589726072
    H            0.567004823776    -2.943077981920     0.054246382817
    C            3.250897414409    -0.733213008438    -0.230403424849
    H            2.954565724736    -2.843392169527    -0.004509352414
    H            2.423820287666    -1.915183170903     1.367056372495
    H            3.279916770009    -0.717559882424    -1.316643896209
    H            2.836914508497     0.212390045393     0.102295940720
    H            4.275462318504    -0.783722460441     0.125359424870

  Mulliken Charges: (a.u.)
   Center  Symbol    Alpha    Beta     Spin     Total
       1     H     0.43138  0.43138  0.00000  0.13724
       2     C     2.82913  2.82913  0.00000  0.34174
       3     C     3.21195  3.21195  0.00000 -0.42390
       4     O     4.24010  4.24010  0.00000 -0.48020
       5     C     3.16799  3.16799  0.00000 -0.33597
       6     H     0.39685  0.39685  0.00000  0.20630
       7     H     0.40638  0.40638  0.00000  0.18723
       8     C     3.15819  3.15819  0.00000 -0.31638
       9     H     0.41195  0.41195  0.00000  0.17610
      10     H     0.41670  0.41670  0.00000  0.16661
      11     C     3.16502  3.16502  0.00000 -0.33003
      12     H     0.41920  0.41920  0.00000  0.16161
      13     H     0.41856  0.41856  0.00000  0.16288
      14     C     3.15245  3.15245  0.00000 -0.30490
      15     H     0.40652  0.40652  0.00000  0.18696
      16     H     0.42380  0.42380  0.00000  0.15241
      17     C     3.15234  3.15234  0.00000 -0.30468
      18     H     0.42374  0.42374  0.00000  0.15252
      19     H     0.42337  0.42337  0.00000  0.15327
      20     C     3.24300  3.24300  0.00000 -0.48601
      21     H     0.42151  0.42151  0.00000  0.15698
      22     H     0.42379  0.42379  0.00000  0.15243
      23     H     0.42239  0.42239  0.00000  0.15522
      24     H     0.41384  0.41384  0.00000  0.17232
      25     H     0.41987  0.41987  0.00000  0.16026

   Total alpha = 36.00000, Total beta = 36.00000, Total charge = -0.00000
