                              Psi4 1.0.54 Driver

  ==> Input File <==

--------------------------------------------------------------------------
set {
	reference rhf
	basis cc-pvtz
}

set_num_threads( 4 )
memory 2 gb

molecule MOL {
0 1

H	 -2.647047	 -2.310656	 0.657315
C	 -2.958149	 -1.524815	 -0.044507
C	 -2.715973	 -0.118135	 0.431406
O	 -3.450980	 -1.816626	 -1.078563
C	 -1.275015	 0.110166	 0.897447
H	 -2.992356	 0.565798	 -0.360543
H	 -3.392265	 0.047353	 1.267197
C	 -0.247837	 0.040196	 -0.230469
H	 -1.219313	 1.081955	 1.375843
H	 -1.025265	 -0.618548	 1.664776
C	 1.181757	 0.280428	 0.247371
H	 -0.503778	 0.774817	 -0.989372
H	 -0.303990	 -0.928691	 -0.719889
C	 2.151032	 -0.811012	 -0.202643
H	 1.515939	 1.247397	 -0.115449
H	 1.191514	 0.341223	 1.333422
C	 3.580021	 -0.656538	 0.320835
H	 2.170545	 -0.847575	 -1.289412
H	 1.766632	 -1.772905	 0.124928
C	 4.327657	 0.562694	 -0.213579
H	 4.138806	 -1.549270	 0.057813
H	 3.561991	 -0.620783	 1.406976
H	 4.355973	 0.557257	 -1.298551
H	 3.867136	 1.491650	 0.100501
H	 5.351524	 0.571613	 0.142204

	symmetry c1
}
set optking {
	frozen_dihedral = ("
		12 8 11 14
	")
}

ee,wfn = optimize('scf', return_wfn=True)
oeprop( wfn, 'DIPOLE', 'QUADRUPOLE', 'MULLIKEN_CHARGES')
f=open( 'psi4out.xyz', 'w' )
f.write( "25  " )
f.write( str(ee) + "\n" )
f.write( MOL.save_string_xyz() )
f.close()
--------------------------------------------------------------------------

    Molecular point group: c1
  Charge       = 0
  Multiplicity = 1
  Basis Set: CC-PVTZ
  Basis Set:
  @DF-RHF Final Energy:  -387.25499403166964
    Total Energy =                       -387.2549940316702077
    Molecular point group: c1
  Basis Set: CC-PVTZ
  Basis Set:
  Basis Set: CC-PVTZ
  Basis Set:
  @DF-RHF Final Energy:  -387.25522733334020
    Total Energy =                       -387.2552273333399171
  Basis Set: CC-PVTZ
  Basis Set:
  Basis Set: CC-PVTZ
  Basis Set:
  @DF-RHF Final Energy:  -387.25526528190915
    Total Energy =                       -387.2552652819091463
  Basis Set: CC-PVTZ
  Basis Set:
  Basis Set: CC-PVTZ
  Basis Set:
  @DF-RHF Final Energy:  -387.25506734723615
    Total Energy =                       -387.2550673472362632
  Basis Set: CC-PVTZ
  Basis Set:
  Basis Set: CC-PVTZ
  Basis Set:
  @DF-RHF Final Energy:  -387.25529889022073
    Total Energy =                       -387.2552988902205016
  Basis Set: CC-PVTZ
  Basis Set:
  Charge       = 0
  Multiplicity = 1
  Basis Set: CC-PVTZ
  Basis Set:

    Orbital Energies (a.u.)
    -----------------------

    Doubly Occupied:

       1A    -20.551334     2A    -11.320981     3A    -11.233693
       4A    -11.233085     5A    -11.221543     6A    -11.217497
       7A    -11.216473     8A    -11.215819     9A    -11.208750
      10A     -1.406362    11A     -1.104047    12A     -1.070972
      13A     -1.012982    14A     -0.943486    15A     -0.876587
      16A     -0.821715    17A     -0.788496    18A     -0.783254
      19A     -0.668229    20A     -0.659122    21A     -0.633077
      22A     -0.626797    23A     -0.605585    24A     -0.592995
      25A     -0.581494    26A     -0.554074    27A     -0.533134
      28A     -0.527894    29A     -0.511009    30A     -0.498182
      31A     -0.490775    32A     -0.480277    33A     -0.462811
      34A     -0.455807    35A     -0.443048    36A     -0.411840

  @DF-RHF Final Energy:  -387.25529937108138

   => Energetics <=

    Nuclear Repulsion Energy =            440.6568241875648937
    One-Electron Energy =               -1397.8977917565621283
    Two-Electron Energy =                 569.9856681979160840
    DFT Exchange-Correlation Energy =       0.0000000000000000
    Empirical Dispersion Energy =           0.0000000000000000
    PCM Polarization Energy =               0.0000000000000000
    EFP Energy =                            0.0000000000000000
    Total Energy =                       -387.2552993710811506
    Molecular point group: c1
  Basis Set: CC-PVTZ
  Basis Set:

  -Total Gradient:
     Atom            X                  Y                   Z
    ------   -----------------  -----------------  -----------------
       1        0.000032302044     0.000018408697    -0.000017151999
       2       -0.000087339305     0.000010401141     0.000055330278
       3        0.000029730758    -0.000019715673    -0.000036078049
       4        0.000038911839     0.000015217117    -0.000013903000
       5        0.000012493159     0.000018277436     0.000022536932
       6        0.000000026851    -0.000009548584     0.000009488769
       7        0.000010898644    -0.000013710508    -0.000005598662
       8        0.000690705940    -0.001809863061    -0.001326631067
       9        0.000000401743    -0.000005490048     0.000013050862
      10       -0.000016270458     0.000006449940     0.000007103559
      11        0.000282600827     0.001370430776    -0.001318745603
      12       -0.000668609175     0.001207594975     0.001417163841
      13        0.000022937791    -0.000006964891     0.000005086423
      14       -0.000290277964    -0.000793753561     0.001188619131
      15        0.000006430688     0.000003984855     0.000009998541
      16       -0.000020001246    -0.000004360912    -0.000004407472
      17       -0.000001789318     0.000011233200    -0.000017401888
      18        0.000005114758    -0.000024886073     0.000007923360
      19       -0.000014728436     0.000020329837    -0.000004424858
      20       -0.000002163829    -0.000015733244    -0.000000070731
      21        0.000003339386     0.000009433126    -0.000010455765
      22        0.000006266295    -0.000005564954    -0.000005589232
      23        0.000005111391    -0.000008789407     0.000027478398
      24       -0.000030283322     0.000020004112    -0.000001133265
      25       -0.000015809061     0.000006615706    -0.000002188503

  **** Optimization is complete! (in 6 steps) ****
    Final optimized geometry and variables:
    Molecular point group: c1

    Geometry (in Angstrom), charge = 0, multiplicity = 1:

    H           -2.756065532724    -1.866346353426     0.631805022468
    C           -3.056536503236    -1.067879372596    -0.060338425127
    C           -2.795304367621     0.329517659163     0.432580948835
    O           -3.552913254969    -1.340296114171    -1.097963453954
    C           -1.352975624514     0.531474215215     0.904884041848
    H           -3.059844399917     1.026511603168    -0.352024018752
    H           -3.471503919537     0.494945226666     1.268490834685
    C           -0.321442644184     0.451543162101    -0.220704424090
    H           -1.281970210835     1.499328865082     1.389439781136
    H           -1.116333370297    -0.205788647055     1.668377472567
    C            1.121550017617     0.696883964729     0.263084365588
    H           -0.588655859144     1.184149906673    -0.975095831283
    H           -0.388030118139    -0.518472407808    -0.703156650325
    C            2.102718451741    -0.384577727971    -0.188834099180
    H            1.455828796872     1.669547835212    -0.076590295156
    H            1.137012573606     0.738097784929     1.349063445671
    C            3.535793031571    -0.201941992040     0.312504860893
    H            2.107096688858    -0.436749564245    -1.275295748898
    H            1.734748483382    -1.346708091914     0.157313327260
    C            4.261773710282     1.013774277826    -0.258705142327
    H            4.102125979446    -1.093537785778     0.061848753855
    H            3.531186420902    -0.142234402067     1.397857274230
    H            4.277882676080     0.982882964735    -1.343381349672
    H            3.793242221104     1.944182779623     0.038612991050
    H            5.289365776287     1.043664365989     0.084905087742

  Mulliken Charges: (a.u.)
   Center  Symbol    Alpha    Beta     Spin     Total
       1     H     0.46407  0.46407  0.00000  0.07186
       2     C     2.90533  2.90533  0.00000  0.18934
       3     C     3.08855  3.08855  0.00000 -0.17711
       4     O     4.16633  4.16633  0.00000 -0.33266
       5     C     3.11501  3.11501  0.00000 -0.23001
       6     H     0.44308  0.44308  0.00000  0.11385
       7     H     0.44069  0.44069  0.00000  0.11863
       8     C     3.09623  3.09623  0.00000 -0.19245
       9     H     0.44187  0.44187  0.00000  0.11625
      10     H     0.44981  0.44981  0.00000  0.10038
      11     C     3.09860  3.09860  0.00000 -0.19720
      12     H     0.44588  0.44588  0.00000  0.10823
      13     H     0.44727  0.44727  0.00000  0.10547
      14     C     3.09624  3.09624  0.00000 -0.19249
      15     H     0.44570  0.44570  0.00000  0.10860
      16     H     0.45510  0.45510  0.00000  0.08979
      17     C     3.09045  3.09045  0.00000 -0.18091
      18     H     0.45077  0.45077  0.00000  0.09845
      19     H     0.44941  0.44941  0.00000  0.10119
      20     C     3.15223  3.15223  0.00000 -0.30445
      21     H     0.44783  0.44783  0.00000  0.10433
      22     H     0.45489  0.45489  0.00000  0.09021
      23     H     0.45417  0.45417  0.00000  0.09166
      24     H     0.45429  0.45429  0.00000  0.09141
      25     H     0.44619  0.44619  0.00000  0.10763

   Total alpha = 36.00000, Total beta = 36.00000, Total charge =  0.00000

*** Psi4 exiting successfully. Buy a developer a beer!
