  ==> Input File <==

--------------------------------------------------------------------------
set {
	reference rhf
	basis 6-31G*
}

set_num_threads( 4 )
memory 2 gb

molecule MOL {
0 1

H	 0.750040	 -0.833647	 1.324345
C	 -0.279970	 -0.897382	 0.989146
N	 -0.528168	 0.128977	 -0.000000
H	 -0.917980	 -0.735402	 1.850391
H	 -0.448366	 -1.913909	 0.623659
C	 0.248044	 -0.037491	 -1.209632
H	 -1.502888	 0.153836	 -0.224347
H	 0.998722	 0.743888	 -1.266824
H	 -0.398417	 0.061950	 -2.074060
H	 0.763621	 -0.999315	 -1.275517

	symmetry c1
}
set optking {
	frozen_dihedral = ("
		2 3 6 8
	")
}

ee = optimize('scf')
oeprop('DIPOLE', 'QUADRUPOLE', 'MULLIKEN_CHARGES')
f=open( 'psi4out.xyz', 'w' )
f.write( "10  " )
f.write( str(ee) + "\n" )
f.write( MOL.save_string_xyz() )
f.close()
--------------------------------------------------------------------------

    Molecular point group: c1
  Charge       = 0
  Multiplicity = 1
  Basis Set: 6-31G*
  Basis Set:
  @DF-RHF Final Energy:  -134.23361863209539
    Total Energy =                       -134.2336186320953857
    Molecular point group: c1
  Basis Set: 6-31G*
  Basis Set:
  Basis Set: 6-31G*
  Basis Set:
  @DF-RHF Final Energy:  -134.23399935607688
    Total Energy =                       -134.2339993560768789
  Basis Set: 6-31G*
  Basis Set:
  Basis Set: 6-31G*
  Basis Set:
  @DF-RHF Final Energy:  -134.23408160725447
    Total Energy =                       -134.2340816072544953
  Basis Set: 6-31G*
  Basis Set:
  Charge       = 0
  Multiplicity = 1
  Basis Set: 6-31G*
  Basis Set:

    Orbital Energies (a.u.)
    -----------------------

    Doubly Occupied:

       1A    -15.535718     2A    -11.236042     3A    -11.235787
       4A     -1.195339     5A     -0.947853     6A     -0.854124
       7A     -0.659387     8A     -0.611263     9A     -0.588474
      10A     -0.544559    11A     -0.508487    12A     -0.505779
      13A     -0.358028

  @DF-RHF Final Energy:  -134.23408251025378

   => Energetics <=

    Nuclear Repulsion Energy =             84.3899001560536135
    One-Electron Energy =                -347.6862849355077287
    Two-Electron Energy =                 129.0623022692003303
    DFT Exchange-Correlation Energy =       0.0000000000000000
    Empirical Dispersion Energy =           0.0000000000000000
    PCM Polarization Energy =               0.0000000000000000
    EFP Energy =                            0.0000000000000000
    Total Energy =                       -134.2340825102537849
    Molecular point group: c1
  Basis Set: 6-31G*
  Basis Set:

  -Total Gradient:
     Atom            X                  Y                   Z
    ------   -----------------  -----------------  -----------------
       1       -0.000032726541     0.000049339929    -0.000069013234
       2       -0.001776953342    -0.001330129402    -0.000858625077
       3        0.001907782675     0.002306710057     0.000894620734
       4        0.000002826415    -0.000007548683     0.000040779704
       5        0.000018609255     0.000023328716    -0.000017139869
       6        0.001816094691    -0.002751052255     0.001434508547
       7        0.000001171487    -0.000031752751     0.000056083831
       8       -0.001941092117     0.001737074598    -0.001441554902
       9       -0.000005758329    -0.000004017824    -0.000011571075
      10        0.000010045807     0.000008047615    -0.000028088660

  **** Optimization is complete! (in 4 steps) ****
    Final optimized geometry and variables:
    Molecular point group: c1

    Geometry (in Angstrom), charge = 0, multiplicity = 1:

    H            0.932250177598    -0.551191337911     1.424938215644
    C           -0.094312087674    -0.614126881094     1.079682255161
    N           -0.336931547893     0.408476498701     0.084557382551
    H           -0.738133780509    -0.446036897940     1.935631300566
    H           -0.261871653952    -1.631820933419     0.718382649655
    C            0.441101313010     0.263381422569    -1.137963310922
    H           -1.311399464930     0.432094897044    -0.132126160922
    H            1.193077095446     1.042721781597    -1.214397698121
    H           -0.197996748347     0.357804330573    -2.010418413184
    H            0.936359422140    -0.702821303034    -1.202937238120

  Mulliken Charges: (a.u.)
   Center  Symbol    Alpha    Beta     Spin     Total
       1     H     0.41766  0.41766  0.00000  0.16467
       2     C     3.14438  3.14438  0.00000 -0.28876
       3     N     3.84357  3.84357  0.00000 -0.68715
       4     H     0.41779  0.41779  0.00000  0.16442
       5     H     0.43460  0.43460  0.00000  0.13080
       6     C     3.14453  3.14453  0.00000 -0.28906
       7     H     0.33090  0.33090  0.00000  0.33820
       8     H     0.41653  0.41653  0.00000  0.16694
       9     H     0.42375  0.42375  0.00000  0.15251
      10     H     0.42628  0.42628  0.00000  0.14743

   Total alpha = 13.00000, Total beta = 13.00000, Total charge =  0.00000
