                              Psi4 1.0.54 Driver

  ==> Input File <==

--------------------------------------------------------------------------
set {
	reference rhf
	basis cc-pvtz
}

set_num_threads( 4 )
memory 2 gb

molecule MOL {
0 1

H	 -2.644180	 -0.653737	 1.272255
C	 -2.092774	 -0.380414	 0.391915
O	 -0.808934	 -0.154049	 0.752536
F	 -2.163230	 -1.351640	 -0.507133
F	 -2.627232	 0.691260	 -0.169301
C	 -0.092840	 -1.185861	 1.319877
C	 0.673130	 -0.611113	 2.509092
Cl	 1.038001	 -1.898744	 0.154316
H	 -0.724790	 -1.978540	 1.680355
F	 1.366253	 -1.548531	 3.103946
F	 -0.184741	 -0.130112	 3.377429
F	 1.482918	 0.349903	 2.158459

	symmetry c1
}
set optking {
	frozen_dihedral = ("
		6 3 2 4
	")
}

ee,wfn = optimize('scf', return_wfn=True)
oeprop( wfn, 'DIPOLE', 'QUADRUPOLE', 'MULLIKEN_CHARGES')
f=open( 'psi4out.xyz', 'w' )
f.write( "12  " )
f.write( str(ee) + "\n" )
f.write( MOL.save_string_xyz() )
f.close()
--------------------------------------------------------------------------

    Molecular point group: c1
  Charge       = 0
  Multiplicity = 1
  Basis Set: CC-PVTZ
  Basis Set:
  @DF-RHF Final Energy: -1146.61424022212941
    Total Energy =                      -1146.6142402221303200
    Molecular point group: c1
  Basis Set: CC-PVTZ
  Basis Set:
  Basis Set: CC-PVTZ
  Basis Set:
  @DF-RHF Final Energy: -1146.61614841041796
    Total Energy =                      -1146.6161484104186457
  Basis Set: CC-PVTZ
  Basis Set:
  Basis Set: CC-PVTZ
  Basis Set:
  @DF-RHF Final Energy: -1146.61665947027518
    Total Energy =                      -1146.6166594702754082
  Basis Set: CC-PVTZ
  Basis Set:
  Basis Set: CC-PVTZ
  Basis Set:
  @DF-RHF Final Energy: -1146.61669715969219
    Total Energy =                      -1146.6166971596912845
  Basis Set: CC-PVTZ
  Basis Set:
  Basis Set: CC-PVTZ
  Basis Set:
  @DF-RHF Final Energy: -1146.61669775846167
    Total Energy =                      -1146.6166977584621236
  Basis Set: CC-PVTZ
  Basis Set:
  Basis Set: CC-PVTZ
  Basis Set:
  @DF-RHF Final Energy: -1146.61670506075598
    Total Energy =                      -1146.6167050607557485
  Basis Set: CC-PVTZ
  Basis Set:
  Basis Set: CC-PVTZ
  Basis Set:
  @DF-RHF Final Energy: -1146.61670688917093
    Total Energy =                      -1146.6167068891709278
  Basis Set: CC-PVTZ
  Basis Set:
  Charge       = 0
  Multiplicity = 1
  Basis Set: CC-PVTZ
  Basis Set:

    Orbital Energies (a.u.)
    -----------------------

    Doubly Occupied:

       1A   -104.858998     2A    -26.359689     3A    -26.359404
       4A    -26.357161     5A    -26.344227     6A    -26.342458
       7A    -20.640846     8A    -11.524316     9A    -11.486293
      10A    -11.406420    11A    -10.584491    12A     -8.051289
      13A     -8.049279    14A     -8.049209    15A     -1.772410
      16A     -1.725917    17A     -1.667370    18A     -1.666189
      19A     -1.648168    20A     -1.488587    21A     -1.179498
      22A     -1.053403    23A     -0.990737    24A     -0.935648
      25A     -0.866258    26A     -0.860840    27A     -0.852264
      28A     -0.839736    29A     -0.822330    30A     -0.794703
      31A     -0.738733    32A     -0.736056    33A     -0.710060
      34A     -0.702667    35A     -0.689795    36A     -0.685189
      37A     -0.668921    38A     -0.668468    39A     -0.653191
      40A     -0.639447    41A     -0.617577    42A     -0.573698
      43A     -0.520089    44A     -0.480271    45A     -0.472197

  @DF-RHF Final Energy: -1146.61670764644305

   => Energetics <=

    Nuclear Repulsion Energy =            730.0906330548128835
    One-Electron Energy =               -3043.1456879796546673
    Two-Electron Energy =                1166.4383472783990783
    DFT Exchange-Correlation Energy =       0.0000000000000000
    Empirical Dispersion Energy =           0.0000000000000000
    PCM Polarization Energy =               0.0000000000000000
    EFP Energy =                            0.0000000000000000
    Total Energy =                      -1146.6167076464428192
    Molecular point group: c1
  Basis Set: CC-PVTZ
  Basis Set:

  -Total Gradient:
     Atom            X                  Y                   Z
    ------   -----------------  -----------------  -----------------
       1       -0.000011037106    -0.000039091435    -0.000001480087
       2       -0.000017379539     0.000429633536    -0.000769807348
       3       -0.000135774954     0.000056587928     0.000826502646
       4        0.000055458931    -0.000357432110     0.000411210055
       5        0.000015609354     0.000016494314     0.000028928044
       6        0.000107819137    -0.000070597951    -0.000478458902
       7        0.000043615019     0.000007599069    -0.000009480462
       8       -0.000025988072    -0.000016401452    -0.000014361044
       9        0.000003010839    -0.000010148046     0.000011327978
      10       -0.000016408620     0.000015916779    -0.000000694585
      11        0.000000021321    -0.000006267682    -0.000004065947
      12       -0.000018946310    -0.000026293012     0.000000379638

  **** Optimization is complete! (in 8 steps) ****
    Final optimized geometry and variables:
    Molecular point group: c1

    Geometry (in Angstrom), charge = 0, multiplicity = 1:

    H           -2.494404363031     0.074281994748     0.035551997375
    C           -1.885277354176     0.370123690345    -0.806166935048
    O           -0.591608241921     0.603561296113    -0.455549777395
    F           -1.953583919324    -0.578551556457    -1.726973013059
    F           -2.343711765968     1.481882547713    -1.319826615511
    C            0.122724752659    -0.442214778775     0.071732704987
    C            0.858677919348     0.074824443469     1.305695324806
    CL           1.276371754701    -1.099582212622    -1.102147729598
    H           -0.507292238028    -1.259887231556     0.384305079554
    F            1.544412798439    -0.885870523503     1.870362975323
    F           -0.031854645994     0.498676568752     2.175828134809
    F            1.663651137876     1.060800721266     1.029676189076

  Mulliken Charges: (a.u.)
   Center  Symbol    Alpha    Beta     Spin     Total
       1     H     0.47839  0.47839  0.00000  0.04322
       2     C     2.74545  2.74545  0.00000  0.50911
       3     O     4.14458  4.14458  0.00000 -0.28916
       4     F     4.61367  4.61367  0.00000 -0.22734
       5     F     4.59745  4.59745  0.00000 -0.19489
       6     C     2.93655  2.93655  0.00000  0.12690
       7     C     2.66731  2.66731  0.00000  0.66538
       8    CL     8.57124  8.57124  0.00000 -0.14248
       9     H     0.43735  0.43735  0.00000  0.12530
      10     F     4.60199  4.60199  0.00000 -0.20398
      11     F     4.60831  4.60831  0.00000 -0.21663
      12     F     4.59772  4.59772  0.00000 -0.19543

   Total alpha = 45.00000, Total beta = 45.00000, Total charge = -0.00000

*** Psi4 exiting successfully. Buy a developer a beer!
