  ==> Input File <==

--------------------------------------------------------------------------
set {
	reference rhf
	basis cc-pvtz
}

set_num_threads( 4 )
memory 2 gb

molecule MOL {
0 1

H	 -2.292055	 -0.603589	 0.174634
O	 -1.432053	 -0.565244	 -0.200812
C	 -0.727158	 0.534527	 0.310686
C	 0.680222	 0.664433	 -0.252229
H	 -1.306802	 1.408001	 0.044211
H	 -0.690821	 0.490158	 1.397609
C	 1.605391	 -0.489360	 0.123098
H	 0.615089	 0.745647	 -1.332226
H	 1.101414	 1.597893	 0.110950
H	 1.247627	 -1.432485	 -0.275204
H	 2.601435	 -0.332816	 -0.273062
H	 1.691776	 -0.589902	 1.200774

	symmetry c1
}
set optking {
	frozen_dihedral = ("
		1 2 3 4
	")
}

ee = optimize('scf')
oeprop('DIPOLE', 'QUADRUPOLE', 'MULLIKEN_CHARGES')
f=open( 'psi4out.xyz', 'w' )
f.write( "12  " )
f.write( str(ee) + "\n" )
f.write( MOL.save_string_xyz() )
f.close()
--------------------------------------------------------------------------

    Molecular point group: c1
  Charge       = 0
  Multiplicity = 1
  Basis Set: CC-PVTZ
  Basis Set:
  @DF-RHF Final Energy:  -193.18952358231797
    Total Energy =                       -193.1895235823179178
    Molecular point group: c1
  Basis Set: CC-PVTZ
  Basis Set:
  Basis Set: CC-PVTZ
  Basis Set:
  @DF-RHF Final Energy:  -193.19097410584394
    Total Energy =                       -193.1909741058439067
  Basis Set: CC-PVTZ
  Basis Set:
  Basis Set: CC-PVTZ
  Basis Set:
  @DF-RHF Final Energy:  -193.19132317477403
    Total Energy =                       -193.1913231747740269
  Basis Set: CC-PVTZ
  Basis Set:
  Basis Set: CC-PVTZ
  Basis Set:
  @DF-RHF Final Energy:  -193.19132808716705
    Total Energy =                       -193.1913280871669372
  Basis Set: CC-PVTZ
  Basis Set:
  Basis Set: CC-PVTZ
  Basis Set:
  @DF-RHF Final Energy:  -193.19132937573644
    Total Energy =                       -193.1913293757363306
  Basis Set: CC-PVTZ
  Basis Set:
  Charge       = 0
  Multiplicity = 1
  Basis Set: CC-PVTZ
  Basis Set:

    Orbital Energies (a.u.)
    -----------------------

    Doubly Occupied:

       1A    -20.546474     2A    -11.266151     3A    -11.212993
       4A    -11.201420     5A     -1.364511     6A     -1.048045
       7A     -0.919247     8A     -0.798600     9A     -0.708522
      10A     -0.643800    11A     -0.586004    12A     -0.582797
      13A     -0.537882    14A     -0.499098    15A     -0.482767
      16A     -0.465250    17A     -0.436637

  @DF-RHF Final Energy:  -193.19132952257422

   => Energetics <=

    Nuclear Repulsion Energy =            133.4236313029577445
    One-Electron Energy =                -526.6295259824244113
    Two-Electron Energy =                 200.0145651568924450
    DFT Exchange-Correlation Energy =       0.0000000000000000
    Empirical Dispersion Energy =           0.0000000000000000
    PCM Polarization Energy =               0.0000000000000000
    EFP Energy =                            0.0000000000000000
    Total Energy =                       -193.1913295225742218
    Molecular point group: c1
  Basis Set: CC-PVTZ
  Basis Set:

  -Total Gradient:
     Atom            X                  Y                   Z
    ------   -----------------  -----------------  -----------------
       1       -0.000050377759     0.000080645614    -0.000122504296
       2        0.000042101281    -0.000094381609     0.000119735104
       3        0.000033051085    -0.000065789609     0.000054664977
       4       -0.000029239045     0.000072520535    -0.000048719174
       5        0.000010981093    -0.000002237628     0.000003866929
       6        0.000005274675     0.000011261478    -0.000000203962
       7       -0.000007034115     0.000003879758    -0.000003409933
       8       -0.000007046920    -0.000001902539     0.000000640506
       9        0.000008161221    -0.000000657373    -0.000002762307
      10       -0.000002202851    -0.000006197075    -0.000001532352
      11       -0.000005046576    -0.000000277799     0.000000378400
      12        0.000001377910     0.000003136248    -0.000000153893

  **** Optimization is complete! (in 6 steps) ****
    Final optimized geometry and variables:
    Molecular point group: c1

    Geometry (in Angstrom), charge = 0, multiplicity = 1:

    H           -2.216470713660    -0.676849152165     0.122716692075
    O           -1.346768704183    -0.590592071893    -0.220867771794
    C           -0.721771380279     0.542539541857     0.323292260679
    C            0.678283807907     0.656815286291    -0.247982970668
    H           -1.287410301628     1.438789161072     0.081312531089
    H           -0.673245826890     0.465545877828     1.407908258934
    C            1.587259494482    -0.508021716636     0.129403210637
    H            0.602439977385     0.730897173855    -1.327830450865
    H            1.109190256943     1.589903757465     0.103343831291
    H            1.179703747044    -1.446463033380    -0.221846859642
    H            2.572923385738    -0.383724553174    -0.303961584811
    H            1.705638333164    -0.576559390591     1.206212725460

  Mulliken Charges: (a.u.)
   Center  Symbol    Alpha    Beta     Spin     Total
       1     H     0.39525  0.39525  0.00000  0.20950
       2     O     4.19925  4.19925  0.00000 -0.39849
       3     C     2.96893  2.96893  0.00000  0.06215
       4     C     3.08324  3.08324  0.00000 -0.16648
       5     H     0.46683  0.46683  0.00000  0.06634
       6     H     0.47483  0.47483  0.00000  0.05034
       7     C     3.14812  3.14812  0.00000 -0.29623
       8     H     0.45274  0.45274  0.00000  0.09452
       9     H     0.45551  0.45551  0.00000  0.08899
      10     H     0.44496  0.44496  0.00000  0.11009
      11     H     0.45102  0.45102  0.00000  0.09797
      12     H     0.45934  0.45934  0.00000  0.08132

   Total alpha = 17.00000, Total beta = 17.00000, Total charge = -0.00000
