  ==> Input File <==

--------------------------------------------------------------------------
set {
	reference rhf
	basis cc-pvtz
}

set_num_threads( 4 )
memory 2 gb

molecule MOL {
0 1

O	 1.360407	 0.106959	 -0.890290
C	 0.576499	 0.134701	 -0.003900
C	 -0.765656	 -0.550508	 -0.002152
O	 0.780128	 0.795267	 1.124001
C	 -1.945526	 0.411052	 0.000603
H	 -0.794329	 -1.203792	 -0.868145
H	 -0.791555	 -1.205429	 0.862701
C	 -3.282915	 -0.321280	 0.002596
H	 -1.880300	 1.059126	 -0.864925
H	 -1.877207	 1.057892	 0.866807
H	 -3.388495	 -0.952755	 -0.873419
H	 -4.107811	 0.380864	 0.004116
H	 -3.385717	 -0.953283	 0.878571
C	 2.003088	 1.491551	 1.256550
H	 2.838387	 0.810303	 1.191496
H	 1.976382	 1.956282	 2.228661
H	 2.099557	 2.242447	 0.486556

	symmetry c1
}
set optking {
	frozen_dihedral = ("
		1 2 3 6
	")
}

ee = optimize('scf')
oeprop('DIPOLE', 'QUADRUPOLE', 'MULLIKEN_CHARGES')
f=open( 'psi4out.xyz', 'w' )
f.write( "17  " )
f.write( str(ee) + "\n" )
f.write( MOL.save_string_xyz() )
f.close()
--------------------------------------------------------------------------

    Molecular point group: c1
  Charge       = 0
  Multiplicity = 1
  Basis Set: CC-PVTZ
  Basis Set:
  @DF-RHF Final Energy:  -345.03382330606729
    Total Energy =                       -345.0338233060667790
    Molecular point group: c1
  Basis Set: CC-PVTZ
  Basis Set:
  Basis Set: CC-PVTZ
  Basis Set:
  @DF-RHF Final Energy:  -345.03411950459696
    Total Energy =                       -345.0341195045970153
  Basis Set: CC-PVTZ
  Basis Set:
  Basis Set: CC-PVTZ
  Basis Set:
  @DF-RHF Final Energy:  -345.03317270589503
    Total Energy =                       -345.0331727058950833
  Basis Set: CC-PVTZ
  Basis Set:
  Basis Set: CC-PVTZ
  Basis Set:
  @DF-RHF Final Energy:  -345.03420512396474
    Total Energy =                       -345.0342051239646253
  Basis Set: CC-PVTZ
  Basis Set:
  Basis Set: CC-PVTZ
  Basis Set:
  @DF-RHF Final Energy:  -345.03420839466384
    Total Energy =                       -345.0342083946635512
  Basis Set: CC-PVTZ
  Basis Set:
  Charge       = 0
  Multiplicity = 1
  Basis Set: CC-PVTZ
  Basis Set:

    Orbital Energies (a.u.)
    -----------------------

    Doubly Occupied:

       1A    -20.597272     2A    -20.533070     3A    -11.363727
       4A    -11.278822     5A    -11.233003     6A    -11.229846
       7A    -11.216779     8A     -1.472152     9A     -1.364898
      10A     -1.085661    11A     -1.000206    12A     -0.942482
      13A     -0.831599    14A     -0.776317    15A     -0.699423
      16A     -0.683519    17A     -0.676436    18A     -0.638563
      19A     -0.597163    20A     -0.580582    21A     -0.549401
      22A     -0.548492    23A     -0.527343    24A     -0.510378
      25A     -0.489802    26A     -0.484783    27A     -0.458755
      28A     -0.435038

  @DF-RHF Final Energy:  -345.03420853119081

   => Energetics <=

    Nuclear Repulsion Energy =            314.6993914290906673
    One-Electron Energy =               -1093.8561867086109487
    Two-Electron Energy =                 434.1225867483296383
    DFT Exchange-Correlation Energy =       0.0000000000000000
    Empirical Dispersion Energy =           0.0000000000000000
    PCM Polarization Energy =               0.0000000000000000
    EFP Energy =                            0.0000000000000000
    Total Energy =                       -345.0342085311906999
    Molecular point group: c1
  Basis Set: CC-PVTZ
  Basis Set:

  -Total Gradient:
     Atom            X                  Y                   Z
    ------   -----------------  -----------------  -----------------
       1        0.000122895042    -0.000249248333     0.000127437687
       2       -0.000194872082     0.000399687961    -0.000233599595
       3        0.000189876575    -0.000352953894     0.000236471351
       4       -0.000002028244     0.000019541479     0.000015808647
       5        0.000017307572    -0.000013136352     0.000019813612
       6       -0.000109911837     0.000209684400    -0.000152848396
       7       -0.000004332691     0.000006074383    -0.000005376004
       8       -0.000014271485    -0.000001050467    -0.000010202211
       9       -0.000003816860    -0.000007756337     0.000008355269
      10       -0.000001725017     0.000003111802     0.000002958693
      11        0.000004254040    -0.000003115605     0.000001409077
      12       -0.000001149207     0.000001060291    -0.000004455488
      13        0.000003737198     0.000006349673     0.000000505599
      14       -0.000004810293    -0.000022811905    -0.000006707594
      15        0.000006658001     0.000003710729     0.000001958489
      16       -0.000005265944    -0.000001072448    -0.000000353364
      17       -0.000002544766     0.000001924623    -0.000001175770

  **** Optimization is complete! (in 6 steps) ****
    Final optimized geometry and variables:
    Molecular point group: c1

    Geometry (in Angstrom), charge = 0, multiplicity = 1:

    O            1.491465412907    -0.183721280417    -1.121952634835
    C            0.728190234111    -0.174949747368    -0.216714952878
    C           -0.603428102157    -0.878740183206    -0.207884718601
    O            0.955909139363     0.471091282010     0.915301382907
    C           -1.783826302731     0.097839181134    -0.213962758236
    H           -0.634178501613    -1.514049435124    -1.081389269916
    H           -0.651944969475    -1.504121920301     0.676454566269
    C           -3.125224187106    -0.625671208031    -0.242123224291
    H           -1.703694317931     0.746594369160    -1.080431877042
    H           -1.728143898814     0.733633851447     0.661143714394
    H           -3.215638250316    -1.250792225295    -1.123676923781
    H           -3.945830213017     0.081641403019    -0.251749004628
    H           -3.245128998178    -1.261012728540     0.628866043668
    C            2.170040736217     1.186710672440     1.021008009184
    H            3.014319081417     0.520835448642     0.921564618639
    H            2.165253898875     1.638516590666     1.999681256337
    H            2.230774576529     1.948934515031     0.258447963684

  Mulliken Charges: (a.u.)
   Center  Symbol    Alpha    Beta     Spin     Total
       1     O     4.20011  4.20011  0.00000 -0.40022
       2     C     2.80742  2.80742  0.00000  0.38516
       3     C     3.07804  3.07804  0.00000 -0.15608
       4     O     4.15020  4.15020  0.00000 -0.30041
       5     C     3.09300  3.09300  0.00000 -0.18600
       6     H     0.43786  0.43786  0.00000  0.12427
       7     H     0.44700  0.44700  0.00000  0.10599
       8     C     3.15116  3.15116  0.00000 -0.30233
       9     H     0.44773  0.44773  0.00000  0.10455
      10     H     0.44434  0.44434  0.00000  0.11133
      11     H     0.45289  0.45289  0.00000  0.09422
      12     H     0.44615  0.44615  0.00000  0.10770
      13     H     0.45424  0.45424  0.00000  0.09153
      14     C     3.03718  3.03718  0.00000 -0.07436
      15     H     0.45272  0.45272  0.00000  0.09456
      16     H     0.44555  0.44555  0.00000  0.10890
      17     H     0.45441  0.45441  0.00000  0.09119

   Total alpha = 28.00000, Total beta = 28.00000, Total charge =  0.00000
