  ==> Input File <==

--------------------------------------------------------------------------
set {
	reference rhf
	basis 6-31G*
}

set_num_threads( 1 )
memory 2 gb

molecule MOL {
0 1

H	 -4.048925	 0.450269	 -0.829087
C	 -3.372398	 -0.195020	 -0.303183
C	 -2.076860	 -0.007332	 -0.404944
H	 -3.780023	 -0.985341	 0.298603
O	 -1.180634	 -0.819263	 0.215062
H	 -1.648780	 0.782581	 -0.996536
C	 0.051604	 -1.018856	 -0.387932
C	 1.043764	 0.054862	 -0.001873
H	 -0.017620	 -1.041351	 -1.469781
H	 0.437898	 -1.966374	 -0.042284
F	 2.212596	 -0.199467	 -0.571921
F	 0.652529	 1.252447	 -0.405055
F	 1.230877	 0.110694	 1.300533

	symmetry c1
}
set optking {
	frozen_dihedral = ("
		11 8 7 9,
		3 5 7 9,
		6 3 2 1
	")
}

ee = energy('scf')
oeprop('DIPOLE', 'QUADRUPOLE', 'MULLIKEN_CHARGES')
f=open( 'psi4out.xyz', 'w' )
f.write( "13  " )
f.write( str(ee) + "\n" )
f.write( MOL.save_string_xyz() )
f.close()
--------------------------------------------------------------------------

    Molecular point group: c1

    Geometry (in Angstrom), charge = 0, multiplicity = 1:

       Center              X                  Y                   Z               Mass
    ------------   -----------------  -----------------  -----------------  -----------------
           H         -4.029551344504     0.511953574614    -0.776312859976     1.007825032070
           C         -3.353024344504    -0.133335425386    -0.250408859976    12.000000000000
           C         -2.057486344504     0.054352574614    -0.352169859976    12.000000000000
           H         -3.760649344504    -0.923656425386     0.351377140024     1.007825032070
           O         -1.161260344504    -0.757578425386     0.267836140024    15.994914619560
           H         -1.629406344504     0.844265574614    -0.943761859976     1.007825032070
           C          0.070977655496    -0.957171425386    -0.335157859976    12.000000000000
           C          1.063137655496     0.116546574614     0.050901140024    12.000000000000
           H          0.001753655496    -0.979666425386    -1.417006859976     1.007825032070
           H          0.457271655496    -1.904689425386     0.010490140024     1.007825032070
           F          2.231969655496    -0.137782425386    -0.519146859976    18.998403224000
           F          0.671902655496     1.314131574614    -0.352280859976    18.998403224000
           F          1.250250655496     0.172378574614     1.353307140024    18.998403224000

  Charge       = 0
  Multiplicity = 1
  Basis Set: 6-31G*
  Basis Set:

    Orbital Energies (a.u.)
    -----------------------

    Doubly Occupied:

       1A    -26.347105     2A    -26.345242     3A    -26.341481
       4A    -20.604304     5A    -11.504066     6A    -11.317515
       7A    -11.296606     8A    -11.219052     9A     -1.743415
      10A     -1.642072    11A     -1.639504    12A     -1.435546
      13A     -1.083677    14A     -1.016670    15A     -0.926608
      16A     -0.837128    17A     -0.832465    18A     -0.826560
      19A     -0.781679    20A     -0.725944    21A     -0.712499
      22A     -0.701075    23A     -0.676361    24A     -0.659661
      25A     -0.655814    26A     -0.644815    27A     -0.629852
      28A     -0.593312    29A     -0.565632    30A     -0.528947
      31A     -0.492750    32A     -0.356755

  @DF-RHF Final Energy:  -527.53498444193860

   => Energetics <=

    Nuclear Repulsion Energy =            412.6159252456687909
    One-Electron Energy =               -1548.9334721590403205
    Two-Electron Energy =                 608.7825624714331525
    DFT Exchange-Correlation Energy =       0.0000000000000000
    Empirical Dispersion Energy =           0.0000000000000000
    PCM Polarization Energy =               0.0000000000000000
    EFP Energy =                            0.0000000000000000
    Total Energy =                       -527.5349844419384908

  Mulliken Charges: (a.u.)
   Center  Symbol    Alpha    Beta     Spin     Total
       1     H     0.40677  0.40677  0.00000  0.18647
       2     C     3.22874  3.22874  0.00000 -0.45749
       3     C     2.90709  2.90709  0.00000  0.18581
       4     H     0.40211  0.40211  0.00000  0.19577
       5     O     4.30455  4.30455  0.00000 -0.60911
       6     H     0.40044  0.40044  0.00000  0.19913
       7     C     3.06270  3.06270  0.00000 -0.12540
       8     C     2.45731  2.45731  0.00000  1.08539
       9     H     0.40423  0.40423  0.00000  0.19154
      10     H     0.38942  0.38942  0.00000  0.22116
      11     F     4.68279  4.68279  0.00000 -0.36557
      12     F     4.67961  4.67961  0.00000 -0.35922
      13     F     4.67425  4.67425  0.00000 -0.34849

   Total alpha = 32.00000, Total beta = 32.00000, Total charge =  0.00000
