                              Psi4 1.0.54 Driver

  ==> Input File <==

--------------------------------------------------------------------------
set {
	reference rhf
	basis cc-pvtz
}

set_num_threads( 4 )
memory 2 gb

molecule MOL {
0 1

H	 -3.642953	 0.223825	 0.000000
C	 -2.571844	 0.155001	 0.000000
C	 -1.957580	 -1.086132	 0.000000
C	 -1.807160	 1.303787	 0.000000
H	 -2.551493	 -1.979629	 0.000000
C	 -0.582719	 -1.174294	 0.000000
H	 -2.279934	 2.266806	 0.000000
C	 -0.427220	 1.213406	 0.000000
H	 -0.094904	 -2.127556	 0.000000
C	 0.196908	 -0.024061	 0.000000
H	 0.151409	 2.115254	 0.000000
C	 1.690041	 -0.173233	 0.000000
C	 2.521426	 0.760761	 0.849183
O	 2.213053	 -1.014535	 -0.658811
H	 2.363717	 1.791088	 0.553319
H	 3.561319	 0.505194	 0.722542
H	 2.251820	 0.671055	 1.894767

	symmetry c1
}
set optking {
	frozen_dihedral = ("
		13 12 10 8
	")
}

ee,wfn = optimize('scf', return_wfn=True)
oeprop( wfn, 'DIPOLE', 'QUADRUPOLE', 'MULLIKEN_CHARGES')
f=open( 'psi4out.xyz', 'w' )
f.write( "17  " )
f.write( str(ee) + "\n" )
f.write( MOL.save_string_xyz() )
f.close()
--------------------------------------------------------------------------

    Molecular point group: c1
  Charge       = 0
  Multiplicity = 1
  Basis Set: CC-PVTZ
  Basis Set:
  @DF-RHF Final Energy:  -382.60234632801797
    Total Energy =                       -382.6023463280180295
    Molecular point group: c1
  Basis Set: CC-PVTZ
  Basis Set:
  Basis Set: CC-PVTZ
  Basis Set:
  @DF-RHF Final Energy:  -382.60028964659830
    Total Energy =                       -382.6002896465982985
  Basis Set: CC-PVTZ
  Basis Set:
  Basis Set: CC-PVTZ
  Basis Set:
  @DF-RHF Final Energy:  -382.60284863192220
    Total Energy =                       -382.6028486319224839
  Basis Set: CC-PVTZ
  Basis Set:
  Basis Set: CC-PVTZ
  Basis Set:
  @DF-RHF Final Energy:  -382.60293105030877
    Total Energy =                       -382.6029310503083707
  Basis Set: CC-PVTZ
  Basis Set:
  Basis Set: CC-PVTZ
  Basis Set:
  @DF-RHF Final Energy:  -382.60294871688433
    Total Energy =                       -382.6029487168846117
  Basis Set: CC-PVTZ
  Basis Set:
  Basis Set: CC-PVTZ
  Basis Set:
  @DF-RHF Final Energy:  -382.60296353835372
    Total Energy =                       -382.6029635383541745
  Basis Set: CC-PVTZ
  Basis Set:
  Charge       = 0
  Multiplicity = 1
  Basis Set: CC-PVTZ
  Basis Set:

    Orbital Energies (a.u.)
    -----------------------

    Doubly Occupied:

       1A    -20.542777     2A    -11.328499     3A    -11.245858
       4A    -11.243735     5A    -11.242324     6A    -11.239635
       7A    -11.239047     8A    -11.237159     9A    -11.229753
      10A     -1.403630    11A     -1.171160    12A     -1.053397
      13A     -1.030445    14A     -0.999820    15A     -0.863966
      16A     -0.839940    17A     -0.764224    18A     -0.710661
      19A     -0.661388    20A     -0.651389    21A     -0.627642
      22A     -0.618733    23A     -0.603257    24A     -0.593911
      25A     -0.559272    26A     -0.530894    27A     -0.518331
      28A     -0.505374    29A     -0.496724    30A     -0.414621
      31A     -0.349969    32A     -0.346845

  @DF-RHF Final Energy:  -382.60296391487225

   => Energetics <=

    Nuclear Repulsion Energy =            404.2310128187135660
    One-Electron Energy =               -1319.9391962110412351
    Two-Electron Energy =                 533.1052194774555346
    DFT Exchange-Correlation Energy =       0.0000000000000000
    Empirical Dispersion Energy =           0.0000000000000000
    PCM Polarization Energy =               0.0000000000000000
    EFP Energy =                            0.0000000000000000
    Total Energy =                       -382.6029639148721344
    Molecular point group: c1
  Basis Set: CC-PVTZ
  Basis Set:

  -Total Gradient:
     Atom            X                  Y                   Z
    ------   -----------------  -----------------  -----------------
       1       -0.000000223486    -0.000002671854     0.000000364464
       2        0.000002999772     0.000036116124    -0.000001907693
       3        0.000035097606    -0.000023518253     0.000006147944
       4       -0.000027369504    -0.000014151043    -0.000008792159
       5       -0.000000581568     0.000000336097    -0.000003498624
       6       -0.000032845154    -0.000018123135     0.000004880901
       7        0.000003717349     0.000001632784     0.000000442034
       8       -0.000064888699    -0.000055017957    -0.003335224429
       9        0.000000117272     0.000000200349    -0.000004071906
      10        0.000070556574    -0.000785701182     0.006072857703
      11       -0.000003970911     0.000001439787    -0.000007392500
      12        0.000147098145     0.002730574979    -0.004971207582
      13       -0.000114794853    -0.001811044325     0.002198382866
      14        0.000001400862    -0.000029390413    -0.000015942018
      15       -0.000002155596    -0.000000088459     0.000034024116
      16       -0.000001977076    -0.000007623955     0.000006671627
      17       -0.000012180733    -0.000022969546     0.000024265257

  **** Optimization is complete! (in 7 steps) ****
    Final optimized geometry and variables:
    Molecular point group: c1

    Geometry (in Angstrom), charge = 0, multiplicity = 1:

    H           -3.637504902952     0.256485733428    -0.051994590246
    C           -2.567012523877     0.180876684131    -0.038485323068
    C           -1.960504479742    -1.063274360196    -0.045605106372
    C           -1.794269161644     1.324648106047    -0.019755464772
    H           -2.559591610279    -1.953208365217    -0.065137685655
    C           -0.585076801033    -1.160372419378    -0.041035965831
    H           -2.260677151492     2.290875924582    -0.027620889825
    C           -0.415274407926     1.226217540490     0.008751999824
    H           -0.105951930681    -2.118411216486    -0.073906006826
    C            0.198157038700    -0.015593399033     0.004703019106
    H            0.172635356322     2.122997003322     0.025328491528
    C            1.691456742277    -0.168393316838    -0.034091809948
    C            2.530382789172     0.781085226737     0.789159657169
    O            2.189635474766    -1.058561643045    -0.643807559065
    H            2.413835486233     1.803932446767     0.452030718556
    H            3.567597104264     0.495528820050     0.708483119466
    H            2.213847054805     0.742584749939     1.824923385152

  Mulliken Charges: (a.u.)
   Center  Symbol    Alpha    Beta     Spin     Total
       1     H     0.42073  0.42073  0.00000  0.15854
       2     C     3.07748  3.07748  0.00000 -0.15495
       3     C     3.06921  3.06921  0.00000 -0.13841
       4     C     3.07061  3.07061  0.00000 -0.14123
       5     H     0.42074  0.42074  0.00000  0.15852
       6     C     3.08300  3.08300  0.00000 -0.16601
       7     H     0.42180  0.42180  0.00000  0.15640
       8     C     3.09016  3.09016  0.00000 -0.18033
       9     H     0.41220  0.41220  0.00000  0.17559
      10     C     2.98840  2.98840  0.00000  0.02320
      11     H     0.42357  0.42357  0.00000  0.15286
      12     C     2.86015  2.86015  0.00000  0.27969
      13     C     3.15696  3.15696  0.00000 -0.31392
      14     O     4.17448  4.17448  0.00000 -0.34896
      15     H     0.45128  0.45128  0.00000  0.09743
      16     H     0.43411  0.43411  0.00000  0.13178
      17     H     0.44511  0.44511  0.00000  0.10978

   Total alpha = 32.00000, Total beta = 32.00000, Total charge = -0.00000

*** Psi4 exiting successfully. Buy a developer a beer!
