                              Psi4 1.0.54 Driver

  ==> Input File <==

--------------------------------------------------------------------------
set {
	reference rhf
	basis cc-pvtz
}

set_num_threads( 4 )
memory 2 gb

molecule MOL {
0 1

H	 2.415411	 2.948868	 0.772056
O	 1.477024	 2.912301	 0.811029
C	 1.016221	 1.712952	 0.405213
C	 1.862846	 0.695449	 -0.007819
C	 -0.349249	 1.514224	 0.409579
H	 2.926295	 0.851971	 -0.010590
C	 1.343079	 -0.516599	 -0.414927
H	 -1.005747	 2.298097	 0.728010
C	 -0.861704	 0.296439	 0.000000
H	 2.007752	 -1.296504	 -0.732386
C	 -0.021700	 -0.723469	 -0.413528
C	 -2.330689	 0.069587	 0.000000
H	 -0.428792	 -1.664900	 -0.729554
O	 -2.848621	 -0.993976	 0.000000
H	 -2.934306	 0.982410	 0.000000

	symmetry c1
}
set optking {
	frozen_dihedral = ("
		11 9 12 14
	")
}

ee,wfn = optimize('scf', return_wfn=True)
oeprop( wfn, 'DIPOLE', 'QUADRUPOLE', 'MULLIKEN_CHARGES')
f=open( 'psi4out.xyz', 'w' )
f.write( "15  " )
f.write( str(ee) + "\n" )
f.write( MOL.save_string_xyz() )
f.close()
--------------------------------------------------------------------------

    Molecular point group: c1
  Charge       = 0
  Multiplicity = 1
  Basis Set: CC-PVTZ
  Basis Set:
  @DF-RHF Final Energy:  -418.43757328304957
    Total Energy =                       -418.4375732830491188
    Molecular point group: c1
  Basis Set: CC-PVTZ
  Basis Set:
  Basis Set: CC-PVTZ
  Basis Set:
  @DF-RHF Final Energy:  -418.43698279760878
    Total Energy =                       -418.4369827976088345
  Basis Set: CC-PVTZ
  Basis Set:
  Basis Set: CC-PVTZ
  Basis Set:
  @DF-RHF Final Energy:  -418.43766485419667
    Total Energy =                       -418.4376648541966688
  Basis Set: CC-PVTZ
  Basis Set:
  Basis Set: CC-PVTZ
  Basis Set:
  @DF-RHF Final Energy:  -418.43798372755077
    Total Energy =                       -418.4379837275507725
  Basis Set: CC-PVTZ
  Basis Set:
  Basis Set: CC-PVTZ
  Basis Set:
  @DF-RHF Final Energy:  -418.43798973898083
    Total Energy =                       -418.4379897389807184
  Basis Set: CC-PVTZ
  Basis Set:
  Charge       = 0
  Multiplicity = 1
  Basis Set: CC-PVTZ
  Basis Set:

    Orbital Energies (a.u.)
    -----------------------

    Doubly Occupied:

       1A    -20.598491     2A    -20.555722     3A    -11.328327
       4A    -11.313403     5A    -11.251649     6A    -11.248937
       7A    -11.245739     8A    -11.244257     9A    -11.236365
      10A     -1.429884    11A     -1.411239    12A     -1.173965
      13A     -1.054021    14A     -1.028365    15A     -0.904216
      16A     -0.849512    17A     -0.817928    18A     -0.741943
      19A     -0.705065    20A     -0.679085    21A     -0.665807
      22A     -0.633723    23A     -0.614341    24A     -0.610881
      25A     -0.583561    26A     -0.554363    27A     -0.541072
      28A     -0.519273    29A     -0.492444    30A     -0.427032
      31A     -0.360439    32A     -0.329383

  @DF-RHF Final Energy:  -418.43799157510927

   => Energetics <=

    Nuclear Repulsion Energy =            403.2256006464712641
    One-Electron Energy =               -1369.0263242383023226
    Two-Electron Energy =                 547.3627320167219068
    DFT Exchange-Correlation Energy =       0.0000000000000000
    Empirical Dispersion Energy =           0.0000000000000000
    PCM Polarization Energy =               0.0000000000000000
    EFP Energy =                            0.0000000000000000
    Total Energy =                       -418.4379915751090948
    Molecular point group: c1
  Basis Set: CC-PVTZ
  Basis Set:

  -Total Gradient:
     Atom            X                  Y                   Z
    ------   -----------------  -----------------  -----------------
       1       -0.000001273881    -0.000004402536     0.000001001210
       2       -0.000012002910    -0.000029920875     0.000007155490
       3       -0.000048122895     0.000073501221    -0.000034990100
       4        0.000004632938    -0.000058108099    -0.000030694428
       5        0.000014979356     0.000029352418     0.000062711021
       6       -0.000000347634    -0.000012728229    -0.000005986310
       7        0.000025280218     0.000031628860     0.000067354871
       8        0.000010871732     0.000001236374    -0.000011891322
       9        0.000284451069    -0.001661969790     0.005456268221
      10        0.000003872875    -0.000007386790    -0.000009234942
      11       -0.000166817952     0.001114346947    -0.002660316695
      12       -0.000128443950     0.000660507470    -0.006313969551
      13       -0.000006033400    -0.000019011258    -0.000022517845
      14        0.000014215923    -0.000143190394     0.003511264322
      15        0.000004738515     0.000026144698    -0.000016153941

  **** Optimization is complete! (in 6 steps) ****
    Final optimized geometry and variables:
    Molecular point group: c1

    Geometry (in Angstrom), charge = 0, multiplicity = 1:

    H            2.491008108207     2.384009355478     0.654752576311
    O            1.553289798322     2.333583743018     0.700054009047
    C            1.110004215551     1.127891886237     0.292240972879
    C            1.955952053476     0.124913481872    -0.135850323039
    C           -0.258325234449     0.912051172319     0.303919288444
    H            3.017885173622     0.290272621485    -0.155951601335
    C            1.436395340552    -1.093186251040    -0.546004308861
    H           -0.907250602711     1.704998919254     0.623475926396
    C           -0.764228957117    -0.311107007849    -0.084603090647
    H            2.105374503006    -1.860490012917    -0.885066556139
    C            0.080447740759    -1.321828594154    -0.523224247141
    C           -2.237931330442    -0.512815792974    -0.072208422000
    H           -0.332513585996    -2.260687006107    -0.831509274577
    O           -2.768779847226    -1.569687380008    -0.087008342518
    H           -2.828358680619     0.407206212536    -0.017763194553

  Mulliken Charges: (a.u.)
   Center  Symbol    Alpha    Beta     Spin     Total
       1     H     0.38627  0.38627  0.00000  0.22746
       2     O     4.17212  4.17212  0.00000 -0.34424
       3     C     2.84216  2.84216  0.00000  0.31567
       4     C     3.13017  3.13017  0.00000 -0.26034
       5     C     3.12858  3.12858  0.00000 -0.25716
       6     H     0.43143  0.43143  0.00000  0.13714
       7     C     3.06025  3.06025  0.00000 -0.12050
       8     H     0.41872  0.41872  0.00000  0.16256
       9     C     2.95898  2.95898  0.00000  0.08205
      10     H     0.41868  0.41868  0.00000  0.16263
      11     C     3.10475  3.10475  0.00000 -0.20951
      12     C     2.91221  2.91221  0.00000  0.17558
      13     H     0.41049  0.41049  0.00000  0.17902
      14     O     4.16822  4.16822  0.00000 -0.33644
      15     H     0.45697  0.45697  0.00000  0.08606

   Total alpha = 32.00000, Total beta = 32.00000, Total charge = -0.00000

*** Psi4 exiting successfully. Buy a developer a beer!
