                              Psi4 1.0.54 Driver

  ==> Input File <==

--------------------------------------------------------------------------
set {
	reference rhf
	basis cc-pvtz
}

set_num_threads( 4 )
memory 2 gb

molecule MOL {
0 1

O	 -1.078606	 2.421602	 1.225748
C	 -1.129486	 1.871472	 0.173988
C	 0.111037	 1.265909	 -0.452465
C	 -2.428397	 1.729201	 -0.583216
C	 0.376695	 -0.140025	 0.100361
H	 0.946432	 1.912854	 -0.216482
H	 0.005681	 1.224206	 -1.531365
C	 1.630207	 -0.772146	 -0.501001
H	 0.466225	 -0.070204	 1.177087
H	 -0.478014	 -0.780981	 -0.101995
C	 2.907848	 -0.545876	 0.309149
H	 1.772784	 -0.391628	 -1.509394
H	 1.468529	 -1.842059	 -0.599744
C	 3.373802	 0.906639	 0.372125
H	 3.699140	 -1.146831	 -0.127906
H	 2.764321	 -0.923458	 1.318191
H	 3.519798	 1.311927	 -0.623875
H	 4.316899	 0.983758	 0.900700
H	 2.661122	 1.540651	 0.885346
H	 -2.381782	 2.328068	 -1.487198
H	 -3.253417	 2.062428	 0.027416
H	 -2.583010	 0.700351	 -0.888422

	symmetry c1
}
set optking {
	frozen_dihedral = ("
		3 5 8 12
	")
}

ee,wfn = optimize('scf', return_wfn=True)
oeprop( wfn, 'DIPOLE', 'QUADRUPOLE', 'MULLIKEN_CHARGES')
f=open( 'psi4out.xyz', 'w' )
f.write( "22  " )
f.write( str(ee) + "\n" )
f.write( MOL.save_string_xyz() )
f.close()
--------------------------------------------------------------------------

    Molecular point group: c1
  Charge       = 0
  Multiplicity = 1
  Basis Set: CC-PVTZ
  Basis Set:
  @DF-RHF Final Energy:  -348.21788021147421
    Total Energy =                       -348.2178802114743235
    Molecular point group: c1
  Basis Set: CC-PVTZ
  Basis Set:
  Basis Set: CC-PVTZ
  Basis Set:
  @DF-RHF Final Energy:  -348.21872882026332
    Total Energy =                       -348.2187288202632089
  Basis Set: CC-PVTZ
  Basis Set:
  Basis Set: CC-PVTZ
  Basis Set:
  @DF-RHF Final Energy:  -348.21887909402722
    Total Energy =                       -348.2188790940276704
  Basis Set: CC-PVTZ
  Basis Set:
  Basis Set: CC-PVTZ
  Basis Set:
  @DF-RHF Final Energy:  -348.21827059145949
    Total Energy =                       -348.2182705914595999
  Basis Set: CC-PVTZ
  Basis Set:
  @DF-RHF Final Energy:  -348.21893202318108
    Total Energy =                       -348.2189320231811962
  Basis Set: CC-PVTZ
  Basis Set:
  @DF-RHF Final Energy:  -348.21894858619237
    Total Energy =                       -348.2189485861924823
  Basis Set: CC-PVTZ
  Basis Set:
  Basis Set: CC-PVTZ
  Basis Set:
  @DF-RHF Final Energy:  -348.21894615848981
    Total Energy =                       -348.2189461584898709
  Basis Set: CC-PVTZ
  Basis Set:
  Basis Set: CC-PVTZ
  Basis Set:
  @DF-RHF Final Energy:  -348.21894995055254
    Total Energy =                       -348.2189499505523713
  Basis Set: CC-PVTZ
  Basis Set:
  Charge       = 0
  Multiplicity = 1
  Basis Set: CC-PVTZ
  Basis Set:

    Orbital Energies (a.u.)
    -----------------------

    Doubly Occupied:

       1A    -20.536726     2A    -11.319000     3A    -11.228500
       4A    -11.226742     5A    -11.226637     6A    -11.220640
       7A    -11.217936     8A    -11.208435     9A     -1.396704
      10A     -1.095061    11A     -1.043336    12A     -0.998746
      13A     -0.943248    14A     -0.857567    15A     -0.784195
      16A     -0.735348    17A     -0.659659    18A     -0.651827
      19A     -0.628128    20A     -0.613770    21A     -0.599891
      22A     -0.584547    23A     -0.559279    24A     -0.549856
      25A     -0.532958    26A     -0.522063    27A     -0.502956
      28A     -0.490095    29A     -0.467574    30A     -0.466080
      31A     -0.454605    32A     -0.398038

  @DF-RHF Final Energy:  -348.21895025275558

   => Energetics <=

    Nuclear Repulsion Energy =            379.6824964389757042
    One-Electron Energy =               -1224.3625970518273789
    Two-Electron Energy =                 496.4611503600957008
    DFT Exchange-Correlation Energy =       0.0000000000000000
    Empirical Dispersion Energy =           0.0000000000000000
    PCM Polarization Energy =               0.0000000000000000
    EFP Energy =                            0.0000000000000000
    Total Energy =                       -348.2189502527559739
    Molecular point group: c1
  Basis Set: CC-PVTZ
  Basis Set:

  -Total Gradient:
     Atom            X                  Y                   Z
    ------   -----------------  -----------------  -----------------
       1       -0.000011357074    -0.000005855310    -0.000006780991
       2        0.000009746745    -0.000000901582    -0.000013139962
       3        0.000011270516     0.000029971739     0.000015002709
       4       -0.000001678112     0.000006907061     0.000011018121
       5       -0.000023123246    -0.000026767140    -0.000020731317
       6       -0.000013011484    -0.000011401064    -0.000004060716
       7        0.000002907434    -0.000000136142     0.000003004093
       8        0.000030527237     0.000020731463     0.000017355251
       9        0.000000792482    -0.000004183103     0.000004780065
      10        0.000006562378     0.000007084392     0.000000262011
      11       -0.000002243399     0.000006084264     0.000007286920
      12       -0.000017281989    -0.000021015022    -0.000007665464
      13        0.000002054727     0.000000850636    -0.000003573851
      14        0.000005363972     0.000006803312    -0.000004738988
      15       -0.000004750021     0.000001164109    -0.000000128967
      16       -0.000003496912    -0.000001798938     0.000001203883
      17        0.000002752487     0.000004394645    -0.000009383100
      18        0.000002502410    -0.000005571915     0.000002898221
      19       -0.000001540601    -0.000005987756     0.000003694590
      20        0.000000654221    -0.000003561751     0.000003460302
      21        0.000000610528    -0.000001876023    -0.000001874844
      22        0.000002737706     0.000005064125     0.000002112035

  **** Optimization is complete! (in 9 steps) ****
    Final optimized geometry and variables:
    Molecular point group: c1

    Geometry (in Angstrom), charge = 0, multiplicity = 1:

    O           -1.532020229894     1.635865572431     1.081196592272
    C           -1.624328592859     1.024884124231     0.066289936231
    C           -0.402173901993     0.412739886794    -0.589504613528
    C           -2.957052633155     0.813396720105    -0.611502027345
    C           -0.087924053138    -0.962565607177     0.018933884763
    H            0.422159609813     1.093883867751    -0.439114139332
    H           -0.563361066267     0.305241194554    -1.656898888298
    C            1.169573855140    -1.637097767511    -0.555348908943
    H            0.006525288759    -0.858713484055     1.094265590669
    H           -0.940765881315    -1.612426262504    -0.149747960789
    C            2.465118107121    -1.409946327883     0.229078697030
    H            1.310422994101    -1.326028252126    -1.587369526490
    H            0.997592297962    -2.707692755685    -0.588814392805
    C            2.954482322394     0.033432418784     0.311258910599
    H            3.241628948180    -2.014817902359    -0.229417928628
    H            2.336247742062    -1.798270284463     1.235645918212
    H            3.069383438961     0.468115136581    -0.676579592624
    H            3.919210888603     0.077351624620     0.803347386096
    H            2.275766786636     0.660167714525     0.876296299919
    H           -2.972001095082     1.364021477059    -1.546704427500
    H           -3.757018460252     1.161223041758     0.023810894265
    H           -3.102454275622    -0.233285343507    -0.853921879520

  Mulliken Charges: (a.u.)
   Center  Symbol    Alpha    Beta     Spin     Total
       1     O     4.17768  4.17768  0.00000 -0.35536
       2     C     2.85732  2.85732  0.00000  0.28536
       3     C     3.10291  3.10291  0.00000 -0.20581
       4     C     3.15520  3.15520  0.00000 -0.31039
       5     C     3.11522  3.11522  0.00000 -0.23043
       6     H     0.43529  0.43529  0.00000  0.12941
       7     H     0.44715  0.44715  0.00000  0.10570
       8     C     3.10204  3.10204  0.00000 -0.20407
       9     H     0.43948  0.43948  0.00000  0.12104
      10     H     0.44245  0.44245  0.00000  0.11510
      11     C     3.08416  3.08416  0.00000 -0.16831
      12     H     0.45351  0.45351  0.00000  0.09298
      13     H     0.44345  0.44345  0.00000  0.11310
      14     C     3.16200  3.16200  0.00000 -0.32400
      15     H     0.44881  0.44881  0.00000  0.10237
      16     H     0.45319  0.45319  0.00000  0.09362
      17     H     0.45414  0.45414  0.00000  0.09173
      18     H     0.44282  0.44282  0.00000  0.11436
      19     H     0.44786  0.44786  0.00000  0.10428
      20     H     0.44830  0.44830  0.00000  0.10339
      21     H     0.43612  0.43612  0.00000  0.12777
      22     H     0.45092  0.45092  0.00000  0.09815

   Total alpha = 32.00000, Total beta = 32.00000, Total charge =  0.00000

*** Psi4 exiting successfully. Buy a developer a beer!
