  ==> Input File <==

--------------------------------------------------------------------------
set {
	reference rhf
	basis 6-31G*
}

set_num_threads( 4 )
memory 2 gb

molecule MOL {
0 1

H	 -2.798360	 -0.862255	 -0.071053
N	 -1.863561	 -0.715187	 0.256814
C	 -1.344686	 0.554728	 -0.219830
H	 -1.300452	 -1.461917	 -0.101532
C	 0.081427	 0.741154	 0.254071
H	 -1.362155	 0.656231	 -1.305829
H	 -1.952773	 1.354456	 0.191809
O	 0.874854	 -0.243041	 -0.345028
H	 0.443031	 1.731873	 -0.020441
H	 0.121636	 0.650478	 1.337305
C	 2.203152	 -0.241799	 0.071138
H	 2.712751	 -1.037037	 -0.455742
H	 2.691986	 0.702799	 -0.160717
H	 2.284566	 -0.418863	 1.141572

	symmetry c1
}
set optking {
	frozen_dihedral = ("
		8 5 3 6
	")
}

ee = optimize('scf')
oeprop('DIPOLE', 'QUADRUPOLE', 'MULLIKEN_CHARGES')
f=open( 'psi4out.xyz', 'w' )
f.write( "14  " )
f.write( str(ee) + "\n" )
f.write( MOL.save_string_xyz() )
f.close()
--------------------------------------------------------------------------

    Molecular point group: c1
  Charge       = 0
  Multiplicity = 1
  Basis Set: 6-31G*
  Basis Set:

    Orbital Energies (a.u.)
    -----------------------

    Doubly Occupied:

       1A    -20.557519     2A    -15.528499     3A    -11.266255
       4A    -11.265642     5A    -11.240830     6A     -1.381499
       7A     -1.173694     8A     -0.999048     9A     -0.907191
      10A     -0.815236    11A     -0.683850    12A     -0.674025
      13A     -0.645407    14A     -0.610153    15A     -0.605266
      16A     -0.540720    17A     -0.530085    18A     -0.496966
      19A     -0.472726    20A     -0.417652    21A     -0.380157

  @DF-RHF Final Energy:  -248.12527076052183

   => Energetics <=

    Nuclear Repulsion Energy =            194.6666228096789553
    One-Electron Energy =                -723.1989473589733279
    Two-Electron Energy =                 280.4070537887723162
    DFT Exchange-Correlation Energy =       0.0000000000000000
    Empirical Dispersion Energy =           0.0000000000000000
    PCM Polarization Energy =               0.0000000000000000
    EFP Energy =                            0.0000000000000000
    Total Energy =                       -248.1252707605220280
    Molecular point group: c1
  Basis Set: 6-31G*
  Basis Set:

  -Total Gradient:
     Atom            X                  Y                   Z
    ------   -----------------  -----------------  -----------------
       1       -0.000027461316     0.000048788838    -0.000013298806
       2        0.000083063534     0.000041306319     0.000043501343
       3       -0.000035934878     0.000014748547    -0.000049628339
       4        0.000031305804     0.000017304115     0.000008702126
       5       -0.000089728038    -0.000111375086     0.000027770579
       6       -0.000011553333    -0.000017043778    -0.000020614373
       7       -0.000034214963     0.000020740037    -0.000001062918
       8        0.000095835050    -0.000014059638     0.000023083951
       9       -0.000036937036    -0.000007742096    -0.000003507783
      10        0.000019951527    -0.000020116020     0.000029259359
      11       -0.000072817610     0.000042611701    -0.000065791093
      12        0.000017529160    -0.000012690153    -0.000004209860
      13        0.000065703193    -0.000004883585     0.000024956531
      14       -0.000004741096     0.000002410799     0.000000839283

  **** Optimization is complete! (in 1 steps) ****
    Final optimized geometry and variables:
    Molecular point group: c1

    Geometry (in Angstrom), charge = 0, multiplicity = 1:

    H           -2.798668428867    -0.863225053412    -0.069744298443
    N           -1.863869428867    -0.716157053412     0.258122701557
    C           -1.344994428867     0.553757946588    -0.218521298443
    H           -1.300760428867    -1.462887053412    -0.100223298443
    C            0.081118571133     0.740183946588     0.255379701557
    H           -1.362463428867     0.655260946588    -1.304520298443
    H           -1.953081428867     1.353485946588     0.193117701557
    O            0.874545571133    -0.244011053412    -0.343719298443
    H            0.442722571133     1.730902946588    -0.019132298443
    H            0.121327571133     0.649507946588     1.338613701557
    C            2.202843571133    -0.242769053412     0.072446701557
    H            2.712442571133    -1.038007053412    -0.454433298443
    H            2.691677571133     0.701828946588    -0.159408298443
    H            2.284257571133    -0.419833053412     1.142880701557

  Mulliken Charges: (a.u.)
   Center  Symbol    Alpha    Beta     Spin     Total
       1     H     0.33282  0.33282  0.00000  0.33437
       2     N     3.92525  3.92525  0.00000 -0.85051
       3     C     3.06893  3.06893  0.00000 -0.13786
       4     H     0.32377  0.32377  0.00000  0.35246
       5     C     2.99019  2.99019  0.00000  0.01962
       6     H     0.42656  0.42656  0.00000  0.14688
       7     H     0.42043  0.42043  0.00000  0.15913
       8     O     4.30966  4.30966  0.00000 -0.61933
       9     H     0.43098  0.43098  0.00000  0.13803
      10     H     0.42251  0.42251  0.00000  0.15498
      11     C     3.07904  3.07904  0.00000 -0.15808
      12     H     0.41250  0.41250  0.00000  0.17500
      13     H     0.42990  0.42990  0.00000  0.14019
      14     H     0.42745  0.42745  0.00000  0.14510

   Total alpha = 21.00000, Total beta = 21.00000, Total charge = -0.00000
