  ==> Input File <==

--------------------------------------------------------------------------
set {
	reference rhf
	basis 6-31G*
}

set_num_threads( 1 )
memory 2 gb

molecule MOL {
0 1

H	 -3.261111	 -0.295142	 1.469456
C	 -3.306842	 -0.277400	 0.373456
C	 -2.660244	 0.921717	 -0.272021
O	 -3.838538	 -1.161155	 -0.216482
C	 -3.360192	 2.237309	 0.096145
H	 -1.612658	 0.936332	 0.005571
H	 -2.718033	 0.774782	 -1.349855
C	 -3.219634	 2.610669	 1.574030
H	 -2.944989	 3.031198	 -0.517558
H	 -4.414739	 2.171454	 -0.167198
C	 -3.912061	 3.929320	 1.924054
H	 -2.163106	 2.677320	 1.825334
H	 -3.627048	 1.815770	 2.195873
C	 -3.755847	 4.307732	 3.399301
H	 -3.508645	 4.717160	 1.292947
H	 -4.971579	 3.855366	 1.682524
C	 -4.502748	 5.580055	 3.815719
H	 -2.698114	 4.420165	 3.632223
H	 -4.114274	 3.481813	 4.010120
C	 -3.977264	 6.864757	 3.173049
H	 -4.435626	 5.679008	 4.896298
H	 -5.560615	 5.467868	 3.587129
H	 -2.916643	 6.994824	 3.371628
H	 -4.115132	 6.866848	 2.096962
H	 -4.495640	 7.732985	 3.568602

	symmetry c1
}
set optking {
	frozen_dihedral = ("
		6 3 5 8,
		3 5 8 12,
		12 8 11 14,
		8 11 14 18,
		20 17 14 18
	")
}

ee = energy('scf')
oeprop('DIPOLE', 'QUADRUPOLE', 'MULLIKEN_CHARGES')
f=open( 'psi4out.xyz', 'w' )
f.write( "25  " )
f.write( str(ee) + "\n" )
f.write( MOL.save_string_xyz() )
f.close()
--------------------------------------------------------------------------

    Molecular point group: c1

    Geometry (in Angstrom), charge = 0, multiplicity = 1:

       Center              X                  Y                   Z               Mass
    ------------   -----------------  -----------------  -----------------  -----------------
           H          0.358487810959    -3.076259938680    -0.071203810839     1.007825032070
           C          0.312756810959    -3.058517938680    -1.167203810839    12.000000000000
           C          0.959354810959    -1.859400938680    -1.812680810839    12.000000000000
           O         -0.218939189041    -3.942272938680    -1.757141810839    15.994914619560
           C          0.259406810959    -0.543808938680    -1.444514810839    12.000000000000
           H          2.006940810959    -1.844785938680    -1.535088810839     1.007825032070
           H          0.901565810959    -2.006335938680    -2.890514810839     1.007825032070
           C          0.399964810959    -0.170448938680     0.033370189161    12.000000000000
           H          0.674609810959     0.250080061320    -2.058217810839     1.007825032070
           H         -0.795140189041    -0.609663938680    -1.707857810839     1.007825032070
           C         -0.292462189041     1.148202061320     0.383394189161    12.000000000000
           H          1.456492810959    -0.103797938680     0.284674189161     1.007825032070
           H         -0.007449189041    -0.965347938680     0.655213189161     1.007825032070
           C         -0.136248189041     1.526614061320     1.858641189161    12.000000000000
           H          0.110953810959     1.936042061320    -0.247712810839     1.007825032070
           H         -1.351980189041     1.074248061320     0.141864189161     1.007825032070
           C         -0.883149189041     2.798937061320     2.275059189161    12.000000000000
           H          0.921484810959     1.639047061320     2.091563189161     1.007825032070
           H         -0.494675189041     0.700695061320     2.469460189161     1.007825032070
           C         -0.357665189041     4.083639061320     1.632389189161    12.000000000000
           H         -0.816027189041     2.897890061320     3.355638189161     1.007825032070
           H         -1.941016189041     2.686750061320     2.046469189161     1.007825032070
           H          0.702955810959     4.213706061320     1.830968189161     1.007825032070
           H         -0.495533189041     4.085730061320     0.556302189161     1.007825032070
           H         -0.876041189041     4.951867061320     2.027942189161     1.007825032070

  Charge       = 0
  Multiplicity = 1
  Basis Set: 6-31G*
  Basis Set:

    Orbital Energies (a.u.)
    -----------------------

    Doubly Occupied:

       1A    -20.562183     2A    -11.325164     3A    -11.235598
       4A    -11.233952     5A    -11.227542     6A    -11.221992
       7A    -11.219948     8A    -11.219362     9A    -11.212134
      10A     -1.401809    11A     -1.105913    12A     -1.070865
      13A     -1.014194    14A     -0.943424    15A     -0.877425
      16A     -0.828784    17A     -0.784235    18A     -0.778304
      19A     -0.677309    20A     -0.660175    21A     -0.633353
      22A     -0.620226    23A     -0.599873    24A     -0.596768
      25A     -0.572344    26A     -0.556973    27A     -0.542637
      28A     -0.519191    29A     -0.511831    30A     -0.501001
      31A     -0.489929    32A     -0.481854    33A     -0.467063
      34A     -0.461430    35A     -0.442857    36A     -0.406540

  @DF-RHF Final Energy:  -387.11970924525451

   => Energetics <=

    Nuclear Repulsion Energy =            437.6544432165393346
    One-Electron Energy =               -1391.5399791669012757
    Two-Electron Energy =                 566.7658267051075427
    DFT Exchange-Correlation Energy =       0.0000000000000000
    Empirical Dispersion Energy =           0.0000000000000000
    PCM Polarization Energy =               0.0000000000000000
    EFP Energy =                            0.0000000000000000
    Total Energy =                       -387.1197092452543984

  Mulliken Charges: (a.u.)
   Center  Symbol    Alpha    Beta     Spin     Total
       1     H     0.43108  0.43108  0.00000  0.13784
       2     C     2.83145  2.83145  0.00000  0.33711
       3     C     3.20922  3.20922  0.00000 -0.41845
       4     O     4.23742  4.23742  0.00000 -0.47484
       5     C     3.16473  3.16473  0.00000 -0.32946
       6     H     0.40932  0.40932  0.00000  0.18136
       7     H     0.39956  0.39956  0.00000  0.20089
       8     C     3.15787  3.15787  0.00000 -0.31574
       9     H     0.41243  0.41243  0.00000  0.17513
      10     H     0.41230  0.41230  0.00000  0.17541
      11     C     3.15381  3.15381  0.00000 -0.30762
      12     H     0.42116  0.42116  0.00000  0.15767
      13     H     0.42161  0.42161  0.00000  0.15679
      14     C     3.15308  3.15308  0.00000 -0.30615
      15     H     0.42019  0.42019  0.00000  0.15962
      16     H     0.42184  0.42184  0.00000  0.15632
      17     C     3.15281  3.15281  0.00000 -0.30561
      18     H     0.42380  0.42380  0.00000  0.15240
      19     H     0.42168  0.42168  0.00000  0.15663
      20     C     3.24148  3.24148  0.00000 -0.48296
      21     H     0.42006  0.42006  0.00000  0.15988
      22     H     0.42250  0.42250  0.00000  0.15501
      23     H     0.42215  0.42215  0.00000  0.15570
      24     H     0.42021  0.42021  0.00000  0.15958
      25     H     0.41826  0.41826  0.00000  0.16349

   Total alpha = 36.00000, Total beta = 36.00000, Total charge = -0.00000
