  ==> Input File <==

--------------------------------------------------------------------------
set {
	reference rhf
	basis 6-31G*
}

set_num_threads( 4 )
memory 2 gb

molecule MOL {
0 1

O	 -1.766130	 -0.126053	 -2.171424
C	 -2.109299	 -0.630772	 -1.150587
C	 -3.304237	 -1.540317	 -1.023627
O	 -1.481751	 -0.454642	 0.000584
H	 -3.171947	 -2.383725	 -1.690729
H	 -3.438222	 -1.890610	 -0.010819
H	 -4.187122	 -1.002009	 -1.347074
C	 -0.334255	 0.388708	 0.000906
C	 0.891947	 -0.504646	 0.000751
H	 -0.365390	 1.025305	 -0.873475
H	 -0.365484	 1.024911	 0.875569
C	 2.191998	 0.301789	 0.000897
H	 0.855148	 -1.151283	 -0.871571
H	 0.855132	 -1.151660	 0.872805
C	 3.441114	 -0.581407	 0.000108
H	 2.215074	 0.954890	 -0.869742
H	 2.215465	 0.953923	 0.872248
C	 4.739576	 0.224112	 -0.001102
H	 3.419457	 -1.233487	 -0.870178
H	 3.420834	 -1.233096	 0.870717
H	 4.804918	 0.861552	 -0.878265
H	 5.606527	 -0.429058	 -0.001824
H	 4.806469	 0.861674	 0.875853

	symmetry c1
}
set optking {
	frozen_dihedral = ("
		2 4 8 10
	")
}

ee = optimize('scf')
oeprop('DIPOLE', 'QUADRUPOLE', 'MULLIKEN_CHARGES')
f=open( 'psi4out.xyz', 'w' )
f.write( "23  " )
f.write( str(ee) + "\n" )
f.write( MOL.save_string_xyz() )
f.close()
--------------------------------------------------------------------------

    Molecular point group: c1
  Charge       = 0
  Multiplicity = 1
  Basis Set: 6-31G*
  Basis Set:
  @DF-RHF Final Energy:  -422.97709350484558
    Total Energy =                       -422.9770935048456977
    Molecular point group: c1
  Basis Set: 6-31G*
  Basis Set:
  Basis Set: 6-31G*
  Basis Set:
  @DF-RHF Final Energy:  -422.97785724888899
    Total Energy =                       -422.9778572488885402
  Basis Set: 6-31G*
  Basis Set:
  Basis Set: 6-31G*
  Basis Set:
  @DF-RHF Final Energy:  -422.97495674800695
    Total Energy =                       -422.9749567480082533
  Basis Set: 6-31G*
  Basis Set:
  Basis Set: 6-31G*
  Basis Set:
  @DF-RHF Final Energy:  -422.97821360210469
    Total Energy =                       -422.9782136021054839
  Basis Set: 6-31G*
  Basis Set:
  Basis Set: 6-31G*
  Basis Set:
  @DF-RHF Final Energy:  -422.97824618149667
    Total Energy =                       -422.9782461814966155
  Basis Set: 6-31G*
  Basis Set:
  Charge       = 0
  Multiplicity = 1
  Basis Set: 6-31G*
  Basis Set:

    Orbital Energies (a.u.)
    -----------------------

    Doubly Occupied:

       1A    -20.602451     2A    -20.540471     3A    -11.375737
       4A    -11.280256     5A    -11.232093     6A    -11.222780
       7A    -11.222020     8A    -11.220316     9A    -11.211867
      10A     -1.466118    11A     -1.361313    12A     -1.092260
      13A     -1.041221    14A     -1.002535    15A     -0.931312
      16A     -0.848492    17A     -0.799533    18A     -0.768946
      19A     -0.699192    20A     -0.678503    21A     -0.655853
      22A     -0.649734    23A     -0.604800    24A     -0.588492
      25A     -0.585172    26A     -0.572732    27A     -0.549589
      28A     -0.539785    29A     -0.522415    30A     -0.510114
      31A     -0.486763    32A     -0.478260    33A     -0.474368
      34A     -0.469426    35A     -0.437955    36A     -0.435759

  @DF-RHF Final Energy:  -422.97824657905579

   => Energetics <=

    Nuclear Repulsion Energy =            453.9124193628851458
    One-Electron Energy =               -1475.4640601184059960
    Two-Electron Energy =                 598.5733941764656265
    DFT Exchange-Correlation Energy =       0.0000000000000000
    Empirical Dispersion Energy =           0.0000000000000000
    PCM Polarization Energy =               0.0000000000000000
    EFP Energy =                            0.0000000000000000
    Total Energy =                       -422.9782465790551669
    Molecular point group: c1
  Basis Set: 6-31G*
  Basis Set:

  -Total Gradient:
     Atom            X                  Y                   Z
    ------   -----------------  -----------------  -----------------
       1       -0.000031207780    -0.000008485208     0.000021199874
       2       -0.000678116422     0.000997670455     0.000209310625
       3       -0.000022673045     0.000032004189     0.000003822052
       4        0.001249988243    -0.001834486743    -0.000532062157
       5        0.000008314245     0.000000334225     0.000004120045
       6        0.000008241834     0.000006804156    -0.000009222892
       7       -0.000021195207    -0.000015378039    -0.000009432053
       8       -0.001208333441     0.001844710419     0.001074793038
       9       -0.000055458539    -0.000018286123     0.000041227432
      10        0.000726746155    -0.001000219775    -0.000752542220
      11        0.000050865693     0.000015465161    -0.000005826157
      12       -0.000048703703     0.000016223860    -0.000012348556
      13       -0.000008394447     0.000018310751    -0.000010615518
      14        0.000031284494    -0.000040999623    -0.000009973078
      15       -0.000004537655    -0.000017205427     0.000016105310
      16        0.000012952758    -0.000005334464    -0.000019414419
      17       -0.000014371972     0.000006916088    -0.000029330709
      18        0.000003075345    -0.000000654364     0.000018199083
      19        0.000001223422     0.000017073626     0.000001905182
      20       -0.000000300862    -0.000013752546    -0.000001917217
      21       -0.000003712943    -0.000003276294    -0.000000138671
      22        0.000001123952     0.000001004296     0.000002427936
      23        0.000003189881     0.000001561379    -0.000000286929

  **** Optimization is complete! (in 6 steps) ****
    Final optimized geometry and variables:
    Molecular point group: c1

    Geometry (in Angstrom), charge = 0, multiplicity = 1:

    O           -2.077261391946     0.134894833942    -1.720003729823
    C           -2.393007760866    -0.316410551735    -0.665798713411
    C           -3.618002827236    -1.169421637221    -0.457914366728
    O           -1.714798360201    -0.133760605462     0.456760544485
    H           -3.549848286132    -2.038192581005    -1.101670364294
    H           -3.722694556428    -1.480991112734     0.570739588992
    H           -4.490496241667    -0.603831027111    -0.762651832225
    C           -0.542202702901     0.677408888333     0.436095123163
    C            0.701613358433    -0.196635179105     0.439954318248
    H           -0.562936218584     1.314077712826    -0.433905090255
    H           -0.595274874610     1.284740590013     1.329552692419
    C            1.986575588426     0.631313206701     0.498987941041
    H            0.698156181158    -0.810429654874    -0.456714982494
    H            0.654236893727    -0.872969832801     1.289177020100
    C            3.251395384274    -0.229229889114     0.508313453304
    H            2.021048926845     1.308824101521    -0.352267074105
    H            1.974467123817     1.258371314954     1.389193008213
    C            4.534198622608     0.598697050155     0.570824327513
    H            3.267018389866    -0.853258115754    -0.382251157384
    H            3.217700230993    -0.908434882786     1.357281218933
    H            4.613227811313     1.264374591152    -0.283911229588
    H            5.412777990049    -0.038747670321     0.575633866213
    H            4.563805409461     1.209404284356     1.468796305810

  Mulliken Charges: (a.u.)
   Center  Symbol    Alpha    Beta     Spin     Total
       1     O     4.28463  4.28463  0.00000 -0.56925
       2     C     2.61516  2.61516  0.00000  0.76968
       3     C     3.28820  3.28820  0.00000 -0.57640
       4     O     4.31343  4.31343  0.00000 -0.62686
       5     H     0.39771  0.39771  0.00000  0.20458
       6     H     0.39972  0.39972  0.00000  0.20055
       7     H     0.39752  0.39752  0.00000  0.20497
       8     C     3.00523  3.00523  0.00000 -0.01045
       9     C     3.16536  3.16536  0.00000 -0.33071
      10     H     0.39680  0.39680  0.00000  0.20640
      11     H     0.41227  0.41227  0.00000  0.17546
      12     C     3.16125  3.16125  0.00000 -0.32250
      13     H     0.41205  0.41205  0.00000  0.17589
      14     H     0.41540  0.41540  0.00000  0.16919
      15     C     3.15137  3.15137  0.00000 -0.30275
      16     H     0.41898  0.41898  0.00000  0.16203
      17     H     0.42267  0.42267  0.00000  0.15465
      18     C     3.23989  3.23989  0.00000 -0.47978
      19     H     0.42036  0.42036  0.00000  0.15928
      20     H     0.42187  0.42187  0.00000  0.15626
      21     H     0.42050  0.42050  0.00000  0.15899
      22     H     0.41809  0.41809  0.00000  0.16383
      23     H     0.42153  0.42153  0.00000  0.15694

   Total alpha = 36.00000, Total beta = 36.00000, Total charge = -0.00000
