                              Psi4 1.0.54 Driver

  ==> Input File <==

--------------------------------------------------------------------------
set {
	reference rhf
	basis cc-pvtz
}

set_num_threads( 4 )
memory 2 gb

molecule MOL {
0 1

H	 -2.393091	 -1.679850	 -0.777999
C	 -1.640044	 -0.995824	 -0.447900
C	 -1.961252	 0.335456	 -0.031159
C	 -0.356491	 -1.362173	 -0.411674
H	 -2.984378	 0.661135	 -0.048525
C	 -1.000550	 1.170349	 0.376988
H	 -0.037832	 -2.341858	 -0.708007
N	 0.640204	 -0.530428	 -0.000115
H	 -1.203800	 2.171980	 0.695398
C	 0.397820	 0.767455	 0.415313
C	 2.006991	 -1.033007	 -0.000020
O	 1.288585	 1.487948	 0.775410
H	 2.182444	 -1.636914	 -0.880881
H	 2.678769	 -0.195442	 -0.002236
H	 2.183828	 -1.633244	 0.883082

	symmetry c1
}
set optking {
	frozen_dihedral = ("
		10 8 11 13
	")
}

ee,wfn = optimize('scf', return_wfn=True)
oeprop( wfn, 'DIPOLE', 'QUADRUPOLE', 'MULLIKEN_CHARGES')
f=open( 'psi4out.xyz', 'w' )
f.write( "15  " )
f.write( str(ee) + "\n" )
f.write( MOL.save_string_xyz() )
f.close()
--------------------------------------------------------------------------

    Molecular point group: c1
  Charge       = 0
  Multiplicity = 1
  Basis Set: CC-PVTZ
  Basis Set:
  @DF-RHF Final Energy:  -360.72263744470285
    Total Energy =                       -360.7226374447028547
    Molecular point group: c1
  Basis Set: CC-PVTZ
  Basis Set:
  Basis Set: CC-PVTZ
  Basis Set:
  @DF-RHF Final Energy:  -360.72272111876737
    Total Energy =                       -360.7227211187674243
  Basis Set: CC-PVTZ
  Basis Set:
  Basis Set: CC-PVTZ
  Basis Set:
  @DF-RHF Final Energy:  -360.72271400050374
    Total Energy =                       -360.7227140005034016
  Basis Set: CC-PVTZ
  Basis Set:
  Charge       = 0
  Multiplicity = 1
  Basis Set: CC-PVTZ
  Basis Set:

    Orbital Energies (a.u.)
    -----------------------

    Doubly Occupied:

       1A    -20.501828     2A    -15.616794     3A    -11.339180
       4A    -11.293451     5A    -11.264028     6A    -11.258152
       7A    -11.230416     8A    -11.228232     9A     -1.390600
      10A     -1.285778    11A     -1.118787    12A     -1.028947
      13A     -0.972379    14A     -0.875866    15A     -0.838660
      16A     -0.719200    17A     -0.702802    18A     -0.663520
      19A     -0.652983    20A     -0.625417    21A     -0.611890
      22A     -0.574171    23A     -0.557010    24A     -0.550447
      25A     -0.529705    26A     -0.483212    27A     -0.420393
      28A     -0.410636    29A     -0.310803

  @DF-RHF Final Energy:  -360.72274087269329

   => Energetics <=

    Nuclear Repulsion Energy =            358.5202828174265051
    One-Electron Energy =               -1200.3754774060994350
    Two-Electron Energy =                 481.1324537159796932
    DFT Exchange-Correlation Energy =       0.0000000000000000
    Empirical Dispersion Energy =           0.0000000000000000
    PCM Polarization Energy =               0.0000000000000000
    EFP Energy =                            0.0000000000000000
    Total Energy =                       -360.7227408726932367
    Molecular point group: c1
  Basis Set: CC-PVTZ
  Basis Set:

  -Total Gradient:
     Atom            X                  Y                   Z
    ------   -----------------  -----------------  -----------------
       1        0.000016511100     0.000011448630    -0.000030708109
       2        0.000088419886    -0.000018798766     0.000028386101
       3        0.000030662330     0.000066234093     0.000047951166
       4       -0.000044225740    -0.000114495457     0.000028753828
       5        0.000009472751     0.000011579138     0.000005705792
       6       -0.000028642457     0.000063018927    -0.000032787102
       7        0.000002051366     0.000017033517    -0.000018374184
       8       -0.000156789592    -0.000150590387     0.000567345459
       9       -0.000020434271     0.000022178775     0.000021150708
      10        0.000069461046    -0.000093914515    -0.000595745823
      11       -0.000157417423    -0.000593211468     0.000139292946
      12        0.000035694559     0.000272481037     0.000116456682
      13        0.000174429928     0.000528582579    -0.000316215891
      14       -0.000051757395    -0.000044945879     0.000016424942
      15        0.000032563917     0.000023399780     0.000022363486

  **** Optimization is complete! (in 4 steps) ****
    Final optimized geometry and variables:
    Molecular point group: c1

    Geometry (in Angstrom), charge = 0, multiplicity = 1:

    H           -2.392801804182    -1.662609470777    -0.863693835063
    C           -1.637662866342    -0.978919341242    -0.537713742435
    C           -1.955163069958     0.355182503304    -0.127429190974
    C           -0.354207687406    -1.347401237732    -0.507636229597
    H           -2.977621405095     0.682966498523    -0.144926171445
    C           -0.991952405715     1.190594710889     0.274029536014
    H           -0.039173481623    -2.328023258053    -0.803745781059
    N            0.644963241003    -0.513947621198    -0.106843321266
    H           -1.192297912958     2.193967395297     0.589154818098
    C            0.403802585383     0.780561194587     0.318960554444
    C            2.014080872978    -1.008935778026    -0.094392780839
    O            1.297080625206     1.490256508964     0.694081051704
    H            2.190933167122    -1.601394475517    -0.980932083880
    H            2.684242433795    -0.169219736315    -0.084803341976
    H            2.198099439630    -1.613157769052     0.785262782024

  Mulliken Charges: (a.u.)
   Center  Symbol    Alpha    Beta     Spin     Total
       1     H     0.41397  0.41397  0.00000  0.17207
       2     C     3.10309  3.10309  0.00000 -0.20618
       3     C     3.06168  3.06168  0.00000 -0.12335
       4     C     3.03316  3.03316  0.00000 -0.06632
       5     H     0.41838  0.41838  0.00000  0.16324
       6     C     3.11698  3.11698  0.00000 -0.23395
       7     H     0.42122  0.42122  0.00000  0.15756
       8     N     3.51190  3.51190  0.00000 -0.02379
       9     H     0.40894  0.40894  0.00000  0.18213
      10     C     2.84526  2.84526  0.00000  0.30949
      11     C     3.10435  3.10435  0.00000 -0.20871
      12     O     4.23642  4.23642  0.00000 -0.47284
      13     H     0.45380  0.45380  0.00000  0.09240
      14     H     0.42385  0.42385  0.00000  0.15230
      15     H     0.44702  0.44702  0.00000  0.10596

   Total alpha = 29.00000, Total beta = 29.00000, Total charge = -0.00000

*** Psi4 exiting successfully. Buy a developer a beer!
