  ==> Input File <==

--------------------------------------------------------------------------
set {
	reference rhf
	basis 6-31G*
}

set_num_threads( 4 )
memory 2 gb

molecule MOL {
0 1

H	 -2.542542	 1.361788	 1.891511
O	 -1.672782	 1.229649	 2.243518
C	 -0.731045	 1.514784	 1.250646
C	 -0.793441	 0.596080	 0.058728
H	 0.241067	 1.432488	 1.723328
H	 -0.825834	 2.545993	 0.912047
C	 -1.530462	 -0.493172	 -0.025500
H	 -0.167732	 0.884841	 -0.771686
H	 -1.092586	 -1.461565	 -0.186463
H	 -2.602122	 -0.450675	 0.050101

	symmetry c1
}
set optking {
	frozen_dihedral = ("
		3 4 7 9
	")
}

ee = optimize('scf')
oeprop('DIPOLE', 'QUADRUPOLE', 'MULLIKEN_CHARGES')
f=open( 'psi4out.xyz', 'w' )
f.write( "10  " )
f.write( str(ee) + "\n" )
f.write( MOL.save_string_xyz() )
f.close()
--------------------------------------------------------------------------

    Molecular point group: c1
  Charge       = 0
  Multiplicity = 1
  Basis Set: 6-31G*
  Basis Set:
  @DF-RHF Final Energy:  -191.83288967808718
    Total Energy =                       -191.8328896780872412
    Molecular point group: c1
  Basis Set: 6-31G*
  Basis Set:
  Basis Set: 6-31G*
  Basis Set:
  @DF-RHF Final Energy:  -191.85946288299215
    Total Energy =                       -191.8594628829921476
  Basis Set: 6-31G*
  Basis Set:
  Basis Set: 6-31G*
  Basis Set:
  @DF-RHF Final Energy:  -191.87997684565823
    Total Energy =                       -191.8799768456581774
  Basis Set: 6-31G*
  Basis Set:
  Basis Set: 6-31G*
  Basis Set:
  @DF-RHF Final Energy:  -191.88297420173234
    Total Energy =                       -191.8829742017322815
  Basis Set: 6-31G*
  Basis Set:
  Basis Set: 6-31G*
  Basis Set:
  @DF-RHF Final Energy:  -191.88308256830123
    Total Energy =                       -191.8830825683011483
  Basis Set: 6-31G*
  Basis Set:
  Basis Set: 6-31G*
  Basis Set:
  @DF-RHF Final Energy:  -191.88309142061331
    Total Energy =                       -191.8830914206133684
  Basis Set: 6-31G*
  Basis Set:
  Charge       = 0
  Multiplicity = 1
  Basis Set: 6-31G*
  Basis Set:

    Orbital Energies (a.u.)
    -----------------------

    Doubly Occupied:

       1A    -20.562801     2A    -11.285791     3A    -11.234141
       4A    -11.218140     5A     -1.371342     6A     -1.058792
       7A     -0.929678     8A     -0.768883     9A     -0.690075
      10A     -0.651839    11A     -0.618762    12A     -0.576009
      13A     -0.535577    14A     -0.485248    15A     -0.451128
      16A     -0.349314

  @DF-RHF Final Energy:  -191.88309187758597

   => Energetics <=

    Nuclear Repulsion Energy =            118.7260552250208434
    One-Electron Energy =                -495.6432521788811982
    Two-Electron Energy =                 185.0341050762743009
    DFT Exchange-Correlation Energy =       0.0000000000000000
    Empirical Dispersion Energy =           0.0000000000000000
    PCM Polarization Energy =               0.0000000000000000
    EFP Energy =                            0.0000000000000000
    Total Energy =                       -191.8830918775860539
    Molecular point group: c1
  Basis Set: 6-31G*
  Basis Set:

  -Total Gradient:
     Atom            X                  Y                   Z
    ------   -----------------  -----------------  -----------------
       1        0.000033291171     0.000005491224    -0.000015467584
       2        0.000033614133    -0.000060968964     0.000009615799
       3        0.023316366295    -0.012873681585     0.006340629768
       4       -0.035938395959     0.017989651191     0.005177747083
       5       -0.000054242045    -0.000029770023     0.000024272321
       6        0.000013279511     0.000011239018    -0.000014408074
       7        0.004822835249     0.002911231578    -0.046941370467
       8        0.000026070766     0.000171036160     0.000056473999
       9        0.007734643128    -0.008062093421     0.035322755057
      10        0.000012537754    -0.000062135179     0.000039752097

  **** Optimization is complete! (in 7 steps) ****
    Final optimized geometry and variables:
    Molecular point group: c1

    Geometry (in Angstrom), charge = 0, multiplicity = 1:

    H           -1.331588879193     0.871991587334     0.980339985549
    O           -0.511480092404     0.520989192769     1.298488558863
    C            0.483359260780     0.729247568070     0.339959006569
    C            0.359836836363    -0.106584101366    -0.912148016040
    H            1.415545897550     0.413276961382     0.790222452824
    H            0.583483478929     1.789427925759     0.111055268191
    C           -0.250980045009    -1.273478118908    -1.042628054939
    H            1.207792800161     0.075827498514    -1.562855689603
    H            0.238032942791    -2.180103212224    -1.355415176601
    H           -1.047121078316    -1.489758753924    -0.343952418010

  Mulliken Charges: (a.u.)
   Center  Symbol    Alpha    Beta     Spin     Total
       1     H     0.27932  0.27932  0.00000  0.44135
       2     O     4.36577  4.36577  0.00000 -0.73155
       3     C     2.99949  2.99949  0.00000  0.00102
       4     C     3.09503  3.09503  0.00000 -0.19007
       5     H     0.40370  0.40370  0.00000  0.19259
       6     H     0.42623  0.42623  0.00000  0.14754
       7     C     3.19022  3.19022  0.00000 -0.38044
       8     H     0.41920  0.41920  0.00000  0.16160
       9     H     0.40470  0.40470  0.00000  0.19060
      10     H     0.41632  0.41632  0.00000  0.16735

   Total alpha = 16.00000, Total beta = 16.00000, Total charge = -0.00000
