  ==> Input File <==

--------------------------------------------------------------------------
set {
	reference rhf
	basis 6-31G*
}

set_num_threads( 4 )
memory 2 gb

molecule MOL {
0 1

H	 2.147616	 4.802053	 0.683383
C	 2.544442	 4.375348	 1.612939
C	 1.563954	 3.546699	 2.403253
O	 3.670709	 4.580376	 1.931115
C	 0.895055	 2.457139	 1.553732
H	 2.082308	 3.124760	 3.256474
H	 0.800514	 4.226744	 2.779223
C	 1.863111	 1.367272	 1.086444
H	 0.098702	 2.005915	 2.138114
H	 0.414519	 2.915895	 0.690954
C	 1.180775	 0.282413	 0.250794
H	 2.334527	 0.913428	 1.955720
H	 2.668624	 1.813213	 0.506078
C	 2.148627	 -0.814315	 -0.201312
H	 0.370927	 -0.152006	 0.831448
H	 0.720108	 0.738111	 -0.624711
C	 3.580890	 -0.659131	 0.322722
H	 2.166869	 -0.852443	 -1.289387
H	 1.762857	 -1.776509	 0.128956
C	 4.324889	 0.564933	 -0.213704
H	 4.142010	 -1.551473	 0.056605
H	 3.564836	 -0.624694	 1.410140
H	 4.342616	 0.565491	 -1.300421
H	 3.866655	 1.493402	 0.110242
H	 5.353900	 0.572371	 0.132816

	symmetry c1
}
set optking {
	frozen_dihedral = ("
		8 11 14 18
	")
}

ee = optimize('scf')
oeprop('DIPOLE', 'QUADRUPOLE', 'MULLIKEN_CHARGES')
f=open( 'psi4out.xyz', 'w' )
f.write( "25  " )
f.write( str(ee) + "\n" )
f.write( MOL.save_string_xyz() )
f.close()
--------------------------------------------------------------------------

    Molecular point group: c1
  Charge       = 0
  Multiplicity = 1
  Basis Set: 6-31G*
  Basis Set:
  @DF-RHF Final Energy:  -387.08352145503846
    Total Energy =                       -387.0835214550382943
    Molecular point group: c1
  Basis Set: 6-31G*
  Basis Set:
  Basis Set: 6-31G*
  Basis Set:
  @DF-RHF Final Energy:  -387.10348768004235
    Total Energy =                       -387.1034876800430311
  Basis Set: 6-31G*
  Basis Set:
  Basis Set: 6-31G*
  Basis Set:
  @DF-RHF Final Energy:  -387.10797983095574
    Total Energy =                       -387.1079798309561966
  Basis Set: 6-31G*
  Basis Set:
  Basis Set: 6-31G*
  Basis Set:
  @DF-RHF Final Energy:  -387.10874364351508
    Total Energy =                       -387.1087436435151403
  Basis Set: 6-31G*
  Basis Set:
  @DF-RHF Final Energy:  -387.10814338826856
    Total Energy =                       -387.1081433882685587
  @DF-RHF Final Energy:  -387.10913231193871
    Total Energy =                       -387.1091323119386516
  @DF-RHF Final Energy:  -387.10956351325342
    Total Energy =                       -387.1095635132536472
  @DF-RHF Final Energy:  -387.10963581766805
    Total Energy =                       -387.1096358176682770
  @DF-RHF Final Energy:  -387.10965079805754
    Total Energy =                       -387.1096507980577144
  @DF-RHF Final Energy:  -387.10966284398802
    Total Energy =                       -387.1096628439872802
  @DF-RHF Final Energy:  -387.10969386721678
    Total Energy =                       -387.1096938672160377
  @DF-RHF Final Energy:  -387.10975152710091
    Total Energy =                       -387.1097515271010252
  Basis Set: 6-31G*
  Basis Set:
  @DF-RHF Final Energy:  -387.10975582635814
    Total Energy =                       -387.1097558263586507
  Basis Set: 6-31G*
  Basis Set:
  Basis Set: 6-31G*
  Basis Set:
  @DF-RHF Final Energy:  -387.10971602705041
    Total Energy =                       -387.1097160270498989
  Basis Set: 6-31G*
  Basis Set:
  Basis Set: 6-31G*
  Basis Set:
  @DF-RHF Final Energy:  -387.10976046105935
    Total Energy =                       -387.1097604610590679
  Basis Set: 6-31G*
  Basis Set:
  Charge       = 0
  Multiplicity = 1
  Basis Set: 6-31G*
  Basis Set:

    Orbital Energies (a.u.)
    -----------------------

    Doubly Occupied:

       1A    -20.562267     2A    -11.326359     3A    -11.235416
       4A    -11.234768     5A    -11.223532     6A    -11.221046
       7A    -11.217631     8A    -11.216489     9A    -11.207703
      10A     -1.402191    11A     -1.102007    12A     -1.064864
      13A     -1.009730    14A     -0.945252    15A     -0.873342
      16A     -0.829568    17A     -0.789070    18A     -0.768833
      19A     -0.665555    20A     -0.660607    21A     -0.628946
      22A     -0.623256    23A     -0.608607    24A     -0.593414
      25A     -0.563884    26A     -0.557613    27A     -0.534115
      28A     -0.519713    29A     -0.514145    30A     -0.498475
      31A     -0.491257    32A     -0.481111    33A     -0.450418
      34A     -0.449302    35A     -0.444437    36A     -0.409739

  @DF-RHF Final Energy:  -387.10976057033798

   => Energetics <=

    Nuclear Repulsion Energy =            450.6853505680365402
    One-Electron Energy =               -1417.7409067538483214
    Two-Electron Energy =                 579.9457956154736848
    DFT Exchange-Correlation Energy =       0.0000000000000000
    Empirical Dispersion Energy =           0.0000000000000000
    PCM Polarization Energy =               0.0000000000000000
    EFP Energy =                            0.0000000000000000
    Total Energy =                       -387.1097605703381532
    Molecular point group: c1
  Basis Set: 6-31G*
  Basis Set:

  -Total Gradient:
     Atom            X                  Y                   Z
    ------   -----------------  -----------------  -----------------
       1       -0.000006772220     0.000002543099     0.000003032152
       2        0.000003474659    -0.000010224152    -0.000009129609
       3        0.000004339070     0.000012016607     0.000001613064
       4       -0.000000614289     0.000000409026     0.000005325506
       5       -0.000003925645    -0.000004223651     0.000007575470
       6        0.000002168020    -0.000002058104    -0.000002727813
       7       -0.000003470427    -0.000005342506    -0.000001570656
       8        0.000137655960     0.000340348464    -0.000522352644
       9       -0.000006308653     0.000001268212     0.000004810160
      10        0.000010069377    -0.000003443360     0.000000449825
      11       -0.000063940412    -0.000377538757     0.000748092072
      12        0.000002578236    -0.000007954832    -0.000004021661
      13       -0.000004443337     0.000004986509     0.000000728438
      14       -0.000729409270    -0.000467681949    -0.000220976005
      15       -0.000007884531     0.000010237344    -0.000003778683
      16        0.000002662264     0.000000987975    -0.000000903297
      17        0.000014790242    -0.000012659587    -0.000010055987
      18        0.000622845193     0.000516140929     0.000011757081
      19       -0.000001235967    -0.000001995238    -0.000008559332
      20        0.000003715465    -0.000003553603     0.000001823009
      21        0.000008156600     0.000000133584     0.000002790655
      22        0.000003157183     0.000000653316    -0.000005257972
      23        0.000008440156    -0.000004910629    -0.000000273287
      24        0.000003412500     0.000005118821    -0.000002781862
      25        0.000000539827     0.000006742477     0.000004391378

  **** Optimization is complete! (in 16 steps) ****
    Final optimized geometry and variables:
    Molecular point group: c1

    Geometry (in Angstrom), charge = 0, multiplicity = 1:

    H           -0.494554700440     3.182009924479    -0.166698960862
    C           -0.105355949757     2.756872206421     0.766909587506
    C           -1.059226384724     1.847788653890     1.499126076260
    O            0.991558078774     3.028036401837     1.134578075683
    C           -1.608523063649     0.728155791203     0.603673046853
    H           -0.551397510551     1.448788790524     2.369589621311
    H           -1.886064038812     2.464994730786     1.848160901717
    C           -0.544265847605    -0.287069459442     0.175041549160
    H           -2.401658118321     0.216055596083     1.140643737788
    H           -2.074313130633     1.166777116453    -0.277243644823
    C           -1.141780608915    -1.393945726282    -0.700720127183
    H           -0.093004814364    -0.712277184724     1.066931784400
    H            0.251476556002     0.227204201343    -0.354168050252
    C           -0.207094548030    -2.538240914216    -1.194749910787
    H           -1.962233271074    -1.840741673446    -0.145079442982
    H           -1.602675094473    -0.923433758065    -1.565419303986
    C            1.258299944806    -2.563343172848    -0.723421270472
    H           -0.199662202996    -2.539869328044    -2.281415922010
    H           -0.662420387489    -3.480425448169    -0.906027486224
    C            2.202437942831    -1.661444157929    -1.522306957529
    H            1.616030630638    -3.585281835400    -0.820201007190
    H            1.326593491549    -2.327872229294     0.334002540483
    H            2.208307814454    -1.947869546962    -2.570461220939
    H            1.922600881475    -0.615614821115    -1.471059785970
    H            3.220010994294    -1.744735367390    -1.152912594273

  Mulliken Charges: (a.u.)
   Center  Symbol    Alpha    Beta     Spin     Total
       1     H     0.43256  0.43256  0.00000  0.13487
       2     C     2.83111  2.83111  0.00000  0.33779
       3     C     3.20774  3.20774  0.00000 -0.41547
       4     O     4.23776  4.23776  0.00000 -0.47553
       5     C     3.16672  3.16672  0.00000 -0.33343
       6     H     0.39985  0.39985  0.00000  0.20029
       7     H     0.40668  0.40668  0.00000  0.18665
       8     C     3.15857  3.15857  0.00000 -0.31713
       9     H     0.41289  0.41289  0.00000  0.17421
      10     H     0.41970  0.41970  0.00000  0.16061
      11     C     3.15651  3.15651  0.00000 -0.31302
      12     H     0.41702  0.41702  0.00000  0.16597
      13     H     0.41622  0.41622  0.00000  0.16756
      14     C     3.15831  3.15831  0.00000 -0.31661
      15     H     0.42100  0.42100  0.00000  0.15800
      16     H     0.42102  0.42102  0.00000  0.15796
      17     C     3.15670  3.15670  0.00000 -0.31341
      18     H     0.42055  0.42055  0.00000  0.15889
      19     H     0.41887  0.41887  0.00000  0.16226
      20     C     3.24040  3.24040  0.00000 -0.48080
      21     H     0.41998  0.41998  0.00000  0.16005
      22     H     0.42007  0.42007  0.00000  0.15986
      23     H     0.42246  0.42246  0.00000  0.15507
      24     H     0.41904  0.41904  0.00000  0.16192
      25     H     0.41827  0.41827  0.00000  0.16345

   Total alpha = 36.00000, Total beta = 36.00000, Total charge =  0.00000
