  ==> Input File <==

--------------------------------------------------------------------------
set {
	reference rhf
	basis 6-31G*
}

set_num_threads( 1 )
memory 2 gb

molecule MOL {
0 1

H	 -4.031818	 -0.453427	 -0.000094
C	 -2.967712	 -0.297022	 -0.000064
C	 -2.458620	 0.992929	 0.000032
C	 -2.109895	 -1.385637	 -0.000122
H	 -3.124998	 1.836319	 0.000077
C	 -1.090278	 1.193236	 0.000070
H	 -2.506361	 -2.384847	 -0.000198
C	 -0.739812	 -1.187531	 -0.000085
H	 -0.678594	 2.184290	 0.000146
C	 -0.226438	 0.104061	 0.000012
H	 -0.072310	 -2.027032	 -0.000131
C	 1.239129	 0.373821	 0.000060
O	 1.956987	 -0.658414	 -0.416801
O	 1.725635	 1.407241	 0.338018
C	 3.362997	 -0.488757	 -0.448802
H	 3.631692	 0.317383	 -1.115687
H	 3.763487	 -1.423323	 -0.809422
H	 3.740880	 -0.274710	 0.540292

	symmetry c1
}
set optking {
	frozen_dihedral = ("
		12 13 15 16,
		10 12 13 15
	")
}

ee = energy('scf')
oeprop('DIPOLE', 'QUADRUPOLE', 'MULLIKEN_CHARGES')
f=open( 'psi4out.xyz', 'w' )
f.write( "18  " )
f.write( str(ee) + "\n" )
f.write( MOL.save_string_xyz() )
f.close()
--------------------------------------------------------------------------

    Molecular point group: c1

    Geometry (in Angstrom), charge = 0, multiplicity = 1:

       Center              X                  Y                   Z               Mass
    ------------   -----------------  -----------------  -----------------  -----------------
           H         -4.029931256530    -0.463686747094     0.059021226319     1.007825032070
           C         -2.965825256530    -0.307281747094     0.059051226319    12.000000000000
           C         -2.456733256530     0.982669252906     0.059147226319    12.000000000000
           C         -2.108008256530    -1.395896747094     0.058993226319    12.000000000000
           H         -3.123111256530     1.826059252906     0.059192226319     1.007825032070
           C         -1.088391256530     1.182976252906     0.059185226319    12.000000000000
           H         -2.504474256530    -2.395106747094     0.058917226319     1.007825032070
           C         -0.737925256530    -1.197790747094     0.059030226319    12.000000000000
           H         -0.676707256530     2.174030252906     0.059261226319     1.007825032070
           C         -0.224551256530     0.093801252906     0.059127226319    12.000000000000
           H         -0.070423256530    -2.037291747094     0.058984226319     1.007825032070
           C          1.241015743470     0.363561252906     0.059175226319    12.000000000000
           O          1.958873743470    -0.668673747094    -0.357685773681    15.994914619560
           O          1.727521743470     1.396981252906     0.397133226319    15.994914619560
           C          3.364883743470    -0.499016747094    -0.389686773681    12.000000000000
           H          3.633578743470     0.307123252906    -1.056571773681     1.007825032070
           H          3.765373743470    -1.433582747094    -0.750306773681     1.007825032070
           H          3.742766743470    -0.284969747094     0.599407226319     1.007825032070

  Charge       = 0
  Multiplicity = 1
  Basis Set: 6-31G*
  Basis Set:

    Orbital Energies (a.u.)
    -----------------------

    Doubly Occupied:

       1A    -20.607929     2A    -20.544947     3A    -11.378029
       4A    -11.282954     5A    -11.246383     6A    -11.244873
       7A    -11.244578     8A    -11.242209     9A    -11.237940
      10A    -11.237198    11A     -1.472913    12A     -1.364009
      13A     -1.165571    14A     -1.048278    15A     -1.025156
      16A     -0.978302    17A     -0.860358    18A     -0.835048
      19A     -0.778017    20A     -0.739448    21A     -0.683508
      22A     -0.677508    23A     -0.672784    24A     -0.630930
      25A     -0.624939    26A     -0.597683    27A     -0.585996
      28A     -0.559283    29A     -0.530251    30A     -0.516536
      31A     -0.504297    32A     -0.499793    33A     -0.458671
      34A     -0.444644    35A     -0.344538    36A     -0.341355

  @DF-RHF Final Energy:  -457.34952563065991

   => Energetics <=

    Nuclear Repulsion Energy =            492.8177445662523155
    One-Electron Energy =               -1599.9209496053883868
    Two-Electron Energy =                 649.7536794084755911
    DFT Exchange-Correlation Energy =       0.0000000000000000
    Empirical Dispersion Energy =           0.0000000000000000
    PCM Polarization Energy =               0.0000000000000000
    EFP Energy =                            0.0000000000000000
    Total Energy =                       -457.3495256306605370

  Mulliken Charges: (a.u.)
   Center  Symbol    Alpha    Beta     Spin     Total
       1     H     0.39549  0.39549  0.00000  0.20902
       2     C     3.09075  3.09075  0.00000 -0.18149
       3     C     3.10641  3.10641  0.00000 -0.21282
       4     C     3.10669  3.10669  0.00000 -0.21339
       5     H     0.39532  0.39532  0.00000  0.20936
       6     C     3.08838  3.08838  0.00000 -0.17676
       7     H     0.39614  0.39614  0.00000  0.20771
       8     C     3.08824  3.08824  0.00000 -0.17647
       9     H     0.37781  0.37781  0.00000  0.24439
      10     C     3.06357  3.06357  0.00000 -0.12715
      11     H     0.38236  0.38236  0.00000  0.23527
      12     C     2.59250  2.59250  0.00000  0.81499
      13     O     4.31077  4.31077  0.00000 -0.62154
      14     O     4.28982  4.28982  0.00000 -0.57963
      15     C     3.09295  3.09295  0.00000 -0.18591
      16     H     0.40740  0.40740  0.00000  0.18520
      17     H     0.40777  0.40777  0.00000  0.18445
      18     H     0.40761  0.40761  0.00000  0.18477

   Total alpha = 36.00000, Total beta = 36.00000, Total charge = -0.00000
