                              Psi4 1.0.54 Driver

  ==> Input File <==

--------------------------------------------------------------------------
set {
	reference rhf
	basis cc-pvtz
}

set_num_threads( 4 )
memory 2 gb

molecule MOL {
0 1

H	 -2.643775	 -0.687076	 -1.182641
O	 -2.321472	 -0.864941	 -0.318626
C	 -2.021813	 0.336996	 0.342658
C	 -0.669613	 0.837286	 -0.127252
H	 -2.780861	 1.084746	 0.127159
H	 -2.006390	 0.184138	 1.420053
C	 0.490865	 -0.082543	 0.241244
H	 -0.708709	 0.967192	 -1.204587
H	 -0.507562	 1.822272	 0.303070
C	 1.839800	 0.429565	 -0.255472
H	 0.305636	 -1.070211	 -0.165276
H	 0.527397	 -0.195943	 1.322876
C	 3.001144	 -0.485193	 0.119072
H	 1.804373	 0.541073	 -1.335756
H	 2.020437	 1.423114	 0.146921
H	 2.866892	 -1.477297	 -0.298806
H	 3.943543	 -0.095749	 -0.249061
H	 3.085064	 -0.590459	 1.195790

	symmetry c1
}
set optking {
	frozen_dihedral = ("
		1 2 3 4
	")
}

ee,wfn = optimize('scf', return_wfn=True)
oeprop( wfn, 'DIPOLE', 'QUADRUPOLE', 'MULLIKEN_CHARGES')
f=open( 'psi4out.xyz', 'w' )
f.write( "18  " )
f.write( str(ee) + "\n" )
f.write( MOL.save_string_xyz() )
f.close()
--------------------------------------------------------------------------

    Molecular point group: c1
  Charge       = 0
  Multiplicity = 1
  Basis Set: CC-PVTZ
  Basis Set:
  @DF-RHF Final Energy:  -271.28477829711187
    Total Energy =                       -271.2847782971119841
    Molecular point group: c1
  Basis Set: CC-PVTZ
  Basis Set:
  Basis Set: CC-PVTZ
  Basis Set:
  @DF-RHF Final Energy:  -271.01575854648172
    Total Energy =                       -271.0157585464817771
  Basis Set: CC-PVTZ
  Basis Set:
  Basis Set: CC-PVTZ
  Basis Set:
  @DF-RHF Final Energy:  -271.15151496016097
    Total Energy =                       -271.1515149601605685
  Basis Set: CC-PVTZ
  Basis Set:
  Basis Set: CC-PVTZ
  Basis Set:
  @DF-RHF Final Energy:  -271.22233827903574
    Total Energy =                       -271.2223382790360233
  Basis Set: CC-PVTZ
  Basis Set:
  @DF-RHF Final Energy:  -271.28438010685221
    Total Energy =                       -271.2843801068522680
  Basis Set: CC-PVTZ
  Basis Set:
  @DF-RHF Final Energy:  -271.28613788598773
    Total Energy =                       -271.2861378859875572
  Basis Set: CC-PVTZ
  Basis Set:
  Basis Set: CC-PVTZ
  Basis Set:
  @DF-RHF Final Energy:  -271.28630120023223
    Total Energy =                       -271.2863012002322876
  Basis Set: CC-PVTZ
  Basis Set:
  Basis Set: CC-PVTZ
  Basis Set:
  @DF-RHF Final Energy:  -271.28631315661755
    Total Energy =                       -271.2863131566175525
  Basis Set: CC-PVTZ
  Basis Set:
  Charge       = 0
  Multiplicity = 1
  Basis Set: CC-PVTZ
  Basis Set:

    Orbital Energies (a.u.)
    -----------------------

    Doubly Occupied:

       1A    -20.546446     2A    -11.266047     3A    -11.213404
       4A    -11.211726     5A    -11.207624     6A    -11.204609
       7A     -1.364108     8A     -1.078534     9A     -1.010831
      10A     -0.916484    11A     -0.827319    12A     -0.791450
      13A     -0.688891    14A     -0.652074    15A     -0.611860
      16A     -0.607356    17A     -0.575896    18A     -0.552340
      19A     -0.535441    20A     -0.496497    21A     -0.491012
      22A     -0.474627    23A     -0.461998    24A     -0.456692
      25A     -0.426026

  @DF-RHF Final Energy:  -271.28631340579642

   => Energetics <=

    Nuclear Repulsion Energy =            248.9714551696676494
    One-Electron Energy =                -861.1769516637733659
    Two-Electron Energy =                 340.9191830883092962
    DFT Exchange-Correlation Energy =       0.0000000000000000
    Empirical Dispersion Energy =           0.0000000000000000
    PCM Polarization Energy =               0.0000000000000000
    EFP Energy =                            0.0000000000000000
    Total Energy =                       -271.2863134057964771
    Molecular point group: c1
  Basis Set: CC-PVTZ
  Basis Set:

  -Total Gradient:
     Atom            X                  Y                   Z
    ------   -----------------  -----------------  -----------------
       1       -0.000745795890     0.000621144208     0.000486274340
       2        0.001104724183    -0.000877732226    -0.000348288797
       3       -0.000824820147     0.000407188608    -0.000703903447
       4        0.000420368690    -0.000173798518     0.000568597083
       5        0.000009809569     0.000020160543     0.000000828076
       6        0.000019274766    -0.000008072225    -0.000000669983
       7        0.000013866707     0.000036133677    -0.000027750071
       8       -0.000018451813    -0.000005378298     0.000000916858
       9        0.000027321205     0.000026535012     0.000008116003
      10       -0.000018129939    -0.000035365323     0.000019701542
      11       -0.000019954596    -0.000032226610     0.000010468050
      12        0.000007542071     0.000018361335     0.000016215618
      13        0.000031152154     0.000001170977    -0.000046826108
      14       -0.000010167794    -0.000008449227    -0.000026273710
      15        0.000018929978     0.000022166177     0.000008993508
      16       -0.000009493678    -0.000018829972    -0.000004411387
      17       -0.000017648288    -0.000006634124     0.000021467482
      18        0.000011472816     0.000013625988     0.000016544945

  **** Optimization is complete! (in 9 steps) ****
    Final optimized geometry and variables:
    Molecular point group: c1

    Geometry (in Angstrom), charge = 0, multiplicity = 1:

    H           -3.014350121999    -0.072357939748     0.117575531338
    O           -2.407710660750     0.041062311827     0.825790934389
    C           -1.606010019847     1.170889639259     0.595248220407
    C           -0.463794696489     0.902965331311    -0.373094722925
    H           -2.211183595156     1.998572850112     0.235703861921
    H           -1.209814232088     1.460069524438     1.560947417768
    C            0.522792176547    -0.151467238641     0.118909611947
    H           -0.877753788348     0.598153194232    -1.332449635046
    H            0.057921149969     1.841053979929    -0.548881862641
    C            1.643401449273    -0.437988750575    -0.876451316581
    H           -0.014054410448    -1.068319789083     0.335810962114
    H            0.955741748440     0.179406357815     1.060423070881
    C            2.631711951827    -1.487071773575    -0.378071924109
    H            1.211463134975    -0.769798179085    -1.816970781761
    H            2.176985837340     0.483284419804    -1.095711006000
    H            2.133493487806    -2.430459226989    -0.181247786290
    H            3.412066832368    -1.670712667312    -1.107750685891
    H            3.108569788351    -1.168756731922     0.543062815450

  Mulliken Charges: (a.u.)
   Center  Symbol    Alpha    Beta     Spin     Total
       1     H     0.39479  0.39479  0.00000  0.21041
       2     O     4.20384  4.20384  0.00000 -0.40767
       3     C     2.98063  2.98063  0.00000  0.03874
       4     C     3.09413  3.09413  0.00000 -0.18826
       5     H     0.45998  0.45998  0.00000  0.08005
       6     H     0.45933  0.45933  0.00000  0.08133
       7     C     3.08610  3.08610  0.00000 -0.17219
       8     H     0.45988  0.45988  0.00000  0.08025
       9     H     0.45523  0.45523  0.00000  0.08954
      10     C     3.08317  3.08317  0.00000 -0.16633
      11     H     0.44596  0.44596  0.00000  0.10808
      12     H     0.45659  0.45659  0.00000  0.08683
      13     C     3.14954  3.14954  0.00000 -0.29908
      14     H     0.45543  0.45543  0.00000  0.08915
      15     H     0.45648  0.45648  0.00000  0.08704
      16     H     0.45451  0.45451  0.00000  0.09097
      17     H     0.44923  0.44923  0.00000  0.10154
      18     H     0.45520  0.45520  0.00000  0.08960

   Total alpha = 25.00000, Total beta = 25.00000, Total charge = -0.00000

*** Psi4 exiting successfully. Buy a developer a beer!
