  ==> Input File <==

--------------------------------------------------------------------------
set {
	reference rhf
	basis 6-31G*
}

set_num_threads( 1 )
memory 2 gb

molecule MOL {
0 1

H	 -1.403499	 -0.402503	 0.560650
N	 -0.626943	 -0.667432	 -0.000092
C	 -0.726792	 -1.882899	 -0.775583
C	 0.469286	 0.129090	 0.000148
H	 -0.885848	 -2.742022	 -0.132455
H	 0.197121	 -2.015510	 -1.314589
H	 -1.544051	 -1.824468	 -1.486712
C	 1.788933	 -0.616240	 -0.000037
O	 0.411098	 1.327768	 -0.000049
H	 1.872803	 -1.245775	 -0.880381
H	 2.595421	 0.101576	 0.003713
H	 1.870096	 -1.252171	 0.875943

	symmetry c1
}
set optking {
	frozen_dihedral = ("
		4 2 3 5
	")
}

ee = energy('scf')
oeprop('DIPOLE', 'QUADRUPOLE', 'MULLIKEN_CHARGES')
f=open( 'psi4out.xyz', 'w' )
f.write( "12  " )
f.write( str(ee) + "\n" )
f.write( MOL.save_string_xyz() )
f.close()
--------------------------------------------------------------------------

    Molecular point group: c1

    Geometry (in Angstrom), charge = 0, multiplicity = 1:

       Center              X                  Y                   Z               Mass
    ------------   -----------------  -----------------  -----------------  -----------------
           H         -1.662170373430    -0.046548903856     0.720810159875     1.007825032070
           N         -0.885614373430    -0.311477903856     0.160068159875    14.003074004780
           C         -0.985463373430    -1.526944903856    -0.615422840125    12.000000000000
           C          0.210614626570     0.485044096144     0.160308159875    12.000000000000
           H         -1.144519373430    -2.386067903856     0.027705159875     1.007825032070
           H         -0.061550373430    -1.659555903856    -1.154428840125     1.007825032070
           H         -1.802722373430    -1.468513903856    -1.326551840125     1.007825032070
           C          1.530261626570    -0.260285903856     0.160123159875    12.000000000000
           O          0.152426626570     1.683722096144     0.160111159875    15.994914619560
           H          1.614131626570    -0.889820903856    -0.720220840125     1.007825032070
           H          2.336749626570     0.457530096144     0.163873159875     1.007825032070
           H          1.611424626570    -0.896216903856     1.036103159875     1.007825032070

  Charge       = 0
  Multiplicity = 1
  Basis Set: 6-31G*
  Basis Set:

    Orbital Energies (a.u.)
    -----------------------

    Doubly Occupied:

       1A    -20.525422     2A    -15.568932     3A    -11.344646
       4A    -11.267625     5A    -11.226747     6A     -1.386934
       7A     -1.229424     8A     -1.003241     9A     -0.952633
      10A     -0.787360    11A     -0.676880    12A     -0.660593
      13A     -0.638364    14A     -0.595478    15A     -0.579342
      16A     -0.565275    17A     -0.555407    18A     -0.496071
      19A     -0.415594    20A     -0.379156

  @DF-RHF Final Energy:  -246.98326676131916

   => Energetics <=

    Nuclear Repulsion Energy =            181.9362023153905739
    One-Electron Energy =                -696.1286382204993970
    Two-Electron Energy =                 267.2091691437897225
    DFT Exchange-Correlation Energy =       0.0000000000000000
    Empirical Dispersion Energy =           0.0000000000000000
    PCM Polarization Energy =               0.0000000000000000
    EFP Energy =                            0.0000000000000000
    Total Energy =                       -246.9832667613191006

  Mulliken Charges: (a.u.)
   Center  Symbol    Alpha    Beta     Spin     Total
       1     H     0.30575  0.30575  0.00000  0.38851
       2     N     3.89021  3.89021  0.00000 -0.78043
       3     C     3.13781  3.13781  0.00000 -0.27561
       4     C     2.64470  2.64470  0.00000  0.71059
       5     H     0.41619  0.41619  0.00000  0.16762
       6     H     0.41278  0.41278  0.00000  0.17444
       7     H     0.40865  0.40865  0.00000  0.18270
       8     C     3.29197  3.29197  0.00000 -0.58394
       9     O     4.28201  4.28201  0.00000 -0.56402
      10     H     0.41004  0.41004  0.00000  0.17991
      11     H     0.39496  0.39496  0.00000  0.21008
      12     H     0.40492  0.40492  0.00000  0.19015

   Total alpha = 20.00000, Total beta = 20.00000, Total charge =  0.00000
