  ==> Input File <==

--------------------------------------------------------------------------
set {
	reference rhf
	basis 6-31G*
}

set_num_threads( 4 )
memory 2 gb

molecule MOL {
0 1

H	 -2.499100	 -0.730091	 -0.745082
O	 -2.347518	 -0.290803	 0.079804
C	 -1.184022	 0.487508	 -0.006784
C	 0.062599	 -0.378592	 0.031606
H	 -1.176523	 1.099369	 -0.904519
H	 -1.187323	 1.153111	 0.844927
O	 1.171513	 0.459272	 -0.058250
H	 0.050699	 -1.089204	 -0.797170
H	 0.078739	 -0.954914	 0.954740
C	 2.389813	 -0.166485	 0.193374
H	 2.579936	 -0.967861	 -0.518159
H	 3.166388	 0.579481	 0.096570
H	 2.422692	 -0.582178	 1.198316

	symmetry c1
}
set optking {
	frozen_dihedral = ("
		10 7 4 8
	")
}

ee = optimize('scf')
oeprop('DIPOLE', 'QUADRUPOLE', 'MULLIKEN_CHARGES')
f=open( 'psi4out.xyz', 'w' )
f.write( "13  " )
f.write( str(ee) + "\n" )
f.write( MOL.save_string_xyz() )
f.close()
--------------------------------------------------------------------------

    Molecular point group: c1
  Charge       = 0
  Multiplicity = 1
  Basis Set: 6-31G*
  Basis Set:
  @DF-RHF Final Energy:  -267.95044776688303
    Total Energy =                       -267.9504477668829168
    Molecular point group: c1
  Basis Set: 6-31G*
  Basis Set:
  Basis Set: 6-31G*
  Basis Set:
  @DF-RHF Final Energy:  -267.95045661437803
    Total Energy =                       -267.9504566143779130
  Basis Set: 6-31G*
  Basis Set:
  Charge       = 0
  Multiplicity = 1
  Basis Set: 6-31G*
  Basis Set:

    Orbital Energies (a.u.)
    -----------------------

    Doubly Occupied:

       1A    -20.562312     2A    -20.560058     3A    -11.270884
       4A    -11.270286     5A    -11.268831     6A     -1.388520
       7A     -1.365069     8A     -1.018517     9A     -0.913434
      10A     -0.841605    11A     -0.709296    12A     -0.674857
      13A     -0.660091    14A     -0.635997    15A     -0.597467
      16A     -0.570610    17A     -0.542911    18A     -0.489045
      19A     -0.483233    20A     -0.438914    21A     -0.421216

  @DF-RHF Final Energy:  -267.95045965113110

   => Energetics <=

    Nuclear Repulsion Energy =            190.2289513175061302
    One-Electron Energy =                -742.9925169742000435
    Two-Electron Energy =                 284.8131060055628723
    DFT Exchange-Correlation Energy =       0.0000000000000000
    Empirical Dispersion Energy =           0.0000000000000000
    PCM Polarization Energy =               0.0000000000000000
    EFP Energy =                            0.0000000000000000
    Total Energy =                       -267.9504596511310410
    Molecular point group: c1
  Basis Set: 6-31G*
  Basis Set:

  -Total Gradient:
     Atom            X                  Y                   Z
    ------   -----------------  -----------------  -----------------
       1        0.000028569086     0.000020298432     0.000001110567
       2        0.000004824291     0.000020423668     0.000043109938
       3        0.000011396897    -0.000051807464    -0.000060386176
       4        0.000804006590    -0.000879312573     0.001169125776
       5       -0.000002902486     0.000009185808     0.000014336116
       6       -0.000028539496     0.000001655859     0.000009032666
       7       -0.000083090435    -0.000112268424    -0.001453746440
       8       -0.000654338715     0.000746657103    -0.000672244320
       9       -0.000013397719     0.000022967880     0.000025902852
      10       -0.000078479074     0.000217803651     0.000932553655
      11        0.000006788490     0.000000962086    -0.000003409637
      12       -0.000000346991     0.000002423511    -0.000007306481
      13        0.000005509568     0.000001010463     0.000001921484

  **** Optimization is complete! (in 3 steps) ****
    Final optimized geometry and variables:
    Molecular point group: c1

    Geometry (in Angstrom), charge = 0, multiplicity = 1:

    H           -2.492104527548    -0.730758037975    -0.801094080833
    O           -2.347420637384    -0.297028613581     0.027962341653
    C           -1.182514821944     0.480874235365    -0.043520735378
    C            0.063664080770    -0.386348802251     0.000880431778
    H           -1.166309436580     1.097354374250    -0.937916710531
    H           -1.193383047355     1.142203515682     0.811472702744
    O            1.172887449901     0.451346789818    -0.096444564313
    H            0.047952119430    -1.098067523590    -0.826660227269
    H            0.078076710577    -0.955795897341     0.927722391841
    C            2.394002903959    -0.171841416714     0.149553329601
    H            2.581654339536    -0.975477483735    -0.560111258692
    H            3.168534475572     0.575222130742     0.044580954041
    H            2.433255041545    -0.583234349625     1.155873713980

  Mulliken Charges: (a.u.)
   Center  Symbol    Alpha    Beta     Spin     Total
       1     H     0.28121  0.28121  0.00000  0.43758
       2     O     4.37094  4.37094  0.00000 -0.74187
       3     C     3.00469  3.00469  0.00000 -0.00938
       4     C     2.99652  2.99652  0.00000  0.00696
       5     H     0.42192  0.42192  0.00000  0.15617
       6     H     0.40906  0.40906  0.00000  0.18189
       7     O     4.30775  4.30775  0.00000 -0.61551
       8     H     0.43672  0.43672  0.00000  0.12656
       9     H     0.42363  0.42363  0.00000  0.15274
      10     C     3.08003  3.08003  0.00000 -0.16006
      11     H     0.42922  0.42922  0.00000  0.14155
      12     H     0.41087  0.41087  0.00000  0.17826
      13     H     0.42745  0.42745  0.00000  0.14510

   Total alpha = 21.00000, Total beta = 21.00000, Total charge =  0.00000
