  ==> Input File <==

--------------------------------------------------------------------------
set {
	reference rhf
	basis 6-31G*
}

set_num_threads( 4 )
memory 2 gb

molecule MOL {
0 1

H	 -2.798360	 -0.862255	 -0.071053
N	 -1.863561	 -0.715187	 0.256814
C	 -1.344686	 0.554728	 -0.219830
H	 -1.300452	 -1.461917	 -0.101532
C	 0.081427	 0.741154	 0.254071
H	 -1.362155	 0.656231	 -1.305829
H	 -1.952773	 1.354456	 0.191809
O	 0.887516	 0.979705	 -0.864142
H	 0.141790	 1.581586	 0.945207
H	 0.413797	 -0.154246	 0.774670
C	 2.246135	 1.085931	 -0.580522
H	 2.762530	 1.269506	 -1.512903
H	 2.447194	 1.910842	 0.100712
H	 2.632534	 0.170431	 -0.137392

	symmetry c1
}
set optking {
	frozen_dihedral = ("
		8 5 3 6
	")
}

ee = optimize('scf')
oeprop('DIPOLE', 'QUADRUPOLE', 'MULLIKEN_CHARGES')
f=open( 'psi4out.xyz', 'w' )
f.write( "14  " )
f.write( str(ee) + "\n" )
f.write( MOL.save_string_xyz() )
f.close()
--------------------------------------------------------------------------

    Molecular point group: c1
  Charge       = 0
  Multiplicity = 1
  Basis Set: 6-31G*
  Basis Set:
  @DF-RHF Final Energy:  -248.11703364245747
    Total Energy =                       -248.1170336424573861
    Molecular point group: c1
  Basis Set: 6-31G*
  Basis Set:
  Basis Set: 6-31G*
  Basis Set:
  @DF-RHF Final Energy:  -248.11776997857567
    Total Energy =                       -248.1177699785757795
  Basis Set: 6-31G*
  Basis Set:
  Basis Set: 6-31G*
  Basis Set:
  @DF-RHF Final Energy:  -248.11798365449795
    Total Energy =                       -248.1179836544978343
  Basis Set: 6-31G*
  Basis Set:
  Basis Set: 6-31G*
  Basis Set:
  @DF-RHF Final Energy:  -248.11799315817157
    Total Energy =                       -248.1179931581715437
  Basis Set: 6-31G*
  Basis Set:
  Charge       = 0
  Multiplicity = 1
  Basis Set: 6-31G*
  Basis Set:

    Orbital Energies (a.u.)
    -----------------------

    Doubly Occupied:

       1A    -20.554500     2A    -15.536436     3A    -11.264507
       4A    -11.264432     5A    -11.241157     6A     -1.378748
       7A     -1.178161     8A     -0.996118     9A     -0.900823
      10A     -0.823130    11A     -0.684604    12A     -0.664388
      13A     -0.651190    14A     -0.617696    15A     -0.589620
      16A     -0.559699    17A     -0.517460    18A     -0.497974
      19A     -0.469826    20A     -0.414989    21A     -0.383819

  @DF-RHF Final Energy:  -248.11799367318534

   => Energetics <=

    Nuclear Repulsion Energy =            191.0786988421446893
    One-Electron Energy =                -716.0148347845295120
    Two-Electron Energy =                 276.8181422691996545
    DFT Exchange-Correlation Energy =       0.0000000000000000
    Empirical Dispersion Energy =           0.0000000000000000
    PCM Polarization Energy =               0.0000000000000000
    EFP Energy =                            0.0000000000000000
    Total Energy =                       -248.1179936731851399
    Molecular point group: c1
  Basis Set: 6-31G*
  Basis Set:

  -Total Gradient:
     Atom            X                  Y                   Z
    ------   -----------------  -----------------  -----------------
       1       -0.000032771423    -0.000002841701    -0.000010156911
       2        0.000023675655    -0.000024049082     0.000017481726
       3        0.000182174007    -0.001071296769    -0.000110448408
       4        0.000005730099    -0.000028251050    -0.000010790675
       5       -0.000142455330     0.000944101736     0.000057702935
       6       -0.000120561477     0.000767604518     0.000089734879
       7        0.000006668790     0.000014421231    -0.000001777330
       8        0.000076173034    -0.000624147299    -0.000032366346
       9        0.000002435892     0.000017112768    -0.000017623641
      10        0.000000723554    -0.000008680271    -0.000000534777
      11        0.000009352284     0.000029070160     0.000035084369
      12       -0.000020180066    -0.000008662124    -0.000004623699
      13        0.000016804373     0.000004639721    -0.000001927103
      14       -0.000007769396    -0.000009021841    -0.000009755020

  **** Optimization is complete! (in 5 steps) ****
    Final optimized geometry and variables:
    Molecular point group: c1

    Geometry (in Angstrom), charge = 0, multiplicity = 1:

    H           -2.889817255424    -1.290425123898     0.288819925217
    N           -1.913166324765    -1.228640541689     0.502962604877
    C           -1.362046617992     0.029061161808     0.016996450218
    H           -1.467851130600    -2.002996092588     0.047297955940
    C            0.088468065455     0.205063730373     0.480091814893
    H           -1.374738339093     0.128076434480    -1.066290234237
    H           -1.977558516937     0.827845175966     0.414863525881
    O            0.901386648227     0.431835277314    -0.635691266509
    H            0.179316054540     1.036016467913     1.177463877390
    H            0.413370134866    -0.691210440833     1.004630732405
    C            2.244750862810     0.621505028145    -0.328508753200
    H            2.773671755165     0.784062334696    -1.257780658126
    H            2.389085495252     1.487914949428     0.314759294041
    H            2.667482291790    -0.249499769148     0.169531318828

  Mulliken Charges: (a.u.)
   Center  Symbol    Alpha    Beta     Spin     Total
       1     H     0.33161  0.33161  0.00000  0.33679
       2     N     3.92503  3.92503  0.00000 -0.85007
       3     C     3.07693  3.07693  0.00000 -0.15387
       4     H     0.33273  0.33273  0.00000  0.33455
       5     C     2.99389  2.99389  0.00000  0.01222
       6     H     0.41390  0.41390  0.00000  0.17220
       7     H     0.41757  0.41757  0.00000  0.16486
       8     O     4.30723  4.30723  0.00000 -0.61445
       9     H     0.42793  0.42793  0.00000  0.14413
      10     H     0.42096  0.42096  0.00000  0.15808
      11     C     3.07983  3.07983  0.00000 -0.15967
      12     H     0.41251  0.41251  0.00000  0.17498
      13     H     0.42987  0.42987  0.00000  0.14026
      14     H     0.43000  0.43000  0.00000  0.13999

   Total alpha = 21.00000, Total beta = 21.00000, Total charge = -0.00000
