  ==> Input File <==

--------------------------------------------------------------------------
set {
	reference rhf
	basis 6-31G*
}

set_num_threads( 4 )
memory 2 gb

molecule MOL {
0 1

H	 -3.261111	 -0.295142	 1.469456
C	 -3.306842	 -0.277400	 0.373456
C	 -2.660244	 0.921717	 -0.272021
O	 -3.838538	 -1.161155	 -0.216482
C	 -3.494391	 2.199814	 -0.107942
H	 -1.665772	 1.038809	 0.142737
H	 -2.555271	 0.696305	 -1.332599
C	 -3.589655	 2.684696	 1.340889
H	 -3.052769	 2.979763	 -0.721077
H	 -4.494201	 2.032202	 -0.505488
C	 -4.414030	 3.965177	 1.487825
H	 -2.586247	 2.852423	 1.726750
H	 -4.024663	 1.904927	 1.963197
C	 -4.493810	 4.456145	 2.935767
H	 -3.981177	 4.736966	 0.856389
H	 -5.421263	 3.790627	 1.111793
C	 -5.378135	 5.690824	 3.144591
H	 -3.489788	 4.668220	 3.299991
H	 -4.876739	 3.648661	 3.556289
C	 -4.857465	 6.965611	 2.478678
H	 -5.470958	 5.869455	 4.212965
H	 -6.382915	 5.479284	 2.784608
H	 -3.846971	 7.193071	 2.807971
H	 -4.842132	 6.882145	 1.397118
H	 -5.485206	 7.815179	 2.730012

	symmetry c1
}
set optking {
	frozen_dihedral = ("
		6 3 2 4
	")
}

ee = optimize('scf')
oeprop('DIPOLE', 'QUADRUPOLE', 'MULLIKEN_CHARGES')
f=open( 'psi4out.xyz', 'w' )
f.write( "25  " )
f.write( str(ee) + "\n" )
f.write( MOL.save_string_xyz() )
f.close()
--------------------------------------------------------------------------

    Molecular point group: c1
  Charge       = 0
  Multiplicity = 1
  Basis Set: 6-31G*
  Basis Set:
  @DF-RHF Final Energy:  -387.11988895526059
    Total Energy =                       -387.1198889552606488
    Molecular point group: c1
  Basis Set: 6-31G*
  Basis Set:
  Basis Set: 6-31G*
  Basis Set:
  @DF-RHF Final Energy:  -387.12018529554365
    Total Energy =                       -387.1201852955439335
  Basis Set: 6-31G*
  Basis Set:
  Basis Set: 6-31G*
  Basis Set:
  @DF-RHF Final Energy:  -387.11988315577054
    Total Energy =                       -387.1198831557708218
  Basis Set: 6-31G*
  Basis Set:
  Basis Set: 6-31G*
  Basis Set:
  @DF-RHF Final Energy:  -387.12017714936894
    Total Energy =                       -387.1201771493697379
  Basis Set: 6-31G*
  Basis Set:
  Basis Set: 6-31G*
  Basis Set:
  @DF-RHF Final Energy:  -387.12032608753083
    Total Energy =                       -387.1203260875307706
  Basis Set: 6-31G*
  Basis Set:
  Basis Set: 6-31G*
  Basis Set:
  @DF-RHF Final Energy:  -387.12033682705339
    Total Energy =                       -387.1203368270533929
  Basis Set: 6-31G*
  Basis Set:
  Charge       = 0
  Multiplicity = 1
  Basis Set: 6-31G*
  Basis Set:

    Orbital Energies (a.u.)
    -----------------------

    Doubly Occupied:

       1A    -20.561532     2A    -11.324937     3A    -11.235494
       4A    -11.234091     5A    -11.227818     6A    -11.221838
       7A    -11.219898     8A    -11.219312     9A    -11.212023
      10A     -1.400988    11A     -1.104646    12A     -1.069747
      13A     -1.014013    14A     -0.943480    15A     -0.877285
      16A     -0.827826    17A     -0.784074    18A     -0.777680
      19A     -0.679791    20A     -0.658375    21A     -0.632622
      22A     -0.620429    23A     -0.598479    24A     -0.595067
      25A     -0.574814    26A     -0.555478    27A     -0.541178
      28A     -0.519982    29A     -0.512195    30A     -0.500016
      31A     -0.488376    32A     -0.480488    33A     -0.466804
      34A     -0.461136    35A     -0.443675    36A     -0.407402

  @DF-RHF Final Energy:  -387.12033668711490

   => Energetics <=

    Nuclear Repulsion Energy =            437.1039751300623948
    One-Electron Energy =               -1390.4626428408914762
    Two-Electron Energy =                 566.2383310237146361
    DFT Exchange-Correlation Energy =       0.0000000000000000
    Empirical Dispersion Energy =           0.0000000000000000
    PCM Polarization Energy =               0.0000000000000000
    EFP Energy =                            0.0000000000000000
    Total Energy =                       -387.1203366871144453
    Molecular point group: c1
  Basis Set: 6-31G*
  Basis Set:

  -Total Gradient:
     Atom            X                  Y                   Z
    ------   -----------------  -----------------  -----------------
       1       -0.000031275457    -0.000031708233     0.000002349943
       2        0.000024347331    -0.000063596900     0.000054022776
       3       -0.000161215373    -0.000030927223    -0.000220264953
       4        0.000030398332     0.000043153394     0.000011305450
       5        0.000004628103    -0.000037297964     0.000044568035
       6       -0.000021407198     0.000015658614     0.000009946390
       7        0.000062338845    -0.000003881366     0.000003227404
       8       -0.000014719399     0.000102234234     0.000017059557
       9        0.000018716286    -0.000032186074     0.000007763362
      10        0.000052614915    -0.000048683703    -0.000018973959
      11        0.000041479644     0.000010558443     0.000064763112
      12        0.000003956025     0.000050803841     0.000001456779
      13        0.000006965870     0.000035291989     0.000017136232
      14       -0.000046250615     0.000001601197    -0.000002623812
      15        0.000030851319    -0.000034480458     0.000028110445
      16        0.000018653861     0.000008178030    -0.000020728069
      17       -0.000028226347    -0.000017505457    -0.000007557333
      18        0.000000737725     0.000020119503    -0.000034119601
      19        0.000015553738    -0.000008388049     0.000026053599
      20        0.000005930734     0.000009966524     0.000006597103
      21       -0.000012905211    -0.000010582116     0.000001709907
      22        0.000000418926     0.000001934173    -0.000013123481
      23        0.000005868960     0.000001220586    -0.000004420112
      24       -0.000012623867     0.000023992807     0.000018090152
      25        0.000005162852    -0.000005475776     0.000007651074

  **** Optimization is complete! (in 7 steps) ****
    Final optimized geometry and variables:
    Molecular point group: c1

    Geometry (in Angstrom), charge = 0, multiplicity = 1:

    H            0.778860871735    -3.163205467422     0.210014677829
    C            0.747586838625    -3.130398132667    -0.883731769517
    C            1.330435187186    -1.898804756158    -1.530837918936
    O            0.265736898101    -4.033084344203    -1.489736747696
    C            0.463208166921    -0.643215902640    -1.322870411968
    H            2.322137401904    -1.726136939732    -1.116984260995
    H            1.435055318470    -2.106901424471    -2.588991064697
    C            0.381881414579    -0.148754983327     0.124865722397
    H            0.875476906081     0.147744407255    -1.943013280594
    H           -0.536773481118    -0.838362473273    -1.702051320669
    C           -0.418579868569     1.148604546710     0.260277849372
    H            1.388826595486     0.008071776069     0.508190486792
    H           -0.071098739476    -0.909054821320     0.757150201858
    C           -0.510162288590     1.642235329714     1.706627241144
    H            0.038126533920     1.910649049287    -0.365833305783
    H           -1.423002851876     0.992304829779    -0.129771044422
    C           -1.381238673562     2.888302319430     1.903146983167
    H            0.491845796601     1.842931129630     2.082827209553
    H           -0.910938446040     0.840698102204     2.323765383032
    C           -0.835413625737     4.156122219731     1.243636250691
    H           -1.486842582956     3.068304501254     2.970056432065
    H           -2.383320473365     2.688712752828     1.529171064577
    H            0.172088809977     4.372812605153     1.588698590134
    H           -0.804095159932     4.071344148947     0.162458150974
    H           -1.457100108683     5.012973522764     1.484008747702

  Mulliken Charges: (a.u.)
   Center  Symbol    Alpha    Beta     Spin     Total
       1     H     0.42975  0.42975  0.00000  0.14050
       2     C     2.83375  2.83375  0.00000  0.33250
       3     C     3.20687  3.20687  0.00000 -0.41374
       4     O     4.23759  4.23759  0.00000 -0.47519
       5     C     3.16394  3.16394  0.00000 -0.32788
       6     H     0.41296  0.41296  0.00000  0.17409
       7     H     0.39843  0.39843  0.00000  0.20315
       8     C     3.15707  3.15707  0.00000 -0.31414
       9     H     0.41329  0.41329  0.00000  0.17341
      10     H     0.41145  0.41145  0.00000  0.17709
      11     C     3.15415  3.15415  0.00000 -0.30829
      12     H     0.42167  0.42167  0.00000  0.15667
      13     H     0.42142  0.42142  0.00000  0.15716
      14     C     3.15309  3.15309  0.00000 -0.30618
      15     H     0.42013  0.42013  0.00000  0.15973
      16     H     0.42161  0.42161  0.00000  0.15678
      17     C     3.15280  3.15280  0.00000 -0.30560
      18     H     0.42386  0.42386  0.00000  0.15227
      19     H     0.42162  0.42162  0.00000  0.15677
      20     C     3.24150  3.24150  0.00000 -0.48299
      21     H     0.42005  0.42005  0.00000  0.15991
      22     H     0.42244  0.42244  0.00000  0.15512
      23     H     0.42216  0.42216  0.00000  0.15569
      24     H     0.42016  0.42016  0.00000  0.15968
      25     H     0.41825  0.41825  0.00000  0.16349

   Total alpha = 36.00000, Total beta = 36.00000, Total charge = -0.00000
