  ==> Input File <==

--------------------------------------------------------------------------
set {
	reference rhf
	basis 6-31G*
}

set_num_threads( 4 )
memory 2 gb

molecule MOL {
0 1

O	 1.068020	 -0.817486	 -1.914512
C	 1.452327	 -0.974344	 -0.800616
C	 1.245376	 -0.013843	 0.345420
O	 2.132542	 -2.045633	 -0.411670
C	 0.455112	 1.231400	 -0.050772
H	 0.759099	 -0.568109	 1.141357
H	 2.228430	 0.251429	 0.726117
C	 -0.998893	 1.219485	 0.433193
H	 0.482531	 1.345121	 -1.130325
H	 0.957290	 2.103070	 0.354729
C	 -1.883438	 0.145884	 -0.207175
H	 -1.431207	 2.195402	 0.224832
H	 -1.019646	 1.105716	 1.516076
C	 -3.347647	 0.245583	 0.225435
H	 -1.822183	 0.231698	 -1.291012
H	 -1.510341	 -0.844814	 0.042401
C	 -4.239992	 -0.825570	 -0.404234
H	 -3.732888	 1.230466	 -0.033079
H	 -3.408585	 0.170602	 1.310038
C	 -5.701275	 -0.716658	 0.029921
H	 -4.179496	 -0.752714	 -1.488058
H	 -3.859041	 -1.810759	 -0.143352
H	 -6.308102	 -1.488908	 -0.432678
H	 -6.122175	 0.245478	 -0.248167
H	 -5.799072	 -0.820114	 1.106957
C	 2.398266	 -3.029756	 -1.394410
H	 1.476118	 -3.425535	 -1.795042
H	 2.951569	 -3.807416	 -0.891311
H	 2.985748	 -2.613521	 -2.200108

	symmetry c1
}
set optking {
	frozen_dihedral = ("
		6 3 5 9
	")
}

ee = optimize('scf')
oeprop('DIPOLE', 'QUADRUPOLE', 'MULLIKEN_CHARGES')
f=open( 'psi4out.xyz', 'w' )
f.write( "29  " )
f.write( str(ee) + "\n" )
f.write( MOL.save_string_xyz() )
f.close()
--------------------------------------------------------------------------

    Molecular point group: c1
  Charge       = 0
  Multiplicity = 1
  Basis Set: 6-31G*
  Basis Set:
  @DF-RHF Final Energy:  -501.04065754252611
    Total Energy =                       -501.0406575425256506
    Molecular point group: c1
  Basis Set: 6-31G*
  Basis Set:
  Basis Set: 6-31G*
  Basis Set:
  @DF-RHF Final Energy:  -501.04093576460536
    Total Energy =                       -501.0409357646061608
  Basis Set: 6-31G*
  Basis Set:
  Basis Set: 6-31G*
  Basis Set:
  @DF-RHF Final Energy:  -501.04104130178428
    Total Energy =                       -501.0410413017838209
  Basis Set: 6-31G*
  Basis Set:
  Basis Set: 6-31G*
  Basis Set:
  @DF-RHF Final Energy:  -501.04105609878491
    Total Energy =                       -501.0410560987849067
  Basis Set: 6-31G*
  Basis Set:
  Basis Set: 6-31G*
  Basis Set:
  @DF-RHF Final Energy:  -501.04106204788127
    Total Energy =                       -501.0410620478812689
  Basis Set: 6-31G*
  Basis Set:
  Basis Set: 6-31G*
  Basis Set:
  @DF-RHF Final Energy:  -501.04106334786161
    Total Energy =                       -501.0410633478616091
  Basis Set: 6-31G*
  Basis Set:
  Charge       = 0
  Multiplicity = 1
  Basis Set: 6-31G*
  Basis Set:

    Orbital Energies (a.u.)
    -----------------------

    Doubly Occupied:

       1A    -20.604113     2A    -20.546228     3A    -11.372804
       4A    -11.281169     5A    -11.235172     6A    -11.217794
       7A    -11.214726     8A    -11.211947     9A    -11.210549
      10A    -11.209567    11A    -11.206166    12A     -1.469957
      13A     -1.363183    14A     -1.094657    15A     -1.063477
      16A     -1.017063    17A     -0.975773    18A     -0.926646
      19A     -0.860305    20A     -0.797795    21A     -0.786154
      22A     -0.762647    23A     -0.701434    24A     -0.682269
      25A     -0.672933    26A     -0.647310    27A     -0.621668
      28A     -0.608817    29A     -0.590691    30A     -0.578373
      31A     -0.565101    32A     -0.544874    33A     -0.535756
      34A     -0.528979    35A     -0.516720    36A     -0.500578
      37A     -0.496551    38A     -0.476538    39A     -0.466647
      40A     -0.459089    41A     -0.457419    42A     -0.454618
      43A     -0.439341    44A     -0.432776

  @DF-RHF Final Energy:  -501.04106389801268

   => Energetics <=

    Nuclear Repulsion Energy =            631.0789421718122867
    One-Electron Energy =               -1933.4272631976707544
    Two-Electron Energy =                 801.3072571278455598
    DFT Exchange-Correlation Energy =       0.0000000000000000
    Empirical Dispersion Energy =           0.0000000000000000
    PCM Polarization Energy =               0.0000000000000000
    EFP Energy =                            0.0000000000000000
    Total Energy =                       -501.0410638980129079
    Molecular point group: c1
  Basis Set: 6-31G*
  Basis Set:

  -Total Gradient:
     Atom            X                  Y                   Z
    ------   -----------------  -----------------  -----------------
       1       -0.000055822017     0.000100096867    -0.000034884826
       2       -0.000099513116    -0.000178940269     0.000047280948
       3        0.001191553403     0.001223238199     0.001941025222
       4        0.000063096709    -0.000025602754     0.000080439705
       5        0.001963242434     0.001211189625    -0.000237813959
       6       -0.001175193933    -0.001284023698    -0.001691252084
       7        0.000036564127     0.000045758544     0.000096766513
       8        0.000033996335    -0.000023986424     0.000018993962
       9       -0.001988599117    -0.001242746219    -0.000180356120
      10        0.000029401202     0.000062357966     0.000051745492
      11       -0.000000996675     0.000053837078    -0.000137629995
      12        0.000022950797    -0.000017753396    -0.000036564785
      13        0.000017488448     0.000041266295     0.000051441613
      14        0.000029247657    -0.000028837123     0.000040462461
      15       -0.000025436013    -0.000008383259    -0.000018727027
      16        0.000013563537    -0.000020605541     0.000002584977
      17        0.000001907416     0.000014061171    -0.000005118858
      18       -0.000005713889     0.000009651006    -0.000015958836
      19       -0.000000092150     0.000015368965     0.000042665279
      20        0.000007095740    -0.000017556551    -0.000008383950
      21       -0.000004902225    -0.000006360496    -0.000024449854
      22        0.000003523904    -0.000020961808     0.000010907738
      23       -0.000007668597    -0.000006945016    -0.000004731384
      24       -0.000006445773     0.000026954406    -0.000006871956
      25        0.000001381237    -0.000005170972     0.000016775671
      26       -0.000058223149     0.000068652472    -0.000011388292
      27       -0.000013407450    -0.000002159229    -0.000001953961
      28        0.000007714276     0.000014990824     0.000034226114
      29        0.000019286877     0.000002609341    -0.000019229806

  **** Optimization is complete! (in 7 steps) ****
    Final optimized geometry and variables:
    Molecular point group: c1

    Geometry (in Angstrom), charge = 0, multiplicity = 1:

    O            1.743317577702    -0.271975494961    -1.537960387367
    C            2.098212769187    -0.431330454641    -0.414476536698
    C            1.905317213543     0.539593482630     0.728983267605
    O            2.737679058224    -1.520010340768    -0.005709437864
    C            1.117684993801     1.806175350534     0.359503575608
    H            1.418106955386    -0.019265775415     1.522108948078
    H            2.897117464541     0.779494957151     1.099115010441
    C           -0.342596022361     1.795930208950     0.828571760142
    H            1.136778646974     1.932634561443    -0.716143996777
    H            1.613816855396     2.667952364101     0.794589153261
    C           -1.212862290062     0.721313207709     0.171576256042
    H           -0.773892286808     2.772201221601     0.618402858403
    H           -0.374280188781     1.677723892143     1.910993789878
    C           -2.673237389355     0.782024609562     0.623605250173
    H           -1.160179560353     0.828598903029    -0.908972334897
    H           -0.816265197038    -0.267274565519     0.394763375857
    C           -3.551620245981    -0.291320653113    -0.021868861590
    H           -3.080982735467     1.764786413837     0.392057123258
    H           -2.721654296442     0.681064610779     1.706998911543
    C           -5.010303940431    -0.220499247217     0.428747170139
    H           -3.502821454705    -0.192885099914    -1.104076263272
    H           -3.149309947106    -1.274683111891     0.212613419096
    H           -5.607203447050    -0.993506976118    -0.045558970187
    H           -5.452242386714     0.739517700936     0.176830852855
    H           -5.095508136658    -0.350163353016     1.504137260000
    C            2.995837499444    -2.517200317409    -0.977321500166
    H            2.071322224433    -2.888850170206    -1.395213848360
    H            3.515785575011    -3.307077413239    -0.457953668896
    H            3.612110043043    -2.122836690918    -1.772439141744

  Mulliken Charges: (a.u.)
   Center  Symbol    Alpha    Beta     Spin     Total
       1     O     4.28624  4.28624  0.00000 -0.57247
       2     C     2.61085  2.61085  0.00000  0.77830
       3     C     3.20909  3.20909  0.00000 -0.41817
       4     O     4.30563  4.30563  0.00000 -0.61126
       5     C     3.16241  3.16241  0.00000 -0.32481
       6     H     0.39866  0.39866  0.00000  0.20268
       7     H     0.39689  0.39689  0.00000  0.20622
       8     C     3.15579  3.15579  0.00000 -0.31158
       9     H     0.39750  0.39750  0.00000  0.20499
      10     H     0.41747  0.41747  0.00000  0.16507
      11     C     3.15413  3.15413  0.00000 -0.30826
      12     H     0.42043  0.42043  0.00000  0.15914
      13     H     0.42536  0.42536  0.00000  0.14927
      14     C     3.15064  3.15064  0.00000 -0.30128
      15     H     0.41364  0.41364  0.00000  0.17272
      16     H     0.42701  0.42701  0.00000  0.14599
      17     C     3.15114  3.15114  0.00000 -0.30229
      18     H     0.42417  0.42417  0.00000  0.15167
      19     H     0.42559  0.42559  0.00000  0.14883
      20     C     3.23924  3.23924  0.00000 -0.47847
      21     H     0.42153  0.42153  0.00000  0.15694
      22     H     0.42378  0.42378  0.00000  0.15244
      23     H     0.41966  0.41966  0.00000  0.16068
      24     H     0.42196  0.42196  0.00000  0.15609
      25     H     0.42253  0.42253  0.00000  0.15494
      26     C     3.09213  3.09213  0.00000 -0.18426
      27     H     0.40903  0.40903  0.00000  0.18193
      28     H     0.40848  0.40848  0.00000  0.18304
      29     H     0.40904  0.40904  0.00000  0.18192

   Total alpha = 44.00000, Total beta = 44.00000, Total charge = -0.00000
