  ==> Input File <==

--------------------------------------------------------------------------
set {
	reference rhf
	basis 6-31G*
}

set_num_threads( 1 )
memory 2 gb

molecule MOL {
0 1

O	 -0.778638	 2.124964	 -2.971221
C	 -1.134936	 1.497506	 -2.020546
C	 -0.433194	 0.208213	 -1.631205
C	 -2.273251	 1.965524	 -1.141584
C	 0.881216	 0.501850	 -0.890093
H	 -0.219960	 -0.338524	 -2.543298
H	 -1.079563	 -0.406689	 -1.011424
C	 1.631333	 -0.777471	 -0.511575
H	 1.494703	 1.130258	 -1.525797
H	 0.673042	 1.075202	 0.011948
C	 2.915987	 -0.544314	 0.291766
H	 1.869512	 -1.333736	 -1.416321
H	 0.968390	 -1.413207	 0.071688
C	 3.373361	 0.914346	 0.347591
H	 3.708709	 -1.142521	 -0.150311
H	 2.780642	 -0.921148	 1.303579
H	 3.506512	 1.320010	 -0.651625
H	 4.322697	 0.999599	 0.867103
H	 2.660624	 1.545032	 0.868198
H	 -3.106470	 1.272441	 -1.223101
H	 -2.595320	 2.951447	 -1.446560
H	 -1.971619	 1.982045	 -0.098248

	symmetry c1
}
set optking {
	frozen_dihedral = ("
		6 3 2 1,
		6 3 5 8,
		3 5 8 12
	")
}

ee = energy('scf')
oeprop('DIPOLE', 'QUADRUPOLE', 'MULLIKEN_CHARGES')
f=open( 'psi4out.xyz', 'w' )
f.write( "22  " )
f.write( str(ee) + "\n" )
f.write( MOL.save_string_xyz() )
f.close()
--------------------------------------------------------------------------

    Molecular point group: c1

    Geometry (in Angstrom), charge = 0, multiplicity = 1:

       Center              X                  Y                   Z               Mass
    ------------   -----------------  -----------------  -----------------  -----------------
           O         -1.306099052127     1.371713366478    -1.909118079810    15.994914619560
           C         -1.662397052127     0.744255366478    -0.958443079810    12.000000000000
           C         -0.960655052127    -0.545037633522    -0.569102079810    12.000000000000
           C         -2.800712052127     1.212273366478    -0.079481079810    12.000000000000
           C          0.353754947873    -0.251400633522     0.172009920190    12.000000000000
           H         -0.747421052127    -1.091774633522    -1.481195079810     1.007825032070
           H         -1.607024052127    -1.159939633522     0.050678920190     1.007825032070
           C          1.103871947873    -1.530721633522     0.550527920190    12.000000000000
           H          0.967241947873     0.377007366478    -0.463694079810     1.007825032070
           H          0.145580947873     0.321951366478     1.074050920190     1.007825032070
           C          2.388525947873    -1.297564633522     1.353868920190    12.000000000000
           H          1.342050947873    -2.086986633522    -0.354218079810     1.007825032070
           H          0.440928947873    -2.166457633522     1.133790920190     1.007825032070
           C          2.845899947873     0.161095366478     1.409693920190    12.000000000000
           H          3.181247947873    -1.895771633522     0.911791920190     1.007825032070
           H          2.253180947873    -1.674398633522     2.365681920190     1.007825032070
           H          2.979050947873     0.566759366478     0.410477920190     1.007825032070
           H          3.795235947873     0.246348366478     1.929205920190     1.007825032070
           H          2.133162947873     0.791781366478     1.930300920190     1.007825032070
           H         -3.633931052127     0.519190366478    -0.160998079810     1.007825032070
           H         -3.122781052127     2.198196366478    -0.384457079810     1.007825032070
           H         -2.499080052127     1.228794366478     0.963854920190     1.007825032070

  Charge       = 0
  Multiplicity = 1
  Basis Set: 6-31G*
  Basis Set:

    Orbital Energies (a.u.)
    -----------------------

    Doubly Occupied:

       1A    -20.546966     2A    -11.324067     3A    -11.228763
       4A    -11.228147     5A    -11.227986     6A    -11.220917
       7A    -11.219137     8A    -11.211131     9A     -1.392729
      10A     -1.096760    11A     -1.043425    12A     -0.997835
      13A     -0.936213    14A     -0.866232    15A     -0.775857
      16A     -0.733077    17A     -0.666327    18A     -0.645542
      19A     -0.630411    20A     -0.617650    21A     -0.590843
      22A     -0.587135    23A     -0.560106    24A     -0.540899
      25A     -0.534433    26A     -0.524153    27A     -0.501616
      28A     -0.486835    29A     -0.467701    30A     -0.463306
      31A     -0.451359    32A     -0.395835

  @DF-RHF Final Energy:  -348.08876353231915

   => Energetics <=

    Nuclear Repulsion Energy =            376.2523623720244359
    One-Electron Energy =               -1217.2554009040309211
    Two-Electron Energy =                 492.9142749996876773
    DFT Exchange-Correlation Energy =       0.0000000000000000
    Empirical Dispersion Energy =           0.0000000000000000
    PCM Polarization Energy =               0.0000000000000000
    EFP Energy =                            0.0000000000000000
    Total Energy =                       -348.0887635323188078

  Mulliken Charges: (a.u.)
   Center  Symbol    Alpha    Beta     Spin     Total
       1     O     4.26275  4.26275  0.00000 -0.52551
       2     C     2.73705  2.73705  0.00000  0.52589
       3     C     3.19824  3.19824  0.00000 -0.39649
       4     C     3.28948  3.28948  0.00000 -0.57895
       5     C     3.16708  3.16708  0.00000 -0.33416
       6     H     0.40160  0.40160  0.00000  0.19679
       7     H     0.41735  0.41735  0.00000  0.16531
       8     C     3.15492  3.15492  0.00000 -0.30984
       9     H     0.40328  0.40328  0.00000  0.19343
      10     H     0.42001  0.42001  0.00000  0.15999
      11     C     3.15537  3.15537  0.00000 -0.31073
      12     H     0.41805  0.41805  0.00000  0.16390
      13     H     0.42091  0.42091  0.00000  0.15819
      14     C     3.24586  3.24586  0.00000 -0.49173
      15     H     0.41841  0.41841  0.00000  0.16318
      16     H     0.42012  0.42012  0.00000  0.15977
      17     H     0.41826  0.41826  0.00000  0.16349
      18     H     0.41699  0.41699  0.00000  0.16601
      19     H     0.42031  0.42031  0.00000  0.15937
      20     H     0.40695  0.40695  0.00000  0.18611
      21     H     0.39716  0.39716  0.00000  0.20567
      22     H     0.40984  0.40984  0.00000  0.18032

   Total alpha = 32.00000, Total beta = 32.00000, Total charge =  0.00000
