  ==> Input File <==

--------------------------------------------------------------------------
set {
	reference rhf
	basis 6-31G*
}

set_num_threads( 4 )
memory 2 gb

molecule MOL {
0 1

H	 -4.031818	 -0.453427	 -0.000094
C	 -2.967712	 -0.297022	 -0.000064
C	 -2.458620	 0.992929	 0.000032
C	 -2.109895	 -1.385637	 -0.000122
H	 -3.124998	 1.836319	 0.000077
C	 -1.090278	 1.193236	 0.000070
H	 -2.506361	 -2.384847	 -0.000198
C	 -0.739812	 -1.187531	 -0.000085
H	 -0.678594	 2.184290	 0.000146
C	 -0.226438	 0.104061	 0.000012
H	 -0.072310	 -2.027032	 -0.000131
C	 1.239129	 0.373821	 0.000060
O	 1.529071	 1.666314	 0.000155
O	 2.072515	 -0.477252	 0.000014
C	 2.902313	 2.013989	 0.000331
H	 3.390974	 1.624810	 0.881548
H	 2.932274	 3.092393	 0.000061
H	 3.391391	 1.624265	 -0.880486

	symmetry c1
}
set optking {
	frozen_dihedral = ("
		13 12 10 6
	")
}

ee = optimize('scf')
oeprop('DIPOLE', 'QUADRUPOLE', 'MULLIKEN_CHARGES')
f=open( 'psi4out.xyz', 'w' )
f.write( "18  " )
f.write( str(ee) + "\n" )
f.write( MOL.save_string_xyz() )
f.close()
--------------------------------------------------------------------------

    Molecular point group: c1
  Charge       = 0
  Multiplicity = 1
  Basis Set: 6-31G*
  Basis Set:
  @DF-RHF Final Energy:  -457.34917115471285
    Total Energy =                       -457.3491711547127352
    Molecular point group: c1
  Basis Set: 6-31G*
  Basis Set:
  Basis Set: 6-31G*
  Basis Set:
  @DF-RHF Final Energy:  -457.35047686610727
    Total Energy =                       -457.3504768661072148
  Basis Set: 6-31G*
  Basis Set:
  Basis Set: 6-31G*
  Basis Set:
  @DF-RHF Final Energy:  -457.35065663312838
    Total Energy =                       -457.3506566331286649
  Basis Set: 6-31G*
  Basis Set:
  Basis Set: 6-31G*
  Basis Set:
  @DF-RHF Final Energy:  -457.35066647084903
    Total Energy =                       -457.3506664708487506
  Basis Set: 6-31G*
  Basis Set:
  Charge       = 0
  Multiplicity = 1
  Basis Set: 6-31G*
  Basis Set:

    Orbital Energies (a.u.)
    -----------------------

    Doubly Occupied:

       1A    -20.607671     2A    -20.544424     3A    -11.377898
       4A    -11.282969     5A    -11.245584     6A    -11.245277
       7A    -11.244130     8A    -11.241739     9A    -11.237468
      10A    -11.236727    11A     -1.472824    12A     -1.363884
      13A     -1.165279    14A     -1.048098    15A     -1.024803
      16A     -0.978172    17A     -0.860181    18A     -0.834318
      19A     -0.777769    20A     -0.739929    21A     -0.683333
      22A     -0.677455    23A     -0.671892    24A     -0.631071
      25A     -0.623939    26A     -0.597780    27A     -0.584639
      28A     -0.561498    29A     -0.529361    30A     -0.516614
      31A     -0.503413    32A     -0.498939    33A     -0.459225
      34A     -0.444398    35A     -0.344856    36A     -0.340980

  @DF-RHF Final Energy:  -457.35066716355635

   => Energetics <=

    Nuclear Repulsion Energy =            493.0066591965067460
    One-Electron Energy =               -1600.3175796919990717
    Two-Electron Energy =                 649.9602533319356326
    DFT Exchange-Correlation Energy =       0.0000000000000000
    Empirical Dispersion Energy =           0.0000000000000000
    PCM Polarization Energy =               0.0000000000000000
    EFP Energy =                            0.0000000000000000
    Total Energy =                       -457.3506671635567500
    Molecular point group: c1
  Basis Set: 6-31G*
  Basis Set:

  -Total Gradient:
     Atom            X                  Y                   Z
    ------   -----------------  -----------------  -----------------
       1       -0.000000927361     0.000023393794    -0.000001726551
       2        0.000012572651    -0.000181506679     0.000001047750
       3        0.000140003525     0.000124533465     0.000012367539
       4       -0.000197274628     0.000036948631     0.000005643885
       5       -0.000009904637    -0.000001498833     0.000002361101
       6       -0.000152355937     0.000038258027    -0.000031130599
       7        0.000016631233    -0.000000422505     0.000000748395
       8        0.000131489140     0.000073134181    -0.000019260958
       9        0.000012217407     0.000001910864    -0.000004705478
      10        0.000038339254    -0.000160402881    -0.000112052965
      11       -0.000008985121    -0.000003587409     0.000000970656
      12        0.000005905833     0.000067989114     0.000501305711
      13       -0.000030608914    -0.000056976955    -0.000148931293
      14       -0.000004649230     0.000012869680    -0.000203827892
      15        0.000074296664     0.000033338242     0.000003006865
      16       -0.000012023230     0.000005063891    -0.000005156218
      17       -0.000011943384    -0.000021483077    -0.000003769019
      18       -0.000002783271     0.000008438451     0.000003109071

  **** Optimization is complete! (in 5 steps) ****
    Final optimized geometry and variables:
    Molecular point group: c1

    Geometry (in Angstrom), charge = 0, multiplicity = 1:

    H           -3.963957045712    -0.864937949594    -0.001259364492
    C           -2.905960495755    -0.671718601251    -0.000747480228
    C           -2.443024054534     0.634865069060    -0.000481783567
    C           -2.009789568019    -1.729828495073    -0.000414476537
    H           -3.139447878428     1.453754014800    -0.000792567989
    C           -1.082058088751     0.887006998367     0.000148173424
    H           -2.369881483103    -2.742624929399    -0.000669524123
    C           -0.649392641007    -1.480217787368     0.000233991720
    H           -0.719530255465     1.896394957391     0.000312718561
    C           -0.181005889456    -0.171506729259     0.000642763564
    H            0.058486072954    -2.286772910207     0.000488417317
    C            1.293693636600     0.043889678576     0.001196202993
    O            1.631260255861     1.324592072059     0.001159014657
    O            2.095050181336    -0.837498907426    -0.001283369846
    C            3.016359301445     1.621385435995    -0.000136831819
    H            3.491471612830     1.214118539744     0.880329384720
    H            3.085732052121     2.697902762908    -0.000013485615
    H            3.489770297357     1.214438734952    -0.881667638375

  Mulliken Charges: (a.u.)
   Center  Symbol    Alpha    Beta     Spin     Total
       1     H     0.39539  0.39539  0.00000  0.20922
       2     C     3.08999  3.08999  0.00000 -0.17998
       3     C     3.10718  3.10718  0.00000 -0.21436
       4     C     3.10712  3.10712  0.00000 -0.21424
       5     H     0.39626  0.39626  0.00000  0.20748
       6     C     3.08714  3.08714  0.00000 -0.17427
       7     H     0.39536  0.39536  0.00000  0.20927
       8     C     3.08642  3.08642  0.00000 -0.17284
       9     H     0.38042  0.38042  0.00000  0.23916
      10     C     3.07712  3.07712  0.00000 -0.15424
      11     H     0.37596  0.37596  0.00000  0.24807
      12     C     2.57969  2.57969  0.00000  0.84063
      13     O     4.31478  4.31478  0.00000 -0.62956
      14     O     4.29186  4.29186  0.00000 -0.58372
      15     C     3.09255  3.09255  0.00000 -0.18509
      16     H     0.40742  0.40742  0.00000  0.18517
      17     H     0.40796  0.40796  0.00000  0.18408
      18     H     0.40738  0.40738  0.00000  0.18524

   Total alpha = 36.00000, Total beta = 36.00000, Total charge =  0.00000
