  ==> Input File <==

--------------------------------------------------------------------------
set {
	reference rhf
	basis 6-31G*
}

set_num_threads( 4 )
memory 2 gb

molecule MOL {
0 1

H	 2.591676	 2.013956	 0.335017
O	 3.341076	 1.666752	 -0.126416
C	 3.569581	 0.339145	 0.272707
C	 2.539767	 -0.640285	 -0.279495
H	 4.553106	 0.084646	 -0.100901
H	 3.608576	 0.269204	 1.359154
C	 1.970669	 -1.601001	 0.767415
H	 1.730895	 -0.071929	 -0.731228
H	 3.009882	 -1.212368	 -1.077668
C	 0.980918	 -2.606094	 0.171596
H	 1.479450	 -1.027616	 1.548632
H	 2.787795	 -2.143537	 1.243125
C	 0.445447	 -3.646816	 1.161802
H	 0.145214	 -2.066546	 -0.270371
H	 1.470061	 -3.129681	 -0.647121
C	 -0.439289	 -3.080849	 2.275985
H	 -0.128093	 -4.384907	 0.604945
H	 1.281927	 -4.185836	 1.604063
C	 -1.034252	 -4.167144	 3.174549
H	 -1.247176	 -2.500243	 1.832899
H	 0.130748	 -2.389287	 2.891697
C	 -1.912657	 -3.604497	 4.291463
H	 -1.619002	 -4.855469	 2.568113
H	 -0.228752	 -4.754488	 3.610532
H	 -2.746907	 -3.038466	 3.886668
H	 -2.320791	 -4.398486	 4.909237
H	 -1.346996	 -2.939990	 4.938627

	symmetry c1
}
set optking {
	frozen_dihedral = ("
		8 4 3 2
	")
}

ee = optimize('scf')
oeprop('DIPOLE', 'QUADRUPOLE', 'MULLIKEN_CHARGES')
f=open( 'psi4out.xyz', 'w' )
f.write( "27  " )
f.write( str(ee) + "\n" )
f.write( MOL.save_string_xyz() )
f.close()
--------------------------------------------------------------------------

    Molecular point group: c1
  Charge       = 0
  Multiplicity = 1
  Basis Set: 6-31G*
  Basis Set:
  @DF-RHF Final Energy:  -388.27570609277501
    Total Energy =                       -388.2757060927749535
    Molecular point group: c1
  Basis Set: 6-31G*
  Basis Set:
  Basis Set: 6-31G*
  Basis Set:
  @DF-RHF Final Energy:  -388.27617365021837
    Total Energy =                       -388.2761736502189933
  Basis Set: 6-31G*
  Basis Set:
  Basis Set: 6-31G*
  Basis Set:
  @DF-RHF Final Energy:  -388.27624678288612
    Total Energy =                       -388.2762467828864601
  Basis Set: 6-31G*
  Basis Set:
  Basis Set: 6-31G*
  Basis Set:
  @DF-RHF Final Energy:  -388.27623696197583
    Total Energy =                       -388.2762369619765650
  Basis Set: 6-31G*
  Basis Set:
  Basis Set: 6-31G*
  Basis Set:
  @DF-RHF Final Energy:  -388.27625341716242
    Total Energy =                       -388.2762534171624793
  Basis Set: 6-31G*
  Basis Set:
  Charge       = 0
  Multiplicity = 1
  Basis Set: 6-31G*
  Basis Set:

    Orbital Energies (a.u.)
    -----------------------

    Doubly Occupied:

       1A    -20.551101     2A    -11.266998     3A    -11.219792
       4A    -11.217201     5A    -11.216317     6A    -11.216135
       7A    -11.215745     8A    -11.214544     9A    -11.209804
      10A     -1.357879    11A     -1.095510    12A     -1.061747
      13A     -1.010533    14A     -0.945268    15A     -0.885015
      16A     -0.824034    17A     -0.805314    18A     -0.779118
      19A     -0.686685    20A     -0.651663    21A     -0.643318
      22A     -0.607194    23A     -0.603055    24A     -0.585880
      25A     -0.573687    26A     -0.553248    27A     -0.544973
      28A     -0.525482    29A     -0.509155    30A     -0.501557
      31A     -0.483278    32A     -0.475629    33A     -0.464154
      34A     -0.460367    35A     -0.450253    36A     -0.442294
      37A     -0.421841

  @DF-RHF Final Energy:  -388.27625283829263

   => Energetics <=

    Nuclear Repulsion Energy =            454.1221885751587024
    One-Electron Energy =               -1426.2453452996269334
    Two-Electron Energy =                 583.8469038861760509
    DFT Exchange-Correlation Energy =       0.0000000000000000
    Empirical Dispersion Energy =           0.0000000000000000
    PCM Polarization Energy =               0.0000000000000000
    EFP Energy =                            0.0000000000000000
    Total Energy =                       -388.2762528382921801
    Molecular point group: c1
  Basis Set: 6-31G*
  Basis Set:

  -Total Gradient:
     Atom            X                  Y                   Z
    ------   -----------------  -----------------  -----------------
       1       -0.000008090043     0.000022302499    -0.000003265265
       2       -0.001272755232     0.000327839211     0.001714915962
       3        0.002035237350    -0.000486862244    -0.002834956183
       4       -0.002101148610     0.000195330869     0.003451109580
       5       -0.000000143798    -0.000017408549    -0.000004168121
       6       -0.000006717490     0.000023806805    -0.000000726275
       7       -0.000018927307     0.000010181491    -0.000006982348
       8        0.001332274695    -0.000061223732    -0.002300029399
       9        0.000015091079    -0.000005758301     0.000002694460
      10        0.000014994641    -0.000019125596    -0.000006508658
      11       -0.000017170527    -0.000006196228     0.000032069481
      12        0.000001038574    -0.000001063116    -0.000020611634
      13       -0.000028037686    -0.000009071586    -0.000017192845
      14        0.000008038549    -0.000012776135    -0.000015518781
      15        0.000022631524     0.000008786813     0.000009110802
      16        0.000011283213     0.000011678949    -0.000004806380
      17       -0.000017947210     0.000010996907     0.000007056140
      18       -0.000008178765    -0.000018438428    -0.000013996161
      19        0.000011778465     0.000002448736     0.000013883758
      20        0.000004909818    -0.000011665446     0.000004217966
      21        0.000022779706     0.000036389249    -0.000003700526
      22       -0.000003058111    -0.000000287804    -0.000001806872
      23        0.000003574927     0.000001525861    -0.000002674130
      24       -0.000000147615    -0.000001031049     0.000003517853
      25       -0.000000133221     0.000001585276     0.000000374350
      26       -0.000001234134    -0.000000302345    -0.000001155609
      27        0.000000057211    -0.000001662110    -0.000000851161

  **** Optimization is complete! (in 6 steps) ****
    Final optimized geometry and variables:
    Molecular point group: c1

    Geometry (in Angstrom), charge = 0, multiplicity = 1:

    H            1.451079204241     3.837478886719    -1.077935063339
    O            2.283572712652     3.535335679705    -1.413015843132
    C            2.495473749047     2.209945409620    -0.998035803066
    C            1.469353362417     1.216002334125    -1.574167981257
    H            3.496722817960     1.960242641431    -1.321093824566
    H            2.491734336633     2.160224613547     0.089955259067
    C            0.890147198439     0.254774280179    -0.534312550988
    H            0.673965438668     1.782299865218    -2.052777807603
    H            1.929147959030     0.642279761694    -2.375108405348
    C           -0.107034694791    -0.739565130465    -1.133835603810
    H            0.414472306662     0.832147510093     0.254949345415
    H            1.702682674833    -0.295097765317    -0.060803868863
    C           -0.646532582099    -1.783170892152    -0.148814469088
    H           -0.940950286790    -0.192654879092    -1.571018512215
    H            0.376234106912    -1.261156414805    -1.957272148865
    C           -1.517079892878    -1.217317091415     0.976473485068
    H           -1.231518668661    -2.510744744976    -0.707563545402
    H            0.187557687106    -2.334015363569     0.283037663825
    C           -2.114754416657    -2.304619518867     1.872025528368
    H           -2.323548120542    -0.626575020166     0.543899181015
    H           -0.935567910232    -0.535538426387     1.592281327532
    C           -2.981020711403    -1.742217626966     2.998491697489
    H           -2.709065101548    -2.984369980636     1.265207470115
    H           -1.311031386510    -2.900994967672     2.298808147459
    H           -3.813587678664    -1.167084771270     2.603037692282
    H           -3.391300136919    -2.536878210929     3.613950265013
    H           -2.405602399625    -1.086463768928     3.645969431923

  Mulliken Charges: (a.u.)
   Center  Symbol    Alpha    Beta     Spin     Total
       1     H     0.28387  0.28387  0.00000  0.43226
       2     O     4.37056  4.37056  0.00000 -0.74111
       3     C     2.99346  2.99346  0.00000  0.01308
       4     C     3.17371  3.17371  0.00000 -0.34743
       5     H     0.41396  0.41396  0.00000  0.17207
       6     H     0.42910  0.42910  0.00000  0.14180
       7     C     3.16029  3.16029  0.00000 -0.32058
       8     H     0.41774  0.41774  0.00000  0.16451
       9     H     0.41670  0.41670  0.00000  0.16660
      10     C     3.15332  3.15332  0.00000 -0.30664
      11     H     0.42258  0.42258  0.00000  0.15484
      12     H     0.42251  0.42251  0.00000  0.15499
      13     C     3.15334  3.15334  0.00000 -0.30668
      14     H     0.42342  0.42342  0.00000  0.15317
      15     H     0.42081  0.42081  0.00000  0.15837
      16     C     3.15268  3.15268  0.00000 -0.30536
      17     H     0.42129  0.42129  0.00000  0.15741
      18     H     0.42372  0.42372  0.00000  0.15255
      19     C     3.15119  3.15119  0.00000 -0.30239
      20     H     0.42480  0.42480  0.00000  0.15039
      21     H     0.42272  0.42272  0.00000  0.15455
      22     C     3.23920  3.23920  0.00000 -0.47840
      23     H     0.42290  0.42290  0.00000  0.15421
      24     H     0.42293  0.42293  0.00000  0.15414
      25     H     0.42191  0.42191  0.00000  0.15617
      26     H     0.41912  0.41912  0.00000  0.16177
      27     H     0.42215  0.42215  0.00000  0.15570

   Total alpha = 37.00000, Total beta = 37.00000, Total charge =  0.00000
