                              Psi4 1.0.54 Driver

  ==> Input File <==

--------------------------------------------------------------------------
set {
	reference rhf
	basis cc-pvtz
}

set_num_threads( 4 )
memory 2 gb

molecule MOL {
0 1

H	 -1.835082	 1.385983	 0.000069
C	 -1.300516	 0.441153	 -0.000028
O	 -0.006604	 0.654344	 -0.000106
O	 -1.828920	 -0.612308	 0.000113
C	 0.454322	 1.931497	 -0.431674
C	 1.961919	 1.931723	 -0.343044
H	 0.017287	 2.692109	 0.199538
H	 0.113942	 2.102187	 -1.443093
H	 2.288321	 1.755913	 0.674071
H	 2.345598	 2.892294	 -0.665451
H	 2.385465	 1.163003	 -0.976801

	symmetry c1
}
set optking {
	frozen_dihedral = ("
		5 3 2 4
	")
}

ee,wfn = optimize('scf', return_wfn=True)
oeprop( wfn, 'DIPOLE', 'QUADRUPOLE', 'MULLIKEN_CHARGES')
f=open( 'psi4out.xyz', 'w' )
f.write( "11  " )
f.write( str(ee) + "\n" )
f.write( MOL.save_string_xyz() )
f.close()
--------------------------------------------------------------------------

    Molecular point group: c1
  Charge       = 0
  Multiplicity = 1
  Basis Set: CC-PVTZ
  Basis Set:
  @DF-RHF Final Energy:  -266.92149364601386
    Total Energy =                       -266.9214936460139143
    Molecular point group: c1
  Basis Set: CC-PVTZ
  Basis Set:
  Basis Set: CC-PVTZ
  Basis Set:
  @DF-RHF Final Energy:  -266.92245083162220
    Total Energy =                       -266.9224508316222568
  Basis Set: CC-PVTZ
  Basis Set:
  Basis Set: CC-PVTZ
  Basis Set:
  @DF-RHF Final Energy:  -266.92230745243637
    Total Energy =                       -266.9223074524362573
  Basis Set: CC-PVTZ
  Basis Set:
  Basis Set: CC-PVTZ
  Basis Set:
  @DF-RHF Final Energy:  -266.92271249687792
    Total Energy =                       -266.9227124968779208
  Basis Set: CC-PVTZ
  Basis Set:
  Basis Set: CC-PVTZ
  Basis Set:
  @DF-RHF Final Energy:  -266.92273170405770
    Total Energy =                       -266.9227317040576963
  Basis Set: CC-PVTZ
  Basis Set:
  Basis Set: CC-PVTZ
  Basis Set:
  @DF-RHF Final Energy:  -266.92273589076291
    Total Energy =                       -266.9227358907630219
  Basis Set: CC-PVTZ
  Basis Set:
  Charge       = 0
  Multiplicity = 1
  Basis Set: CC-PVTZ
  Basis Set:

    Orbital Energies (a.u.)
    -----------------------

    Doubly Occupied:

       1A    -20.604177     2A    -20.545472     3A    -11.371845
       4A    -11.304508     5A    -11.231854     6A     -1.476355
       7A     -1.383538     8A     -1.056290     9A     -0.890257
      10A     -0.847688    11A     -0.741117    12A     -0.696620
      13A     -0.669384    14A     -0.611339    15A     -0.574264
      16A     -0.562358    17A     -0.536032    18A     -0.519937
      19A     -0.461650    20A     -0.453325

  @DF-RHF Final Energy:  -266.92273625731707

   => Energetics <=

    Nuclear Repulsion Energy =            176.6720541866160090
    One-Electron Energy =                -714.1135578453615835
    Two-Electron Energy =                 270.5187674014285903
    DFT Exchange-Correlation Energy =       0.0000000000000000
    Empirical Dispersion Energy =           0.0000000000000000
    PCM Polarization Energy =               0.0000000000000000
    EFP Energy =                            0.0000000000000000
    Total Energy =                       -266.9227362573169557
    Molecular point group: c1
  Basis Set: CC-PVTZ
  Basis Set:

  -Total Gradient:
     Atom            X                  Y                   Z
    ------   -----------------  -----------------  -----------------
       1        0.000016762670     0.000001701301     0.000002233180
       2        0.000518731631    -0.000895685158     0.003413389934
       3        0.000355487139     0.001067773099     0.002142946430
       4       -0.000515381338     0.000416213877    -0.003108546286
       5       -0.000356600755    -0.000547590000    -0.002475456369
       6       -0.000016965797    -0.000038450665     0.000016093428
       7        0.000002102080    -0.000021839259     0.000012381691
       8        0.000013540621     0.000029964060    -0.000009697097
       9        0.000006992711    -0.000002277563     0.000009168356
      10       -0.000032359227    -0.000005689920     0.000000382697
      11        0.000007690261    -0.000004119779    -0.000002895965

  **** Optimization is complete! (in 7 steps) ****
    Final optimized geometry and variables:
    Molecular point group: c1

    Geometry (in Angstrom), charge = 0, multiplicity = 1:

    H           -1.682632154778     0.535393106388     0.455216732552
    C           -1.159202601463    -0.399350948160     0.248258122047
    O            0.134146724724    -0.247732069932     0.036007502099
    O           -1.701261439440    -1.438545453793     0.216775166221
    C            0.609828939648     1.035856285102    -0.326731802184
    C            2.112639505187     1.046832441806    -0.174317126599
    H            0.153993307567     1.787786523324     0.308452234349
    H            0.325526367612     1.239541228127    -1.352211567363
    H            2.393291204920     0.849559515548     0.852179247622
    H            2.504146881000     2.015409610242    -0.461215893779
    H            2.563383559242     0.291543470986    -0.804328310867

  Mulliken Charges: (a.u.)
   Center  Symbol    Alpha    Beta     Spin     Total
       1     H     0.47603  0.47603  0.00000  0.04794
       2     C     2.84480  2.84480  0.00000  0.31040
       3     O     4.12639  4.12639  0.00000 -0.25278
       4     O     4.17435  4.17435  0.00000 -0.34869
       5     C     2.97745  2.97745  0.00000  0.04511
       6     C     3.13257  3.13257  0.00000 -0.26513
       7     H     0.46283  0.46283  0.00000  0.07434
       8     H     0.45657  0.45657  0.00000  0.08685
       9     H     0.44844  0.44844  0.00000  0.10311
      10     H     0.45537  0.45537  0.00000  0.08926
      11     H     0.44520  0.44520  0.00000  0.10959

   Total alpha = 20.00000, Total beta = 20.00000, Total charge = -0.00000

*** Psi4 exiting successfully. Buy a developer a beer!
