                              Psi4 1.0.54 Driver

  ==> Input File <==

--------------------------------------------------------------------------
set {
	reference rhf
	basis cc-pvtz
}

set_num_threads( 4 )
memory 2 gb

molecule MOL {
0 1

H	 2.614283	 2.028610	 0.296620
O	 3.358864	 1.662087	 -0.142800
C	 3.565468	 0.338079	 0.273842
C	 2.533667	 -0.637565	 -0.272227
H	 4.548038	 0.064914	 -0.086598
H	 3.593945	 0.282242	 1.360360
C	 1.114816	 -0.402372	 0.240993
H	 2.544552	 -0.580764	 -1.356576
H	 2.850574	 -1.642962	 -0.005497
C	 0.822068	 1.072151	 0.514701
H	 0.962411	 -0.975659	 1.149354
H	 0.400599	 -0.778051	 -0.489792
C	 -0.609534	 1.374838	 0.960965
H	 1.517298	 1.440748	 1.265046
H	 1.026448	 1.638144	 -0.389926
C	 -0.989484	 0.822084	 2.333497
H	 -0.741564	 2.453224	 0.974395
H	 -1.305107	 0.995767	 0.215554
C	 -2.391141	 1.234092	 2.776237
H	 -0.266603	 1.165710	 3.070268
H	 -0.928221	 -0.261999	 2.329792
C	 -2.775133	 0.680801	 4.144561
H	 -2.457052	 2.318468	 2.795255
H	 -3.113742	 0.898901	 2.036941
H	 -2.089504	 1.024390	 4.912087
H	 -3.773182	 0.993844	 4.429183
H	 -2.755726	 -0.404079	 4.148014

	symmetry c1
}
set optking {
	frozen_dihedral = ("
		10 7 4 8
	")
}

ee,wfn = optimize('scf', return_wfn=True)
oeprop( wfn, 'DIPOLE', 'QUADRUPOLE', 'MULLIKEN_CHARGES')
f=open( 'psi4out.xyz', 'w' )
f.write( "27  " )
f.write( str(ee) + "\n" )
f.write( MOL.save_string_xyz() )
f.close()
--------------------------------------------------------------------------

    Molecular point group: c1
  Charge       = 0
  Multiplicity = 1
  Basis Set: CC-PVTZ
  Basis Set:
  @DF-RHF Final Energy:  -388.40861733251438
    Total Energy =                       -388.4086173325149502
    Molecular point group: c1
  Basis Set: CC-PVTZ
  Basis Set:
  Basis Set: CC-PVTZ
  Basis Set:
  @DF-RHF Final Energy:  -388.38106666519531
    Total Energy =                       -388.3810666651947940
  Basis Set: CC-PVTZ
  Basis Set:
  Basis Set: CC-PVTZ
  Basis Set:
  @DF-RHF Final Energy:  -388.41899537296774
    Total Energy =                       -388.4189953729675153
  Basis Set: CC-PVTZ
  Basis Set:
  Basis Set: CC-PVTZ
  Basis Set:
  @DF-RHF Final Energy:  -388.42064605922184
    Total Energy =                       -388.4206460592210988
  Basis Set: CC-PVTZ
  Basis Set:
  @DF-RHF Final Energy:  -388.42085729254700
    Total Energy =                       -388.4208572925463159
  @DF-RHF Final Energy:  -388.42094778078405
    Total Energy =                       -388.4209477807838766
  Basis Set: CC-PVTZ
  Basis Set:
  @DF-RHF Final Energy:  -388.42096277549882
    Total Energy =                       -388.4209627754987650
  Basis Set: CC-PVTZ
  Basis Set:
  Basis Set: CC-PVTZ
  Basis Set:
  @DF-RHF Final Energy:  -388.42097045302791
    Total Energy =                       -388.4209704530273939
  Basis Set: CC-PVTZ
  Basis Set:
  Basis Set: CC-PVTZ
  Basis Set:
  @DF-RHF Final Energy:  -388.42097177839230
    Total Energy =                       -388.4209717783919587
  Basis Set: CC-PVTZ
  Basis Set:
  Charge       = 0
  Multiplicity = 1
  Basis Set: CC-PVTZ
  Basis Set:

    Orbital Energies (a.u.)
    -----------------------

    Doubly Occupied:

       1A    -20.542311     2A    -11.264899     3A    -11.220770
       4A    -11.217438     5A    -11.216537     6A    -11.215423
       7A    -11.213946     8A    -11.213619     9A    -11.208477
      10A     -1.361174    11A     -1.097545    12A     -1.061305
      13A     -1.013830    14A     -0.950132    15A     -0.892807
      16A     -0.828079    17A     -0.801589    18A     -0.776400
      19A     -0.696471    20A     -0.650732    21A     -0.633109
      22A     -0.623371    23A     -0.600144    24A     -0.583749
      25A     -0.570755    26A     -0.564366    27A     -0.550246
      28A     -0.528753    29A     -0.517667    30A     -0.499671
      31A     -0.480449    32A     -0.476653    33A     -0.469222
      34A     -0.464513    35A     -0.448377    36A     -0.439524
      37A     -0.425504

  @DF-RHF Final Energy:  -388.42097226073139

   => Energetics <=

    Nuclear Repulsion Energy =            466.6065448025846649
    One-Electron Energy =               -1451.4159216124101022
    Two-Electron Energy =                 596.3884045490941617
    DFT Exchange-Correlation Energy =       0.0000000000000000
    Empirical Dispersion Energy =           0.0000000000000000
    PCM Polarization Energy =               0.0000000000000000
    EFP Energy =                            0.0000000000000000
    Total Energy =                       -388.4209722607312187
    Molecular point group: c1
  Basis Set: CC-PVTZ
  Basis Set:

  -Total Gradient:
     Atom            X                  Y                   Z
    ------   -----------------  -----------------  -----------------
       1       -0.000066112511     0.000148174746     0.000117930756
       2       -0.000006794808    -0.000205261237    -0.000089449268
       3       -0.000039993380     0.000049203010    -0.000119901149
       4        0.000703617106     0.007086671996    -0.000034336116
       5        0.000075160499    -0.000005340135     0.000075857781
       6        0.000044723417    -0.000010613117     0.000079447667
       7       -0.002191904729    -0.002747760171    -0.005069415988
       8       -0.000050427901    -0.005380527368     0.001348349485
       9        0.000083176499     0.000088884575     0.000061162966
      10        0.001516085847     0.000934599296     0.003625761657
      11        0.000074133832    -0.000038581438    -0.000045404052
      12       -0.000109816573    -0.000011296597    -0.000003846707
      13       -0.000048800580    -0.000027767620    -0.000021145058
      14        0.000017413904     0.000044459400     0.000037729502
      15       -0.000032619233     0.000023355686     0.000061679996
      16        0.000038988881     0.000021297939    -0.000008125097
      17       -0.000037967120     0.000056289169    -0.000005139908
      18        0.000005756692    -0.000012085435    -0.000021031220
      19        0.000032782210     0.000009109536    -0.000052875932
      20        0.000015563092     0.000021423488     0.000032473134
      21        0.000000179806    -0.000033056211     0.000006640647
      22       -0.000017383615     0.000007985027     0.000022707107
      23        0.000002582154     0.000025864192    -0.000007626290
      24       -0.000019090081    -0.000025997496    -0.000016044865
      25        0.000015122908     0.000023094938     0.000013563068
      26       -0.000010553005    -0.000001713777     0.000004075229
      27        0.000006176688    -0.000040412393     0.000006962651

  **** Optimization is complete! (in 10 steps) ****
    Final optimized geometry and variables:
    Molecular point group: c1

    Geometry (in Angstrom), charge = 0, multiplicity = 1:

    H            2.190649144410     1.514703071724    -1.653579773299
    O            2.970239785388     1.031915618899    -1.851301805907
    C            3.125657964455    -0.037715444736    -0.957452326027
    C            2.164363345078    -1.197263917183    -1.185179604954
    H            4.135911729545    -0.393213857229    -1.108603016795
    H            3.063945680100     0.309767785303     0.072009784175
    C            0.721461739758    -1.060669211661    -0.661940108203
    H            2.161892668456    -1.458844198425    -2.238278030458
    H            2.599057746498    -2.061279753857    -0.688093992198
    C            0.078723492657     0.325079498521    -0.755624922403
    H            0.714595384699    -1.364925101464     0.379378456886
    H            0.096682191136    -1.776803153372    -1.186538920972
    C           -1.385552716690     0.370706119763    -0.310237903230
    H            0.643454319973     1.033923699377    -0.154408511341
    H            0.125140187662     0.672747887949    -1.784064046267
    C           -1.620931817497     0.107512390848     1.176067254021
    H           -1.785240226086     1.351180963292    -0.554206723768
    H           -1.958289331797    -0.342818072660    -0.897590882829
    C           -3.082286527270     0.272862798149     1.585309853382
    H           -1.007103329285     0.788323976499     1.762346974162
    H           -1.296409705987    -0.895380550805     1.434814233692
    C           -3.323879367342     0.006142951742     3.067333804798
    H           -3.411531256629     1.279444407940     1.342442477043
    H           -3.698136644872    -0.399280814864     0.993827404237
    H           -2.746359402248     0.684798475469     3.686388044392
    H           -4.369211217475     0.133661410933     3.324184283635
    H           -3.039138610192    -1.006167049267     3.334617944462

  Mulliken Charges: (a.u.)
   Center  Symbol    Alpha    Beta     Spin     Total
       1     H     0.38887  0.38887  0.00000  0.22225
       2     O     4.20711  4.20711  0.00000 -0.41423
       3     C     2.98608  2.98608  0.00000  0.02784
       4     C     3.09834  3.09834  0.00000 -0.19669
       5     H     0.44416  0.44416  0.00000  0.11168
       6     H     0.46808  0.46808  0.00000  0.06384
       7     C     3.09869  3.09869  0.00000 -0.19737
       8     H     0.44865  0.44865  0.00000  0.10270
       9     H     0.45245  0.45245  0.00000  0.09510
      10     C     3.10979  3.10979  0.00000 -0.21958
      11     H     0.45119  0.45119  0.00000  0.09763
      12     H     0.44734  0.44734  0.00000  0.10532
      13     C     3.10127  3.10127  0.00000 -0.20254
      14     H     0.45718  0.45718  0.00000  0.08565
      15     H     0.44416  0.44416  0.00000  0.11168
      16     C     3.08852  3.08852  0.00000 -0.17703
      17     H     0.44747  0.44747  0.00000  0.10505
      18     H     0.45192  0.45192  0.00000  0.09616
      19     C     3.08477  3.08477  0.00000 -0.16953
      20     H     0.45545  0.45545  0.00000  0.08909
      21     H     0.45250  0.45250  0.00000  0.09499
      22     C     3.14961  3.14961  0.00000 -0.29922
      23     H     0.45376  0.45376  0.00000  0.09248
      24     H     0.45411  0.45411  0.00000  0.09177
      25     H     0.45516  0.45516  0.00000  0.08967
      26     H     0.44805  0.44805  0.00000  0.10389
      27     H     0.45531  0.45531  0.00000  0.08939

   Total alpha = 37.00000, Total beta = 37.00000, Total charge = -0.00000

*** Psi4 exiting successfully. Buy a developer a beer!
