  ==> Input File <==

--------------------------------------------------------------------------
set {
	reference rhf
	basis cc-pvtz
}

set_num_threads( 4 )
memory 2 gb

molecule MOL {
0 1

H	 -1.988505	 1.660668	 -1.301087
C	 -0.979431	 1.272720	 -1.348378
C	 -0.600949	 0.658697	 -0.000002
H	 -0.311610	 2.084209	 -1.604476
H	 -0.932850	 0.533174	 -2.136406
C	 0.763408	 0.112229	 -0.000006
H	 -0.659498	 1.397211	 0.788733
H	 -1.277239	 -0.145087	 0.259800
N	 1.806008	 -0.317179	 0.000007

	symmetry c1
}
set optking {
	frozen_dihedral = ("
		7 3 6 9
	")
}

ee = optimize('scf')
oeprop('DIPOLE', 'QUADRUPOLE', 'MULLIKEN_CHARGES')
f=open( 'psi4out.xyz', 'w' )
f.write( "9  " )
f.write( str(ee) + "\n" )
f.write( MOL.save_string_xyz() )
f.close()
--------------------------------------------------------------------------

    Molecular point group: c1
  Charge       = 0
  Multiplicity = 1
  Basis Set: CC-PVTZ
  Basis Set:
  @DF-RHF Final Energy:  -171.02344903869283
    Total Energy =                       -171.0234490386928599
    Molecular point group: c1
  Basis Set: CC-PVTZ
  Basis Set:
  Basis Set: CC-PVTZ
  Basis Set:
  @DF-RHF Final Energy:  -170.50312465980801
    Total Energy =                       -170.5031246598080088
  Basis Set: CC-PVTZ
  Basis Set:
  Basis Set: CC-PVTZ
  Basis Set:
  @DF-RHF Final Energy:  -170.51379922603829
    Total Energy =                       -170.5137992260382305
  Basis Set: CC-PVTZ
  Basis Set:
  Basis Set: CC-PVTZ
  Basis Set:
  @DF-RHF Final Energy:  -170.51919689532423
    Total Energy =                       -170.5191968953241428
  Basis Set: CC-PVTZ
  Basis Set:
  @DF-RHF Final Energy:  -170.52214758552589
    Total Energy =                       -170.5221475855259428
  @DF-RHF Final Energy:  -170.52769107238839
    Total Energy =                       -170.5276910723883361
  @DF-RHF Final Energy:  -170.54019344346545
    Total Energy =                       -170.5401934434653981
  @DF-RHF Final Energy:  -170.55860705201724
    Total Energy =                       -170.5586070520172939
  @DF-RHF Final Energy:  -170.83897977106730
    Total Energy =                       -170.8389797710674429
  @DF-RHF Final Energy:  -170.96020004881765
    Total Energy =                       -170.9602000488176259
  @DF-RHF Final Energy:  -171.00989790601017
    Total Energy =                       -171.0098979060101669
  @DF-RHF Final Energy:  -171.02266337159210
    Total Energy =                       -171.0226633715919604
  @DF-RHF Final Energy:  -171.01650095841930
    Total Energy =                       -171.0165009584193285
  @DF-RHF Final Energy:  -171.01874160366094
    Total Energy =                       -171.0187416036609989
  @DF-RHF Final Energy:  -171.02174417994985
    Total Energy =                       -171.0217441799498488
  @DF-RHF Final Energy:  -171.02276998257796
    Total Energy =                       -171.0227699825779268
  @DF-RHF Final Energy:  -171.02325531943436
    Total Energy =                       -171.0232553194342131
  @DF-RHF Final Energy:  -171.02327223483130
    Total Energy =                       -171.0232722348314383
  @DF-RHF Final Energy:  -171.02342832830794
    Total Energy =                       -171.0234283283078867
  @DF-RHF Final Energy:  -171.02181732843451
    Total Energy =                       -171.0218173284345085
  @DF-RHF Final Energy:  -171.02277643030081
    Total Energy =                       -171.0227764303007802
  @DF-RHF Final Energy:  -171.02263841718047
    Total Energy =                       -171.0226384171805023
  @DF-RHF Final Energy:  -171.02276678876819
    Total Energy =                       -171.0227667887681378
  @DF-RHF Final Energy:  -171.02325574044681
    Total Energy =                       -171.0232557404467002
  @DF-RHF Final Energy:  -171.02102991572556
    Total Energy =                       -171.0210299157255918
  @DF-RHF Final Energy:  -171.02285980151441
    Total Energy =                       -171.0228598015144712
  @DF-RHF Final Energy:  -171.02069714806106
    Total Energy =                       -171.0206971480610889
  @DF-RHF Final Energy:  -171.02079846677202
    Total Energy =                       -171.0207984667720211
  @DF-RHF Final Energy:  -171.02263592084117
    Total Energy =                       -171.0226359208411964
  @DF-RHF Final Energy:  -171.02336099838078
    Total Energy =                       -171.0233609983808947
  @DF-RHF Final Energy:  -171.02345552823573
    Total Energy =                       -171.0234555282357860
  @DF-RHF Final Energy:  -170.98099305925052
    Total Energy =                       -170.9809930592505225
  @DF-RHF Final Energy:  -170.99697707479868
    Total Energy =                       -170.9969770747986502
  @DF-RHF Final Energy:  -171.01740446969629
    Total Energy =                       -171.0174044696963449
  @DF-RHF Final Energy:  -171.02075092356108
    Total Energy =                       -171.0207509235610814
  @DF-RHF Final Energy:  -171.02317288749697
    Total Energy =                       -171.0231728874969122
  Basis Set: CC-PVTZ
  Basis Set:
  @DF-RHF Final Energy:  -171.02285566297897
    Total Energy =                       -171.0228556629790546
  Basis Set: CC-PVTZ
  Basis Set:
  Basis Set: CC-PVTZ
  Basis Set:
  @DF-RHF Final Energy:  -171.02340403053432
    Total Energy =                       -171.0234040305343797
  Basis Set: CC-PVTZ
  Basis Set:
  Basis Set: CC-PVTZ
  Basis Set:
  @DF-RHF Final Energy:  -171.02327937441555
    Total Energy =                       -171.0232793744156652
  Basis Set: CC-PVTZ
  Basis Set:
  Charge       = 0
  Multiplicity = 1
  Basis Set: CC-PVTZ
  Basis Set:

    Orbital Energies (a.u.)
    -----------------------

    Doubly Occupied:

       1A    -15.559422     2A    -11.283018     3A    -11.264166
       4A    -11.244374     5A     -1.225374     6A     -1.084005
       7A     -0.913364     8A     -0.700116     9A     -0.661460
      10A     -0.590008    11A     -0.563447    12A     -0.545028
      13A     -0.539710    14A     -0.462007    15A     -0.461823

  @DF-RHF Final Energy:  -171.02289432530665

   => Energetics <=

    Nuclear Repulsion Energy =            103.5851348260944746
    One-Electron Energy =                -435.0214167003690022
    Two-Electron Energy =                 160.4133875489679895
    DFT Exchange-Correlation Energy =       0.0000000000000000
    Empirical Dispersion Energy =           0.0000000000000000
    PCM Polarization Energy =               0.0000000000000000
    EFP Energy =                            0.0000000000000000
    Total Energy =                       -171.0228943253065381
    Molecular point group: c1
  Basis Set: CC-PVTZ
  Basis Set:

  -Total Gradient:
     Atom            X                  Y                   Z
    ------   -----------------  -----------------  -----------------
       1        0.000197368749    -0.000010673051    -0.000150357086
       2       -0.001097620716     0.000045316840     0.000124254079
       3       -0.001197214038     0.003757054852    -0.002613207762
       4       -0.000035977723     0.000015313125    -0.000062221564
       5        0.000046181814     0.000471829231     0.000767182640
       6       -0.020725734739     0.000722689129     0.007719284614
       7       -0.000042796133    -0.000512677811    -0.001174129271
       8        0.000862635955    -0.000080715408    -0.000171623944
       9        0.021993156829    -0.004408136907    -0.004439181705

    Molecular point group: c1

    Geometry (in Angstrom), charge = 0, multiplicity = 1:

    H           -2.202789296470     1.173612554311    -0.926684970695
    C           -1.190116921064     0.788522173216    -0.994617748461
    C           -0.757339490579     0.189479584418     0.349742276466
    H           -0.532087227020     1.607896374717    -1.252216606216
    H           -1.161446678243     0.055543257015    -1.808349264850
    C            0.562181461945    -0.376722219242     0.279392202010
    H           -0.798042274669     0.915053330172     1.174050228621
    H           -1.422941958113    -0.626545991587     0.615942920266
    N            1.627390882171    -0.740221153249     0.471342973861

  Mulliken Charges: (a.u.)
   Center  Symbol    Alpha    Beta     Spin     Total
       1     H     0.44619  0.44619  0.00000  0.10762
       2     C     3.13432  3.13432  0.00000 -0.26863
       3     C     3.07885  3.07885  0.00000 -0.15771
       4     H     0.44458  0.44458  0.00000  0.11084
       5     H     0.44465  0.44465  0.00000  0.11069
       6     C     3.04158  3.04158  0.00000 -0.08316
       7     H     0.43188  0.43188  0.00000  0.13624
       8     H     0.43274  0.43274  0.00000  0.13453
       9     N     3.54521  3.54521  0.00000 -0.09042

   Total alpha = 15.00000, Total beta = 15.00000, Total charge =  0.00000
