  ==> Input File <==

--------------------------------------------------------------------------
set {
	reference rhf
	basis cc-pvtz
}

set_num_threads( 4 )
memory 2 gb

molecule MOL {
0 1

H	 -1.528165	 2.952932	 2.119516
O	 -1.295161	 2.136214	 1.718596
C	 -0.322206	 2.344474	 0.727635
C	 0.027642	 1.012027	 0.090274
H	 0.575432	 2.775647	 1.163642
H	 -0.686728	 3.042555	 -0.020876
C	 -1.138737	 0.285728	 -0.581921
H	 0.444587	 0.371587	 0.860663
H	 0.818228	 1.186375	 -0.635531
C	 -1.933983	 -0.631436	 0.343653
H	 -0.763151	 -0.285569	 -1.422081
H	 -1.808359	 1.035291	 -0.992333
H	 -2.789188	 -1.049673	 -0.174718
H	 -1.335629	 -1.461368	 0.700418
H	 -2.305435	 -0.092167	 1.209725

	symmetry c1
}
set optking {
	frozen_dihedral = ("
		8 4 7 11
	")
}

ee = optimize('scf')
oeprop('DIPOLE', 'QUADRUPOLE', 'MULLIKEN_CHARGES')
f=open( 'psi4out.xyz', 'w' )
f.write( "15  " )
f.write( str(ee) + "\n" )
f.write( MOL.save_string_xyz() )
f.close()
--------------------------------------------------------------------------

    Molecular point group: c1
  Charge       = 0
  Multiplicity = 1
  Basis Set: CC-PVTZ
  Basis Set:
  @DF-RHF Final Energy:  -232.23516892065771
    Total Energy =                       -232.2351689206579408
    Molecular point group: c1
  Basis Set: CC-PVTZ
  Basis Set:
  Basis Set: CC-PVTZ
  Basis Set:
  @DF-RHF Final Energy:  -232.23559426878651
    Total Energy =                       -232.2355942687865991
  Basis Set: CC-PVTZ
  Basis Set:
  Basis Set: CC-PVTZ
  Basis Set:
  @DF-RHF Final Energy:  -232.23563543908372
    Total Energy =                       -232.2356354390840920
  Basis Set: CC-PVTZ
  Basis Set:
  Basis Set: CC-PVTZ
  Basis Set:
  @DF-RHF Final Energy:  -232.23563834121202
    Total Energy =                       -232.2356383412120522
  Basis Set: CC-PVTZ
  Basis Set:
  Charge       = 0
  Multiplicity = 1
  Basis Set: CC-PVTZ
  Basis Set:

    Orbital Energies (a.u.)
    -----------------------

    Doubly Occupied:

       1A    -20.547605     2A    -11.266715     3A    -11.211454
       4A    -11.208985     5A    -11.194310     6A     -1.365522
       7A     -1.062960     8A     -0.972288     9A     -0.859438
      10A     -0.782419    11A     -0.708400    12A     -0.645214
      13A     -0.603327    14A     -0.587336    15A     -0.548742
      16A     -0.537491    17A     -0.509474    18A     -0.471512
      19A     -0.466948    20A     -0.451981    21A     -0.432513

  @DF-RHF Final Energy:  -232.23563867333138

   => Energetics <=

    Nuclear Repulsion Energy =            192.1837831603456266
    One-Electron Energy =                -695.9695691995661946
    Two-Electron Energy =                 271.5501473658890745
    DFT Exchange-Correlation Energy =       0.0000000000000000
    Empirical Dispersion Energy =           0.0000000000000000
    PCM Polarization Energy =               0.0000000000000000
    EFP Energy =                            0.0000000000000000
    Total Energy =                       -232.2356386733314935
    Molecular point group: c1
  Basis Set: CC-PVTZ
  Basis Set:

  -Total Gradient:
     Atom            X                  Y                   Z
    ------   -----------------  -----------------  -----------------
       1        0.000000937066     0.000005712860     0.000005640939
       2        0.000014783977     0.000006352782    -0.000013837797
       3       -0.000009493160     0.000005658332    -0.000009524787
       4        0.001100581762    -0.000453799607    -0.001348515439
       5       -0.000015720269    -0.000012113792     0.000004801862
       6       -0.000004277970     0.000006410296     0.000005551676
       7        0.000015538787    -0.001251355585     0.001252538296
       8       -0.000895582331     0.000557912990     0.000947470596
       9       -0.000004044423     0.000005375756    -0.000002571054
      10       -0.000019670942    -0.000013687784    -0.000017508882
      11       -0.000186247452     0.001119431673    -0.000839351578
      12       -0.000008414606    -0.000003136154     0.000002061154
      13        0.000015675609     0.000007232044     0.000008217275
      14        0.000005644435     0.000009188419    -0.000011811198
      15       -0.000009710481     0.000010817772     0.000016838942

  **** Optimization is complete! (in 5 steps) ****
    Final optimized geometry and variables:
    Molecular point group: c1

    Geometry (in Angstrom), charge = 0, multiplicity = 1:

    H           -0.532777163205     1.924733939741     1.628355671624
    O           -0.305547369846     1.095067946508     1.251361034974
    C            0.629994932486     1.274877759803     0.219892697232
    C            0.972148086309    -0.064605936809    -0.406375828122
    H            1.536896141241     1.729995205348     0.610658998780
    H            0.229129164741     1.941470989534    -0.541079982043
    C           -0.203120232702    -0.775659670679    -1.093937356285
    H            1.391732027413    -0.703198120822     0.364886558902
    H            1.760648311448     0.118724887696    -1.129748630709
    C           -0.999828276007    -1.708593570125    -0.186074611681
    H            0.177421856765    -1.342350764478    -1.937840293893
    H           -0.870208807011    -0.030121216487    -1.518147347510
    H           -1.810870829577    -2.176837670918    -0.733258221201
    H           -0.366702273186    -2.499490321591     0.203271837197
    H           -1.419150581972    -1.173371422250     0.654199601056

  Mulliken Charges: (a.u.)
   Center  Symbol    Alpha    Beta     Spin     Total
       1     H     0.39694  0.39694  0.00000  0.20613
       2     O     4.19656  4.19656  0.00000 -0.39312
       3     C     2.97162  2.97162  0.00000  0.05677
       4     C     3.09574  3.09574  0.00000 -0.19147
       5     H     0.46612  0.46612  0.00000  0.06775
       6     H     0.47478  0.47478  0.00000  0.05045
       7     C     3.08337  3.08337  0.00000 -0.16675
       8     H     0.45333  0.45333  0.00000  0.09334
       9     H     0.44816  0.44816  0.00000  0.10368
      10     C     3.14623  3.14623  0.00000 -0.29247
      11     H     0.45073  0.45073  0.00000  0.09853
      12     H     0.45842  0.45842  0.00000  0.08316
      13     H     0.45332  0.45332  0.00000  0.09337
      14     H     0.45940  0.45940  0.00000  0.08121
      15     H     0.44529  0.44529  0.00000  0.10942

   Total alpha = 21.00000, Total beta = 21.00000, Total charge = -0.00000
