                              Psi4 1.0.54 Driver

  ==> Input File <==

--------------------------------------------------------------------------
set {
	reference rhf
	basis cc-pvtz
}

set_num_threads( 4 )
memory 2 gb

molecule MOL {
0 1

H	 2.614283	 2.028610	 0.296620
O	 3.358864	 1.662087	 -0.142800
C	 3.565468	 0.338079	 0.273842
C	 2.533667	 -0.637565	 -0.272227
H	 4.548038	 0.064914	 -0.086598
H	 3.593945	 0.282242	 1.360360
C	 1.114816	 -0.402372	 0.240993
H	 2.544552	 -0.580764	 -1.356576
H	 2.850574	 -1.642962	 -0.005497
C	 1.079382	 0.015325	 1.710385
H	 0.530933	 -1.307079	 0.108367
H	 0.637480	 0.369260	 -0.360688
C	 -0.312664	 0.336062	 2.257731
H	 1.531020	 -0.767469	 2.314938
H	 1.707642	 0.892982	 1.834791
C	 -1.261632	 -0.857478	 2.350808
H	 -0.198491	 0.764585	 3.249629
H	 -0.768664	 1.111110	 1.645751
C	 -2.600960	 -0.506964	 2.994042
H	 -0.785611	 -1.649149	 2.925377
H	 -1.444877	 -1.267186	 1.362089
C	 -3.552252	 -1.695510	 3.085125
H	 -2.427244	 -0.108095	 3.989684
H	 -3.073972	 0.289726	 2.426056
H	 -3.120911	 -2.497726	 3.674728
H	 -4.490832	 -1.413189	 3.548233
H	 -3.776272	 -2.094348	 2.101207

	symmetry c1
}
set optking {
	frozen_dihedral = ("
		10 7 4 8
	")
}

ee,wfn = optimize('scf', return_wfn=True)
oeprop( wfn, 'DIPOLE', 'QUADRUPOLE', 'MULLIKEN_CHARGES')
f=open( 'psi4out.xyz', 'w' )
f.write( "27  " )
f.write( str(ee) + "\n" )
f.write( MOL.save_string_xyz() )
f.close()
--------------------------------------------------------------------------

    Molecular point group: c1
  Charge       = 0
  Multiplicity = 1
  Basis Set: CC-PVTZ
  Basis Set:
  @DF-RHF Final Energy:  -388.42091284056443
    Total Energy =                       -388.4209128405647107
    Molecular point group: c1
  Basis Set: CC-PVTZ
  Basis Set:
  Basis Set: CC-PVTZ
  Basis Set:
  @DF-RHF Final Energy:  -388.36012647263908
    Total Energy =                       -388.3601264726387399
  Basis Set: CC-PVTZ
  Basis Set:
  Basis Set: CC-PVTZ
  Basis Set:
  @DF-RHF Final Energy:  -388.41801463210737
    Total Energy =                       -388.4180146321073153
  Basis Set: CC-PVTZ
  Basis Set:
  Basis Set: CC-PVTZ
  Basis Set:
  @DF-RHF Final Energy:  -388.42282218576599
    Total Energy =                       -388.4228221857657672
  Basis Set: CC-PVTZ
  Basis Set:
  @DF-RHF Final Energy:  -388.42324212409704
    Total Energy =                       -388.4232421240968733
  Basis Set: CC-PVTZ
  Basis Set:
  @DF-RHF Final Energy:  -388.42329642331140
    Total Energy =                       -388.4232964233118537
  Basis Set: CC-PVTZ
  Basis Set:
  Basis Set: CC-PVTZ
  Basis Set:
  @DF-RHF Final Energy:  -388.42331578209468
    Total Energy =                       -388.4233157820948463
  Basis Set: CC-PVTZ
  Basis Set:
  Basis Set: CC-PVTZ
  Basis Set:
  @DF-RHF Final Energy:  -388.42333323469535
    Total Energy =                       -388.4233332346949510
  Basis Set: CC-PVTZ
  Basis Set:
  Charge       = 0
  Multiplicity = 1
  Basis Set: CC-PVTZ
  Basis Set:

    Orbital Energies (a.u.)
    -----------------------

    Doubly Occupied:

       1A    -20.544682     2A    -11.263076     3A    -11.219580
       4A    -11.217228     5A    -11.216205     6A    -11.215079
       7A    -11.214103     8A    -11.213441     9A    -11.208161
      10A     -1.362314    11A     -1.097509    12A     -1.061959
      13A     -1.012557    14A     -0.948707    15A     -0.894804
      16A     -0.829296    17A     -0.799170    18A     -0.774185
      19A     -0.692571    20A     -0.651889    21A     -0.646761
      22A     -0.612824    23A     -0.602452    24A     -0.584906
      25A     -0.572537    26A     -0.567912    27A     -0.544448
      28A     -0.527220    29A     -0.517950    30A     -0.498224
      31A     -0.483933    32A     -0.472589    33A     -0.465307
      34A     -0.461474    35A     -0.456532    36A     -0.442337
      37A     -0.425195

  @DF-RHF Final Energy:  -388.42333340697297

   => Energetics <=

    Nuclear Repulsion Energy =            465.0509443958175666
    One-Electron Energy =               -1448.3103195825076455
    Two-Electron Energy =                 594.8360417797172204
    DFT Exchange-Correlation Energy =       0.0000000000000000
    Empirical Dispersion Energy =           0.0000000000000000
    PCM Polarization Energy =               0.0000000000000000
    EFP Energy =                            0.0000000000000000
    Total Energy =                       -388.4233334069728016
    Molecular point group: c1
  Basis Set: CC-PVTZ
  Basis Set:

  -Total Gradient:
     Atom            X                  Y                   Z
    ------   -----------------  -----------------  -----------------
       1       -0.000019383272     0.000018707157     0.000019265175
       2        0.000003828383    -0.000016277732    -0.000017918150
       3       -0.000006726696     0.000013044118    -0.000019572136
       4       -0.000225614655    -0.005208978511    -0.000252171818
       5        0.000019602841    -0.000012818967    -0.000005835706
       6       -0.000001442717    -0.000003141643     0.000022292318
       7        0.001103514805    -0.004329844283     0.002034077187
       8       -0.000106846857     0.005649219402    -0.000300209759
       9        0.000010040932    -0.000007526029    -0.000004365871
      10       -0.000781722979     0.003897504788    -0.001465152149
      11        0.000005754851     0.000001177801     0.000000284698
      12        0.000001256479     0.000008469928     0.000003990842
      13        0.000003585935    -0.000014399570    -0.000000071083
      14        0.000007950681     0.000002064772    -0.000005635917
      15       -0.000001084792    -0.000002945042    -0.000002772514
      16       -0.000012320277     0.000012917021    -0.000013511077
      17       -0.000003628134     0.000000582656    -0.000002882901
      18        0.000001971179    -0.000003231918     0.000000311692
      19        0.000003098889    -0.000007665009     0.000003095266
      20        0.000000405523     0.000000132635    -0.000006187628
      21       -0.000000433997     0.000000832053     0.000002556287
      22       -0.000002669088     0.000004827318     0.000005442048
      23       -0.000003995639     0.000002257112    -0.000000610391
      24        0.000002650881    -0.000003126488     0.000000697119
      25        0.000000204885    -0.000003392085    -0.000000296405
      26       -0.000000562405    -0.000002216428     0.000001752635
      27        0.000002565246     0.000003826945     0.000003428235

  **** Optimization is complete! (in 9 steps) ****
    Final optimized geometry and variables:
    Molecular point group: c1

    Geometry (in Angstrom), charge = 0, multiplicity = 1:

    H            1.384152545255     2.549202399008    -1.718178094218
    O            2.125669830340     2.301264334489    -2.238408432241
    C            2.703699852511     1.124298171866    -1.736413522432
    C            1.817172574403    -0.101688504732    -1.918164444919
    H            3.615941763820     0.983185991002    -2.300320202446
    H            2.990254094084     1.253325621166    -0.697175426659
    C            0.475734861094    -0.086314508084    -1.166520938357
    H            1.611734909294    -0.162466727192    -2.981629218179
    H            2.393579516205    -0.977068665007    -1.633411863304
    C            0.513387295617     0.462034545504     0.261512739794
    H            0.081161482960    -1.094887624683    -1.166459724404
    H           -0.236391608054     0.507621533054    -1.734225209797
    C           -0.831399247103     0.406494127910     0.991363077654
    H            1.257372928710    -0.076010455757     0.845105940906
    H            0.841480902932     1.496402379395     0.246946566324
    C           -1.311697928743    -0.996674149700     1.357484681647
    H           -0.748893624418     0.990095167782     1.903981361682
    H           -1.588432280268     0.899622304734     0.385710840135
    C           -2.611429119279    -0.991928275764     2.158198421297
    H           -0.538620913819    -1.498783455066     1.935034567211
    H           -1.455755084103    -1.590163092189     0.460216018427
    C           -3.093448238853    -2.390915966262     2.527181200940
    H           -2.472906208616    -0.408512918094     3.064292011869
    H           -3.383339736162    -0.485009306937     1.585496950319
    H           -2.356690396435    -2.912696814286     3.128972533760
    H           -4.015769736607    -2.351607121566     3.095267312946
    H           -3.276874588076    -2.988537160125     1.640412820010

  Mulliken Charges: (a.u.)
   Center  Symbol    Alpha    Beta     Spin     Total
       1     H     0.39180  0.39180  0.00000  0.21640
       2     O     4.20884  4.20884  0.00000 -0.41769
       3     C     2.98508  2.98508  0.00000  0.02983
       4     C     3.09560  3.09560  0.00000 -0.19120
       5     H     0.44352  0.44352  0.00000  0.11297
       6     H     0.46653  0.46653  0.00000  0.06693
       7     C     3.11419  3.11419  0.00000 -0.22838
       8     H     0.44758  0.44758  0.00000  0.10484
       9     H     0.45299  0.45299  0.00000  0.09402
      10     C     3.10899  3.10899  0.00000 -0.21798
      11     H     0.44250  0.44250  0.00000  0.11499
      12     H     0.44905  0.44905  0.00000  0.10191
      13     C     3.09701  3.09701  0.00000 -0.19402
      14     H     0.44986  0.44986  0.00000  0.10028
      15     H     0.44873  0.44873  0.00000  0.10254
      16     C     3.08719  3.08719  0.00000 -0.17438
      17     H     0.44759  0.44759  0.00000  0.10481
      18     H     0.45361  0.45361  0.00000  0.09278
      19     C     3.08464  3.08464  0.00000 -0.16927
      20     H     0.45501  0.45501  0.00000  0.08998
      21     H     0.45329  0.45329  0.00000  0.09341
      22     C     3.14968  3.14968  0.00000 -0.29936
      23     H     0.45395  0.45395  0.00000  0.09210
      24     H     0.45419  0.45419  0.00000  0.09161
      25     H     0.45516  0.45516  0.00000  0.08968
      26     H     0.44811  0.44811  0.00000  0.10377
      27     H     0.45529  0.45529  0.00000  0.08942

   Total alpha = 37.00000, Total beta = 37.00000, Total charge = -0.00000

*** Psi4 exiting successfully. Buy a developer a beer!
