  ==> Input File <==

--------------------------------------------------------------------------
set {
	reference rhf
	basis 6-31G*
}

set_num_threads( 1 )
memory 2 gb

molecule MOL {
0 1

O	 3.225979	 0.970355	 -0.599647
C	 2.701189	 0.057885	 -0.047330
C	 1.245376	 -0.013843	 0.345420
O	 3.347903	 -1.046386	 0.304773
C	 0.455112	 1.231400	 -0.050772
H	 0.838542	 -0.913825	 -0.103701
H	 1.208210	 -0.175333	 1.419774
C	 -0.998893	 1.219485	 0.433193
H	 0.482531	 1.345121	 -1.130325
H	 0.957290	 2.103070	 0.354729
C	 -1.174103	 1.063775	 1.946522
H	 -1.512013	 0.398484	 -0.062177
H	 -1.498165	 2.129502	 0.103639
C	 -2.640655	 0.947069	 2.366765
H	 -0.633105	 0.179552	 2.280123
H	 -0.726733	 1.909111	 2.464441
C	 -2.828116	 0.796294	 3.877479
H	 -3.092610	 0.094560	 1.862583
H	 -3.184476	 1.826011	 2.024100
C	 -4.295245	 0.676529	 4.288441
H	 -2.284501	 -0.080984	 4.221728
H	 -2.380826	 1.649657	 4.382932
H	 -4.395466	 0.571061	 5.364284
H	 -4.762380	 -0.188660	 3.826459
H	 -4.859476	 1.555076	 3.988319
C	 4.728119	 -1.109107	 -0.004993
H	 4.882018	 -1.033965	 -1.071845
H	 5.068212	 -2.067527	 0.355250
H	 5.265056	 -0.311663	 0.488280

	symmetry c1
}
set optking {
	frozen_dihedral = ("
		21 17 14 11,
		17 14 11 15,
		15 11 8 5,
		6 3 5 9,
		2 4 26 27,
		1 2 4 26,
		6 3 2 1
	")
}

ee = energy('scf')
oeprop('DIPOLE', 'QUADRUPOLE', 'MULLIKEN_CHARGES')
f=open( 'psi4out.xyz', 'w' )
f.write( "29  " )
f.write( str(ee) + "\n" )
f.write( MOL.save_string_xyz() )
f.close()
--------------------------------------------------------------------------

    Molecular point group: c1

    Geometry (in Angstrom), charge = 0, multiplicity = 1:

       Center              X                  Y                   Z               Mass
    ------------   -----------------  -----------------  -----------------  -----------------
           O          2.841796539115     0.551224924309    -1.764187454688    15.994914619560
           C          2.317006539115    -0.361245075691    -1.211870454688    12.000000000000
           C          0.861193539115    -0.432973075691    -0.819120454688    12.000000000000
           O          2.963720539115    -1.465516075691    -0.859767454688    15.994914619560
           C          0.070929539115     0.812269924309    -1.215312454688    12.000000000000
           H          0.454359539115    -1.332955075691    -1.268241454688     1.007825032070
           H          0.824027539115    -0.594463075691     0.255233545312     1.007825032070
           C         -1.383075460885     0.800354924309    -0.731347454688    12.000000000000
           H          0.098348539115     0.925990924309    -2.294865454688     1.007825032070
           H          0.573107539115     1.683939924309    -0.809811454688     1.007825032070
           C         -1.558285460885     0.644644924309     0.781981545312    12.000000000000
           H         -1.896195460885    -0.020646075691    -1.226717454688     1.007825032070
           H         -1.882347460885     1.710371924309    -1.060901454688     1.007825032070
           C         -3.024837460885     0.527938924309     1.202224545312    12.000000000000
           H         -1.017287460885    -0.239578075691     1.115582545312     1.007825032070
           H         -1.110915460885     1.489980924309     1.299900545312     1.007825032070
           C         -3.212298460885     0.377163924309     2.712938545312    12.000000000000
           H         -3.476792460885    -0.324570075691     0.698042545312     1.007825032070
           H         -3.568658460885     1.406880924309     0.859559545312     1.007825032070
           C         -4.679427460885     0.257398924309     3.123900545312    12.000000000000
           H         -2.668683460885    -0.500114075691     3.057187545312     1.007825032070
           H         -2.765008460885     1.230526924309     3.218391545312     1.007825032070
           H         -4.779648460885     0.151930924309     4.199743545312     1.007825032070
           H         -5.146562460885    -0.607790075691     2.661918545312     1.007825032070
           H         -5.243658460885     1.135945924309     2.823778545312     1.007825032070
           C          4.343936539115    -1.528237075691    -1.169533454688    12.000000000000
           H          4.497835539115    -1.453095075691    -2.236385454688     1.007825032070
           H          4.684029539115    -2.486657075691    -0.809290454688     1.007825032070
           H          4.880873539115    -0.730793075691    -0.676260454688     1.007825032070

  Charge       = 0
  Multiplicity = 1
  Basis Set: 6-31G*
  Basis Set:

    Orbital Energies (a.u.)
    -----------------------

    Doubly Occupied:

       1A    -20.603393     2A    -20.545065     3A    -11.372019
       4A    -11.280671     5A    -11.234623     6A    -11.219077
       7A    -11.217721     8A    -11.216206     9A    -11.216047
      10A    -11.214685    11A    -11.209238    12A     -1.469037
      13A     -1.362439    14A     -1.098855    15A     -1.066754
      16A     -1.019243    17A     -0.977130    18A     -0.928815
      19A     -0.862680    20A     -0.799140    21A     -0.790980
      22A     -0.762930    23A     -0.701614    24A     -0.682308
      25A     -0.672015    26A     -0.650368    27A     -0.629960
      28A     -0.605656    29A     -0.595053    30A     -0.579979
      31A     -0.567296    32A     -0.549784    33A     -0.532340
      34A     -0.530680    35A     -0.516983    36A     -0.511249
      37A     -0.497012    38A     -0.477801    39A     -0.469478
      40A     -0.462094    41A     -0.458302    42A     -0.455126
      43A     -0.441276    44A     -0.436031

  @DF-RHF Final Energy:  -501.04255533784703

   => Energetics <=

    Nuclear Repulsion Energy =            612.7849371297568268
    One-Electron Energy =               -1896.6763153016943306
    Two-Electron Energy =                 782.8488228340900150
    DFT Exchange-Correlation Energy =       0.0000000000000000
    Empirical Dispersion Energy =           0.0000000000000000
    PCM Polarization Energy =               0.0000000000000000
    EFP Energy =                            0.0000000000000000
    Total Energy =                       -501.0425553378474888

  Mulliken Charges: (a.u.)
   Center  Symbol    Alpha    Beta     Spin     Total
       1     O     4.28588  4.28588  0.00000 -0.57175
       2     C     2.60417  2.60417  0.00000  0.79166
       3     C     3.21160  3.21160  0.00000 -0.42320
       4     O     4.30746  4.30746  0.00000 -0.61492
       5     C     3.15318  3.15318  0.00000 -0.30635
       6     H     0.40091  0.40091  0.00000  0.19819
       7     H     0.39853  0.39853  0.00000  0.20294
       8     C     3.15571  3.15571  0.00000 -0.31142
       9     H     0.41075  0.41075  0.00000  0.17850
      10     H     0.41142  0.41142  0.00000  0.17717
      11     C     3.15680  3.15680  0.00000 -0.31361
      12     H     0.42464  0.42464  0.00000  0.15073
      13     H     0.41759  0.41759  0.00000  0.16482
      14     C     3.14977  3.14977  0.00000 -0.29955
      15     H     0.42370  0.42370  0.00000  0.15261
      16     H     0.42192  0.42192  0.00000  0.15615
      17     C     3.15152  3.15152  0.00000 -0.30304
      18     H     0.42390  0.42390  0.00000  0.15221
      19     H     0.42337  0.42337  0.00000  0.15325
      20     C     3.23937  3.23937  0.00000 -0.47875
      21     H     0.42337  0.42337  0.00000  0.15325
      22     H     0.42283  0.42283  0.00000  0.15434
      23     H     0.41919  0.41919  0.00000  0.16162
      24     H     0.42180  0.42180  0.00000  0.15639
      25     H     0.42153  0.42153  0.00000  0.15693
      26     C     3.09239  3.09239  0.00000 -0.18478
      27     H     0.40907  0.40907  0.00000  0.18187
      28     H     0.40852  0.40852  0.00000  0.18296
      29     H     0.40911  0.40911  0.00000  0.18179

   Total alpha = 44.00000, Total beta = 44.00000, Total charge =  0.00000
