  ==> Input File <==

--------------------------------------------------------------------------
set {
	reference rhf
	basis 6-31G*
}

set_num_threads( 1 )
memory 2 gb

molecule MOL {
0 1

H	 -2.009186	 0.885615	 -4.201575
C	 -1.350972	 0.773307	 -3.358411
C	 -1.315688	 1.749583	 -2.374141
C	 -0.540837	 -0.346875	 -3.259384
H	 -1.944501	 2.617843	 -2.452158
C	 -0.469097	 1.604476	 -1.290300
H	 -0.569548	 -1.102621	 -4.023340
C	 0.307397	 -0.494248	 -2.175338
H	 -0.428581	 2.349806	 -0.519253
C	 0.345096	 0.482433	 -1.187191
H	 0.936049	 -1.359469	 -2.094651
C	 1.239129	 0.373821	 0.000060
O	 1.970282	 -0.730723	 0.000018
O	 1.298197	 1.190016	 0.865621
C	 3.377318	 -0.566646	 -0.000065
H	 3.695437	 -0.028981	 -0.881264
H	 3.789299	 -1.563704	 0.000236
H	 3.695516	 -0.028316	 0.880770

	symmetry c1
}
set optking {
	frozen_dihedral = ("
		12 13 15 16,
		13 12 10 6
	")
}

ee = energy('scf')
oeprop('DIPOLE', 'QUADRUPOLE', 'MULLIKEN_CHARGES')
f=open( 'psi4out.xyz', 'w' )
f.write( "18  " )
f.write( str(ee) + "\n" )
f.write( MOL.save_string_xyz() )
f.close()
--------------------------------------------------------------------------

    Molecular point group: c1

    Geometry (in Angstrom), charge = 0, multiplicity = 1:

       Center              X                  Y                   Z               Mass
    ------------   -----------------  -----------------  -----------------  -----------------
           H         -2.586961363197     0.503111069907    -3.001400493385     1.007825032070
           C         -1.928747363197     0.390803069907    -2.158236493385    12.000000000000
           C         -1.893463363197     1.367079069907    -1.173966493385    12.000000000000
           C         -1.118612363197    -0.729378930093    -2.059209493385    12.000000000000
           H         -2.522276363197     2.235339069907    -1.251983493385     1.007825032070
           C         -1.046872363197     1.221972069907    -0.090125493385    12.000000000000
           H         -1.147323363197    -1.485124930093    -2.823165493385     1.007825032070
           C         -0.270378363197    -0.876751930093    -0.975163493385    12.000000000000
           H         -1.006356363197     1.967302069907     0.680921506615     1.007825032070
           C         -0.232679363197     0.099929069907     0.012983506615    12.000000000000
           H          0.358273636803    -1.741972930093    -0.894476493385     1.007825032070
           C          0.661353636803    -0.008682930093     1.200234506615    12.000000000000
           O          1.392506636803    -1.113226930093     1.200192506615    15.994914619560
           O          0.720421636803     0.807512069907     2.065795506615    15.994914619560
           C          2.799542636803    -0.949149930093     1.200109506615    12.000000000000
           H          3.117661636803    -0.411484930093     0.318910506615     1.007825032070
           H          3.211523636803    -1.946207930093     1.200410506615     1.007825032070
           H          3.117740636803    -0.410819930093     2.080944506615     1.007825032070

  Charge       = 0
  Multiplicity = 1
  Basis Set: 6-31G*
  Basis Set:

    Orbital Energies (a.u.)
    -----------------------

    Doubly Occupied:

       1A    -20.593372     2A    -20.549767     3A    -11.377942
       4A    -11.289978     5A    -11.247401     6A    -11.246733
       7A    -11.244808     8A    -11.242841     9A    -11.239189
      10A    -11.238192    11A     -1.467700    12A     -1.365191
      13A     -1.166547    14A     -1.046427    15A     -1.026416
      16A     -0.979600    17A     -0.865783    18A     -0.836306
      19A     -0.779079    20A     -0.739344    21A     -0.683092
      22A     -0.676257    23A     -0.667572    24A     -0.635046
      25A     -0.625455    26A     -0.603453    27A     -0.595525
      28A     -0.560322    29A     -0.526160    30A     -0.518618
      31A     -0.501741    32A     -0.496478    33A     -0.458988
      34A     -0.442214    35A     -0.346630    36A     -0.342555

  @DF-RHF Final Energy:  -457.33632277527681

   => Energetics <=

    Nuclear Repulsion Energy =            494.7878268825008945
    One-Electron Energy =               -1603.8028495319283593
    Two-Electron Energy =                 651.6786998741491743
    DFT Exchange-Correlation Energy =       0.0000000000000000
    Empirical Dispersion Energy =           0.0000000000000000
    PCM Polarization Energy =               0.0000000000000000
    EFP Energy =                            0.0000000000000000
    Total Energy =                       -457.3363227752782905

  Mulliken Charges: (a.u.)
   Center  Symbol    Alpha    Beta     Spin     Total
       1     H     0.39490  0.39490  0.00000  0.21020
       2     C     3.08967  3.08967  0.00000 -0.17933
       3     C     3.10695  3.10695  0.00000 -0.21391
       4     C     3.10676  3.10676  0.00000 -0.21353
       5     H     0.39507  0.39507  0.00000  0.20986
       6     C     3.08599  3.08599  0.00000 -0.17198
       7     H     0.39610  0.39610  0.00000  0.20780
       8     C     3.08887  3.08887  0.00000 -0.17774
       9     H     0.37586  0.37586  0.00000  0.24828
      10     C     3.07920  3.07920  0.00000 -0.15839
      11     H     0.38277  0.38277  0.00000  0.23446
      12     C     2.58632  2.58632  0.00000  0.82736
      13     O     4.31760  4.31760  0.00000 -0.63520
      14     O     4.27508  4.27508  0.00000 -0.55016
      15     C     3.09555  3.09555  0.00000 -0.19110
      16     H     0.41628  0.41628  0.00000  0.16744
      17     H     0.40484  0.40484  0.00000  0.19032
      18     H     0.40219  0.40219  0.00000  0.19562

   Total alpha = 36.00000, Total beta = 36.00000, Total charge = -0.00000
