                              Psi4 1.0.54 Driver

  ==> Input File <==

--------------------------------------------------------------------------
set {
	reference rhf
	basis cc-pvtz
}

set_num_threads( 4 )
memory 2 gb

molecule MOL {
0 1

H	 -3.069266	 1.153528	 -1.132452
O	 -3.458596	 0.315260	 -0.960865
C	 -3.176635	 -0.080824	 0.355601
C	 -1.763371	 0.265266	 0.799691
H	 -3.321825	 -1.153438	 0.379502
H	 -3.895468	 0.357385	 1.043382
C	 -0.673390	 -0.426948	 -0.013392
H	 -1.631049	 1.344913	 0.747560
H	 -1.664587	 -0.001624	 1.849167
C	 0.737842	 -0.043159	 0.423759
H	 -0.806103	 -0.190518	 -1.063345
H	 -0.797221	 -1.503753	 0.074146
C	 1.824000	 -0.743224	 -0.390623
H	 0.850588	 1.033777	 0.343840
H	 0.868587	 -0.286314	 1.476203
C	 3.255957	 -0.453067	 0.062319
H	 1.718250	 -0.470599	 -1.438164
H	 1.658105	 -1.815850	 -0.339904
C	 3.707029	 0.992337	 -0.133857
H	 3.928201	 -1.104096	 -0.488158
H	 3.362667	 -0.724561	 1.109374
H	 3.605811	 1.294044	 -1.171549
H	 4.748333	 1.111029	 0.143343
H	 3.129882	 1.683078	 0.468956

	symmetry c1
}
set optking {
	frozen_dihedral = ("
		1 2 3 5
	")
}

ee,wfn = optimize('scf', return_wfn=True)
oeprop( wfn, 'DIPOLE', 'QUADRUPOLE', 'MULLIKEN_CHARGES')
f=open( 'psi4out.xyz', 'w' )
f.write( "24  " )
f.write( str(ee) + "\n" )
f.write( MOL.save_string_xyz() )
f.close()
--------------------------------------------------------------------------

    Molecular point group: c1
  Charge       = 0
  Multiplicity = 1
  Basis Set: CC-PVTZ
  Basis Set:
  @DF-RHF Final Energy:  -349.37955911520248
    Total Energy =                       -349.3795591152020279
    Molecular point group: c1
  Basis Set: CC-PVTZ
  Basis Set:
  Basis Set: CC-PVTZ
  Basis Set:
  @DF-RHF Final Energy:  -349.37958651160631
    Total Energy =                       -349.3795865116061350
  Basis Set: CC-PVTZ
  Basis Set:
  Basis Set: CC-PVTZ
  Basis Set:
  @DF-RHF Final Energy:  -349.37959808985374
    Total Energy =                       -349.3795980898537437
  Basis Set: CC-PVTZ
  Basis Set:
  Basis Set: CC-PVTZ
  Basis Set:
  @DF-RHF Final Energy:  -349.37959955759976
    Total Energy =                       -349.3795995575997040
  Basis Set: CC-PVTZ
  Basis Set:
  Charge       = 0
  Multiplicity = 1
  Basis Set: CC-PVTZ
  Basis Set:

    Orbital Energies (a.u.)
    -----------------------

    Doubly Occupied:

       1A    -20.545009     2A    -11.265024     3A    -11.218922
       4A    -11.213784     5A    -11.213362     6A    -11.212659
       7A    -11.211643     8A    -11.206808     9A     -1.363151
      10A     -1.092461    11A     -1.051410    12A     -0.988357
      13A     -0.917992    14A     -0.853999    15A     -0.804551
      16A     -0.778935    17A     -0.670395    18A     -0.657257
      19A     -0.633435    20A     -0.624684    21A     -0.603748
      22A     -0.587724    23A     -0.559723    24A     -0.542098
      25A     -0.518254    26A     -0.513384    27A     -0.499399
      28A     -0.474948    29A     -0.469690    30A     -0.463980
      31A     -0.454776    32A     -0.454398    33A     -0.423289

  @DF-RHF Final Energy:  -349.37959962784180

   => Energetics <=

    Nuclear Repulsion Energy =            385.0623922228899119
    One-Electron Energy =               -1236.7054890611145765
    Two-Electron Energy =                 502.2634972103822406
    DFT Exchange-Correlation Energy =       0.0000000000000000
    Empirical Dispersion Energy =           0.0000000000000000
    PCM Polarization Energy =               0.0000000000000000
    EFP Energy =                            0.0000000000000000
    Total Energy =                       -349.3795996278424241
    Molecular point group: c1
  Basis Set: CC-PVTZ
  Basis Set:

  -Total Gradient:
     Atom            X                  Y                   Z
    ------   -----------------  -----------------  -----------------
       1        0.001711787090    -0.000901596188    -0.000653729994
       2       -0.001746530309     0.001073444826     0.000694597305
       3       -0.001618371647     0.000032417274     0.000385313174
       4       -0.000006596248     0.000025493868    -0.000006398297
       5        0.001651713895    -0.000202678386    -0.000423330840
       6        0.000015974569    -0.000014527307    -0.000005210141
       7       -0.000006134286    -0.000005065580    -0.000002230956
       8        0.000003916155    -0.000001084021    -0.000000971305
       9       -0.000001120447    -0.000005182764     0.000004817755
      10       -0.000009176414     0.000000135060     0.000002455023
      11       -0.000000322972    -0.000000256583     0.000007552426
      12       -0.000000832731    -0.000005191306     0.000001852396
      13        0.000002026762     0.000009286833    -0.000007337370
      14       -0.000005473547    -0.000006879168    -0.000000241827
      15        0.000001012762    -0.000001244623     0.000001378254
      16       -0.000003118897     0.000001959797     0.000005665139
      17       -0.000000708347     0.000001863701    -0.000000773644
      18        0.000002440615     0.000002111579    -0.000001262595
      19        0.000003581428    -0.000000456800    -0.000002123138
      20        0.000001020980    -0.000001492341     0.000001948552
      21       -0.000001293467     0.000002542853     0.000001593327
      22       -0.000001526586     0.000001514447    -0.000000691026
      23        0.000001026345    -0.000001304217    -0.000001931091
      24        0.000006705285    -0.000003810954    -0.000000941130

  **** Optimization is complete! (in 5 steps) ****
    Final optimized geometry and variables:
    Molecular point group: c1

    Geometry (in Angstrom), charge = 0, multiplicity = 1:

    H           -3.090787698574     1.179903615795    -1.144648847073
    O           -3.470938953892     0.337208560383    -0.975279016089
    C           -3.182649793137    -0.065286564952     0.338120183423
    C           -1.768346377488     0.278247865595     0.781452093732
    H           -3.316796869800    -1.139754706590     0.359866673381
    H           -3.898611815067     0.373454353325     1.027731130386
    C           -0.675543249462    -0.421150708974    -0.022995987090
    H           -1.632606919475     1.358013045912     0.727859836608
    H           -1.672862184055     0.016271218879     1.831854046524
    C            0.734270278054    -0.045595245482     0.426033437822
    H           -0.794049922676    -0.187814812583    -1.076012171383
    H           -0.807536573522    -1.496695516360     0.064169508928
    C            1.823330824638    -0.753343424501    -0.377838163474
    H            0.854632167551     1.030550848859     0.346666455618
    H            0.853398586921    -0.288765407482     1.479731287663
    C            3.252904383963    -0.471327649591     0.087695686211
    H            1.728836650661    -0.481497467283    -1.426703569283
    H            1.650314396873    -1.824805586458    -0.327263529303
    C            3.714802540417     0.970961935336    -0.106250649848
    H            3.925858280639    -1.127262829808    -0.455943781255
    H            3.348501264032    -0.742283260439     1.135930869373
    H            3.623086721417     1.272626166469    -1.144842470899
    H            4.754824904197     1.082936464293     0.178256958651
    H            3.138149126742     1.666020960130     0.492065203777

  Mulliken Charges: (a.u.)
   Center  Symbol    Alpha    Beta     Spin     Total
       1     H     0.39428  0.39428  0.00000  0.21145
       2     O     4.20565  4.20565  0.00000 -0.41130
       3     C     2.96551  2.96551  0.00000  0.06897
       4     C     3.11202  3.11202  0.00000 -0.22403
       5     H     0.46344  0.46344  0.00000  0.07312
       6     H     0.46255  0.46255  0.00000  0.07490
       7     C     3.08637  3.08637  0.00000 -0.17274
       8     H     0.45768  0.45768  0.00000  0.08464
       9     H     0.45069  0.45069  0.00000  0.09863
      10     C     3.09174  3.09174  0.00000 -0.18349
      11     H     0.44893  0.44893  0.00000  0.10213
      12     H     0.45328  0.45328  0.00000  0.09344
      13     C     3.09487  3.09487  0.00000 -0.18975
      14     H     0.45335  0.45335  0.00000  0.09331
      15     H     0.45532  0.45532  0.00000  0.08936
      16     C     3.09023  3.09023  0.00000 -0.18047
      17     H     0.45361  0.45361  0.00000  0.09278
      18     H     0.44927  0.44927  0.00000  0.10146
      19     C     3.15261  3.15261  0.00000 -0.30521
      20     H     0.44830  0.44830  0.00000  0.10340
      21     H     0.45493  0.45493  0.00000  0.09013
      22     H     0.45486  0.45486  0.00000  0.09028
      23     H     0.44628  0.44628  0.00000  0.10743
      24     H     0.45422  0.45422  0.00000  0.09155

   Total alpha = 33.00000, Total beta = 33.00000, Total charge =  0.00000

*** Psi4 exiting successfully. Buy a developer a beer!
