  ==> Input File <==

--------------------------------------------------------------------------
set {
	reference rhf
	basis cc-pvtz
}

set_num_threads( 4 )
memory 2 gb

molecule MOL {
0 1

H	 1.003207	 2.515850	 -0.333557
O	 1.266951	 1.871470	 0.298634
C	 0.706474	 0.636793	 -0.025501
C	 -0.793473	 0.591216	 0.050087
H	 1.120681	 -0.080873	 0.672848
H	 1.018138	 0.318096	 -1.018474
C	 -1.534243	 -0.493009	 -0.013340
H	 -1.266611	 1.552628	 0.164437
H	 -1.101195	 -1.466332	 -0.144046
H	 -2.604242	 -0.437780	 0.050785

	symmetry c1
}
set optking {
	frozen_dihedral = ("
		5 3 4 7
	")
}

ee = optimize('scf')
oeprop('DIPOLE', 'QUADRUPOLE', 'MULLIKEN_CHARGES')
f=open( 'psi4out.xyz', 'w' )
f.write( "10  " )
f.write( str(ee) + "\n" )
f.write( MOL.save_string_xyz() )
f.close()
--------------------------------------------------------------------------

    Molecular point group: c1
  Charge       = 0
  Multiplicity = 1
  Basis Set: CC-PVTZ
  Basis Set:
  @DF-RHF Final Energy:  -191.99422224694203
    Total Energy =                       -191.9942222469420017
    Molecular point group: c1
  Basis Set: CC-PVTZ
  Basis Set:
  Basis Set: CC-PVTZ
  Basis Set:
  @DF-RHF Final Energy:  -191.99463550856382
    Total Energy =                       -191.9946355085637322
  Basis Set: CC-PVTZ
  Basis Set:
  Basis Set: CC-PVTZ
  Basis Set:
  @DF-RHF Final Energy:  -191.99468224199393
    Total Energy =                       -191.9946822419938712
  Basis Set: CC-PVTZ
  Basis Set:
  Basis Set: CC-PVTZ
  Basis Set:
  @DF-RHF Final Energy:  -191.99468939831749
    Total Energy =                       -191.9946893983173482
  Basis Set: CC-PVTZ
  Basis Set:
  Charge       = 0
  Multiplicity = 1
  Basis Set: CC-PVTZ
  Basis Set:

    Orbital Energies (a.u.)
    -----------------------

    Doubly Occupied:

       1A    -20.553692     2A    -11.277193     3A    -11.230487
       4A    -11.218292     5A     -1.372822     6A     -1.064984
       7A     -0.923120     8A     -0.779101     9A     -0.702488
      10A     -0.643788    11A     -0.625930    12A     -0.582185
      13A     -0.530121    14A     -0.507160    15A     -0.449422
      16A     -0.368042

  @DF-RHF Final Energy:  -191.99469020213300

   => Energetics <=

    Nuclear Repulsion Energy =            117.0788268074124119
    One-Electron Energy =                -492.4893782427761835
    Two-Electron Energy =                 183.4158612332307428
    DFT Exchange-Correlation Energy =       0.0000000000000000
    Empirical Dispersion Energy =           0.0000000000000000
    PCM Polarization Energy =               0.0000000000000000
    EFP Energy =                            0.0000000000000000
    Total Energy =                       -191.9946902021330573
    Molecular point group: c1
  Basis Set: CC-PVTZ
  Basis Set:

  -Total Gradient:
     Atom            X                  Y                   Z
    ------   -----------------  -----------------  -----------------
       1       -0.000024883420    -0.000000240294    -0.000014322843
       2        0.000056981323     0.000034554757     0.000045533271
       3       -0.000058436322    -0.000637869490    -0.000887113665
       4        0.000041073921     0.000013477805     0.000944866980
       5       -0.000005843798     0.000463711036     0.000446209445
       6       -0.000013413350     0.000035646352     0.000014022029
       7        0.000032922592     0.000097050685    -0.000515868650
       8       -0.000009825994     0.000004336250    -0.000000262763
       9       -0.000013950673     0.000002219906    -0.000009812055
      10       -0.000004624279    -0.000012887009    -0.000023251748

  **** Optimization is complete! (in 5 steps) ****
    Final optimized geometry and variables:
    Molecular point group: c1

    Geometry (in Angstrom), charge = 0, multiplicity = 1:

    H            1.076056594792     1.799365836455    -0.421617230015
    O            1.266114590351     1.163318809915     0.243666946341
    C            0.732853161482    -0.081312217048    -0.113230524179
    C           -0.775290850750    -0.112996629683    -0.028069502116
    H            1.157731643252    -0.797884219619     0.575389042580
    H            1.053506694755    -0.360335220268    -1.112978743753
    C           -1.509488134595    -1.201082492205    -0.090418337311
    H           -1.251740994769     0.846471144858     0.081185923208
    H           -1.070651759826    -2.178571690120    -0.190085354983
    H           -2.580544609263    -1.157073944894    -0.040034041893

  Mulliken Charges: (a.u.)
   Center  Symbol    Alpha    Beta     Spin     Total
       1     H     0.39264  0.39264  0.00000  0.21472
       2     O     4.20334  4.20334  0.00000 -0.40668
       3     C     2.95125  2.95125  0.00000  0.09750
       4     C     3.07971  3.07971  0.00000 -0.15942
       5     H     0.45015  0.45015  0.00000  0.09970
       6     H     0.46512  0.46512  0.00000  0.06975
       7     C     3.17417  3.17417  0.00000 -0.34833
       8     H     0.42272  0.42272  0.00000  0.15457
       9     H     0.43292  0.43292  0.00000  0.13417
      10     H     0.42799  0.42799  0.00000  0.14402

   Total alpha = 16.00000, Total beta = 16.00000, Total charge = -0.00000
