  ==> Input File <==

--------------------------------------------------------------------------
set {
	reference rhf
	basis 6-31G*
}

set_num_threads( 4 )
memory 2 gb

molecule MOL {
0 1

O	 1.316435	 -2.651264	 0.779972
C	 0.408965	 -1.976124	 0.416570
C	 -1.030240	 -2.410838	 0.368854
O	 0.550821	 -0.724572	 0.000672
H	 -1.630818	 -1.757376	 0.990929
H	 -1.112058	 -3.430260	 0.715231
H	 -1.402699	 -2.331927	 -0.645852
C	 1.863949	 -0.193559	 -0.000319
H	 2.028859	 0.409284	 -0.881648
H	 2.526261	 -1.045082	 -0.000003
H	 2.029520	 0.410555	 0.880008

	symmetry c1
}
set optking {
	frozen_dihedral = ("
		2 4 8 9
	")
}

ee = optimize('scf')
oeprop('DIPOLE', 'QUADRUPOLE', 'MULLIKEN_CHARGES')
f=open( 'psi4out.xyz', 'w' )
f.write( "11  " )
f.write( str(ee) + "\n" )
f.write( MOL.save_string_xyz() )
f.close()
--------------------------------------------------------------------------

    Molecular point group: c1
  Charge       = 0
  Multiplicity = 1
  Basis Set: 6-31G*
  Basis Set:
  @DF-RHF Final Energy:  -266.83284137576055
    Total Energy =                       -266.8328413757602675
    Molecular point group: c1
  Basis Set: 6-31G*
  Basis Set:
  Basis Set: 6-31G*
  Basis Set:
  @DF-RHF Final Energy:  -266.83401324245699
    Total Energy =                       -266.8340132424568765
  Basis Set: 6-31G*
  Basis Set:
  Basis Set: 6-31G*
  Basis Set:
  @DF-RHF Final Energy:  -266.83473163944484
    Total Energy =                       -266.8347316394447830
  Basis Set: 6-31G*
  Basis Set:
  Basis Set: 6-31G*
  Basis Set:
  @DF-RHF Final Energy:  -266.83446194423163
    Total Energy =                       -266.8344619442316912
  Basis Set: 6-31G*
  Basis Set:
  Basis Set: 6-31G*
  Basis Set:
  @DF-RHF Final Energy:  -266.83474590175689
    Total Energy =                       -266.8347459017569463
  Basis Set: 6-31G*
  Basis Set:
  Charge       = 0
  Multiplicity = 1
  Basis Set: 6-31G*
  Basis Set:

    Orbital Energies (a.u.)
    -----------------------

    Doubly Occupied:

       1A    -20.605021     2A    -20.545847     3A    -11.377547
       4A    -11.280960     5A    -11.234139     6A     -1.468909
       7A     -1.364895     8A     -1.035943     9A     -0.953364
      10A     -0.777431    11A     -0.696567    12A     -0.679391
      13A     -0.676957    14A     -0.597387    15A     -0.590891
      16A     -0.560428    17A     -0.528331    18A     -0.519271
      19A     -0.455191    20A     -0.442300

  @DF-RHF Final Energy:  -266.83474649426375

   => Energetics <=

    Nuclear Repulsion Energy =            182.9312180342465695
    One-Electron Energy =                -726.7503891515192436
    Two-Electron Energy =                 276.9844246230090334
    DFT Exchange-Correlation Energy =       0.0000000000000000
    Empirical Dispersion Energy =           0.0000000000000000
    PCM Polarization Energy =               0.0000000000000000
    EFP Energy =                            0.0000000000000000
    Total Energy =                       -266.8347464942635838
    Molecular point group: c1
  Basis Set: 6-31G*
  Basis Set:

  -Total Gradient:
     Atom            X                  Y                   Z
    ------   -----------------  -----------------  -----------------
       1        0.000025043014     0.000064119515    -0.000043296266
       2        0.000120856490    -0.000366729202    -0.001044923591
       3       -0.000021428425    -0.000011860544    -0.000007488493
       4       -0.000070483249     0.000317801668     0.001433689208
       5        0.000002633989    -0.000001870260    -0.000003662005
       6       -0.000006587452    -0.000001635342    -0.000001995229
       7       -0.000003895663    -0.000002960859    -0.000000632075
       8       -0.000494135067     0.001069718742     0.000325636414
       9        0.000419658454    -0.001050717171    -0.000647969896
      10        0.000030011278    -0.000015929265     0.000002679543
      11       -0.000001673369     0.000000062721    -0.000012037609

  **** Optimization is complete! (in 6 steps) ****
    Final optimized geometry and variables:
    Molecular point group: c1

    Geometry (in Angstrom), charge = 0, multiplicity = 1:

    O            0.655611979866    -1.106372870005     0.479738625757
    C           -0.229445450452    -0.405099241542     0.111436381399
    C           -1.676871551046    -0.809746175628     0.041784439789
    O           -0.066919997612     0.848448834786    -0.294108179426
    H           -2.270798323677    -0.150570704628     0.664218476530
    H           -1.783777905743    -1.830799958467     0.376063266835
    H           -2.035676302831    -0.711650259306    -0.976178932630
    C            1.240503493172     1.396052871372    -0.321628590567
    H            1.311370101375     1.989887570176    -1.220737613487
    H            1.982637169731     0.615081494736    -0.331980015026
    H            1.381003678453     2.023887353896     0.547727384813

  Mulliken Charges: (a.u.)
   Center  Symbol    Alpha    Beta     Spin     Total
       1     O     4.28173  4.28173  0.00000 -0.56345
       2     C     2.62219  2.62219  0.00000  0.75563
       3     C     3.28201  3.28201  0.00000 -0.56402
       4     O     4.30116  4.30116  0.00000 -0.60233
       5     H     0.39995  0.39995  0.00000  0.20011
       6     H     0.39678  0.39678  0.00000  0.20644
       7     H     0.40017  0.40017  0.00000  0.19965
       8     C     3.09702  3.09702  0.00000 -0.19404
       9     H     0.41039  0.41039  0.00000  0.17921
      10     H     0.39595  0.39595  0.00000  0.20810
      11     H     0.41265  0.41265  0.00000  0.17470

   Total alpha = 20.00000, Total beta = 20.00000, Total charge = -0.00000
