                              Psi4 1.0.54 Driver

  ==> Input File <==

--------------------------------------------------------------------------
set {
	reference rhf
	basis cc-pvtz
}

set_num_threads( 4 )
memory 2 gb

molecule MOL {
0 1

H	 -3.436473	 1.252944	 -1.023892
O	 -3.458596	 0.315260	 -0.960865
C	 -3.176635	 -0.080824	 0.355601
C	 -1.763371	 0.265266	 0.799691
H	 -3.321825	 -1.153438	 0.379502
H	 -3.895468	 0.357385	 1.043382
C	 -0.673390	 -0.426948	 -0.013392
H	 -1.631049	 1.344913	 0.747560
H	 -1.664587	 -0.001624	 1.849167
C	 0.468986	 -0.962320	 0.845866
H	 -0.281327	 0.266616	 -0.749034
H	 -1.117141	 -1.246415	 -0.573808
C	 1.554022	 -1.658341	 0.026538
H	 0.900000	 -0.140919	 1.410150
H	 0.072303	 -1.661284	 1.579316
C	 2.681581	 -2.282915	 0.850169
H	 1.978448	 -0.949983	 -0.681234
H	 1.090561	 -2.439521	 -0.569768
C	 3.556308	 -1.280062	 1.598688
H	 3.311957	 -2.863499	 0.183592
H	 2.258504	 -2.990625	 1.558387
H	 3.988616	 -0.555333	 0.916079
H	 4.372442	 -1.783874	 2.104001
H	 2.997166	 -0.734536	 2.349266

	symmetry c1
}
set optking {
	frozen_dihedral = ("
		11 7 4 3
	")
}

ee,wfn = optimize('scf', return_wfn=True)
oeprop( wfn, 'DIPOLE', 'QUADRUPOLE', 'MULLIKEN_CHARGES')
f=open( 'psi4out.xyz', 'w' )
f.write( "24  " )
f.write( str(ee) + "\n" )
f.write( MOL.save_string_xyz() )
f.close()
--------------------------------------------------------------------------

    Molecular point group: c1
  Charge       = 0
  Multiplicity = 1
  Basis Set: CC-PVTZ
  Basis Set:
  @DF-RHF Final Energy:  -349.37618740409175
    Total Energy =                       -349.3761874040917519
    Molecular point group: c1
  Basis Set: CC-PVTZ
  Basis Set:
  Basis Set: CC-PVTZ
  Basis Set:
  @DF-RHF Final Energy:  -349.37640934707241
    Total Energy =                       -349.3764093470724106
  Basis Set: CC-PVTZ
  Basis Set:
  Basis Set: CC-PVTZ
  Basis Set:
  @DF-RHF Final Energy:  -349.37656130476438
    Total Energy =                       -349.3765613047644933
  Basis Set: CC-PVTZ
  Basis Set:
  Basis Set: CC-PVTZ
  Basis Set:
  @DF-RHF Final Energy:  -349.37656428218838
    Total Energy =                       -349.3765642821888946
  Basis Set: CC-PVTZ
  Basis Set:
  Charge       = 0
  Multiplicity = 1
  Basis Set: CC-PVTZ
  Basis Set:

    Orbital Energies (a.u.)
    -----------------------

    Doubly Occupied:

       1A    -20.545651     2A    -11.265402     3A    -11.215050
       4A    -11.212144     5A    -11.210522     6A    -11.209860
       7A    -11.209326     8A    -11.205362     9A     -1.363514
      10A     -1.089313    11A     -1.048408    12A     -0.986681
      13A     -0.915953    14A     -0.851872    15A     -0.801565
      16A     -0.777014    17A     -0.680223    18A     -0.651498
      19A     -0.631601    20A     -0.616708    21A     -0.604735
      22A     -0.581073    23A     -0.551638    24A     -0.549866
      25A     -0.518773    26A     -0.506321    27A     -0.497864
      28A     -0.475467    29A     -0.469711    30A     -0.461090
      31A     -0.453311    32A     -0.449388    33A     -0.421432

  @DF-RHF Final Energy:  -349.37656457151218

   => Energetics <=

    Nuclear Repulsion Energy =            384.6880733809529147
    One-Electron Energy =               -1236.0725980736569909
    Two-Electron Energy =                 502.0079601211922409
    DFT Exchange-Correlation Energy =       0.0000000000000000
    Empirical Dispersion Energy =           0.0000000000000000
    PCM Polarization Energy =               0.0000000000000000
    EFP Energy =                            0.0000000000000000
    Total Energy =                       -349.3765645715118353
    Molecular point group: c1
  Basis Set: CC-PVTZ
  Basis Set:

  -Total Gradient:
     Atom            X                  Y                   Z
    ------   -----------------  -----------------  -----------------
       1       -0.000007586171    -0.000018500951    -0.000005478617
       2        0.000005341421     0.000032504426    -0.000033554477
       3       -0.000055940696    -0.001768347430     0.001592344344
       4        0.000588144693     0.002689364681    -0.001682956670
       5        0.000010464242     0.000014360153    -0.000002977799
       6        0.000003636243    -0.000002968406    -0.000012674834
       7       -0.002765118002    -0.001915430613    -0.001914969446
       8        0.000009437841    -0.000016864458    -0.000012371196
       9        0.000009863394    -0.000008193547     0.000007683372
      10       -0.000009604160    -0.000006604142     0.000006750716
      11        0.002214139412     0.000991533434     0.002041162237
      12       -0.000014450439     0.000010269723     0.000018684131
      13        0.000010248365     0.000007115353    -0.000001785498
      14       -0.000011304466    -0.000002882394    -0.000003580815
      15        0.000008436668    -0.000005216254     0.000000704223
      16       -0.000005544449    -0.000004293183     0.000002719431
      17       -0.000000425280     0.000002230514    -0.000001809545
      18        0.000003280864     0.000001017221     0.000000519173
      19        0.000002454789     0.000004006476     0.000001737381
      20       -0.000003619237    -0.000002270583    -0.000002697093
      21       -0.000000001560    -0.000002276593     0.000002312369
      22        0.000003312557     0.000002617576     0.000000060972
      23       -0.000000129032     0.000000146309    -0.000000259807
      24        0.000004962995    -0.000001317314     0.000000437445

  **** Optimization is complete! (in 5 steps) ****
    Final optimized geometry and variables:
    Molecular point group: c1

    Geometry (in Angstrom), charge = 0, multiplicity = 1:

    H           -3.216154080847     1.917776911606    -1.536206259958
    O           -3.301363178752     0.992223080476    -1.395532485831
    C           -3.035776479708     0.687308554039    -0.051634774015
    C           -1.611658776734     1.011327149984     0.369658061567
    H           -3.215246303235    -0.375359004336     0.050331599313
    H           -3.740626251447     1.198952577440     0.599322458078
    C           -0.536299283606     0.268122141198    -0.439958364351
    H           -1.451388575704     2.085226645519     0.314053212755
    H           -1.524628241609     0.751983239574     1.421687291106
    C            0.622094319869    -0.230736193876     0.423347041695
    H           -0.129944437639     0.927219320847    -1.199755095038
    H           -0.983512621252    -0.569418276511    -0.964025531553
    C            1.716591433645    -0.919984774444    -0.388336680704
    H            1.038733982881     0.608096729724     0.973170026649
    H            0.239702069378    -0.924218027372     1.169446495583
    C            2.851315414588    -1.522516683574     0.442004910671
    H            2.133159101804    -0.213096703327    -1.102428708365
    H            1.263483394910    -1.712252676325    -0.978012674259
    C            3.709825742622    -0.501839069430     1.185231981083
    H            3.491347016156    -2.098842636126    -0.219028502805
    H            2.436851799558    -2.231158238068     1.154327555318
    H            4.132482855905     0.224826461463     0.498603797166
    H            4.532560937351    -0.990033440108     1.695131096545
    H            3.141333510396     0.040242643339     1.931263304162

  Mulliken Charges: (a.u.)
   Center  Symbol    Alpha    Beta     Spin     Total
       1     H     0.39546  0.39546  0.00000  0.20908
       2     O     4.20399  4.20399  0.00000 -0.40798
       3     C     2.97462  2.97462  0.00000  0.05075
       4     C     3.11099  3.11099  0.00000 -0.22198
       5     H     0.45930  0.45930  0.00000  0.08140
       6     H     0.46161  0.46161  0.00000  0.07679
       7     C     3.08408  3.08408  0.00000 -0.16815
       8     H     0.45342  0.45342  0.00000  0.09316
       9     H     0.45384  0.45384  0.00000  0.09232
      10     C     3.09384  3.09384  0.00000 -0.18768
      11     H     0.45368  0.45368  0.00000  0.09264
      12     H     0.44636  0.44636  0.00000  0.10728
      13     C     3.09569  3.09569  0.00000 -0.19138
      14     H     0.45246  0.45246  0.00000  0.09507
      15     H     0.45584  0.45584  0.00000  0.08833
      16     C     3.09002  3.09002  0.00000 -0.18004
      17     H     0.45420  0.45420  0.00000  0.09160
      18     H     0.44878  0.44878  0.00000  0.10244
      19     C     3.15227  3.15227  0.00000 -0.30454
      20     H     0.44861  0.44861  0.00000  0.10278
      21     H     0.45505  0.45505  0.00000  0.08990
      22     H     0.45513  0.45513  0.00000  0.08975
      23     H     0.44667  0.44667  0.00000  0.10666
      24     H     0.45410  0.45410  0.00000  0.09181

   Total alpha = 33.00000, Total beta = 33.00000, Total charge = -0.00000

*** Psi4 exiting successfully. Buy a developer a beer!
