  ==> Input File <==

--------------------------------------------------------------------------
set {
	reference rhf
	basis 6-31G*
}

set_num_threads( 4 )
memory 2 gb

molecule MOL {
0 1

H	 -3.420663	 1.227371	 -1.044276
O	 -3.452007	 0.283848	 -0.965577
C	 -3.181085	 -0.079926	 0.364119
C	 -1.765924	 0.277073	 0.805136
H	 -3.327791	 -1.152017	 0.410903
H	 -3.905698	 0.375695	 1.036898
C	 -0.708956	 -0.722013	 0.332737
H	 -1.520342	 1.273535	 0.436739
H	 -1.752738	 0.344223	 1.891662
C	 0.709983	 -0.342473	 0.761388
H	 -0.755225	 -0.805297	 -0.748759
H	 -0.952821	 -1.707832	 0.725274
C	 1.761704	 -1.350302	 0.289956
H	 0.943575	 0.646602	 0.374627
H	 0.751374	 -0.263354	 1.847036
C	 3.188469	 -1.060705	 0.770197
H	 1.752389	 -1.397429	 -0.797880
H	 1.475100	 -2.340540	 0.637956
C	 3.801170	 0.222531	 0.206010
H	 3.821909	 -1.899880	 0.493015
H	 3.200353	 -1.018818	 1.857536
H	 3.791258	 0.214385	 -0.880716
H	 4.833410	 0.329559	 0.525167
H	 3.266301	 1.107266	 0.535133

	symmetry c1
}
set optking {
	frozen_dihedral = ("
		7 4 3 2
	")
}

ee = optimize('scf')
oeprop('DIPOLE', 'QUADRUPOLE', 'MULLIKEN_CHARGES')
f=open( 'psi4out.xyz', 'w' )
f.write( "24  " )
f.write( str(ee) + "\n" )
f.write( MOL.save_string_xyz() )
f.close()
--------------------------------------------------------------------------

    Molecular point group: c1
  Charge       = 0
  Multiplicity = 1
  Basis Set: 6-31G*
  Basis Set:
  @DF-RHF Final Energy:  -349.24587488467813
    Total Energy =                       -349.2458748846784147
    Molecular point group: c1
  Basis Set: 6-31G*
  Basis Set:
  Basis Set: 6-31G*
  Basis Set:
  @DF-RHF Final Energy:  -349.24594196721620
    Total Energy =                       -349.2459419672160266
  Basis Set: 6-31G*
  Basis Set:
  Basis Set: 6-31G*
  Basis Set:
  @DF-RHF Final Energy:  -349.24597642757533
    Total Energy =                       -349.2459764275756697
  Basis Set: 6-31G*
  Basis Set:
  Basis Set: 6-31G*
  Basis Set:
  @DF-RHF Final Energy:  -349.24598185161409
    Total Energy =                       -349.2459818516144878
  Basis Set: 6-31G*
  Basis Set:
  Charge       = 0
  Multiplicity = 1
  Basis Set: 6-31G*
  Basis Set:

    Orbital Energies (a.u.)
    -----------------------

    Doubly Occupied:

       1A    -20.552162     2A    -11.267420     3A    -11.217476
       4A    -11.214441     5A    -11.213347     6A    -11.212789
       7A    -11.212133     8A    -11.207507     9A     -1.358961
      10A     -1.089345    11A     -1.048772    12A     -0.985341
      13A     -0.914348    14A     -0.850538    15A     -0.803230
      16A     -0.776582    17A     -0.680420    18A     -0.651414
      19A     -0.624244    20A     -0.620759    21A     -0.596043
      22A     -0.583664    23A     -0.561255    24A     -0.537356
      25A     -0.516755    26A     -0.513254    27A     -0.495488
      28A     -0.477084    29A     -0.466528    30A     -0.459538
      31A     -0.456426    32A     -0.451771    33A     -0.417120

  @DF-RHF Final Energy:  -349.24598158047735

   => Energetics <=

    Nuclear Repulsion Energy =            383.2925059106759704
    One-Electron Energy =               -1233.0099486019203141
    Two-Electron Energy =                 500.4714611107672795
    DFT Exchange-Correlation Energy =       0.0000000000000000
    Empirical Dispersion Energy =           0.0000000000000000
    PCM Polarization Energy =               0.0000000000000000
    EFP Energy =                            0.0000000000000000
    Total Energy =                       -349.2459815804770074
    Molecular point group: c1
  Basis Set: 6-31G*
  Basis Set:

  -Total Gradient:
     Atom            X                  Y                   Z
    ------   -----------------  -----------------  -----------------
       1       -0.000004919241     0.000013231697    -0.000010681625
       2       -0.001127726974     0.003149963858     0.001092580070
       3        0.001423890239    -0.004883963146    -0.000431542710
       4        0.000207309265     0.003523661038    -0.003319776682
       5        0.000078973800     0.000015582077    -0.000040964548
       6        0.000025549229    -0.000037044085     0.000115770995
       7       -0.000495029359    -0.001821666328     0.002561722254
       8       -0.000003081439    -0.000032777077    -0.000040019980
       9       -0.000110955835     0.000053308458     0.000045275718
      10        0.000020252856     0.000059918847    -0.000043864877
      11        0.000039633546    -0.000071321284     0.000027010840
      12       -0.000038363697     0.000031206627     0.000000950864
      13       -0.000046153578    -0.000031840205     0.000049899791
      14        0.000064309282     0.000059890030     0.000002912179
      15        0.000019801031    -0.000012476131    -0.000020832484
      16        0.000024401704    -0.000031461848    -0.000026747275
      17        0.000005720683    -0.000031963273     0.000012759202
      18       -0.000043065324     0.000017198946     0.000018679315
      19       -0.000033621562     0.000014459880     0.000021881314
      20        0.000011573665     0.000022744028    -0.000030061025
      21        0.000025271311    -0.000039003645    -0.000002891666
      22        0.000013020986    -0.000014477592     0.000014852881
      23       -0.000005613024     0.000019603160     0.000015346564
      24       -0.000051177555     0.000027225968    -0.000012259109

  **** Optimization is complete! (in 5 steps) ****
    Final optimized geometry and variables:
    Molecular point group: c1

    Geometry (in Angstrom), charge = 0, multiplicity = 1:

    H           -3.370604785273     1.580533873421    -1.330161155923
    O           -3.408178264984     0.635921298382    -1.277837248521
    C           -3.172862972260     0.238855165827     0.049877695607
    C           -1.763522136366     0.581688531696     0.530294787722
    H           -3.334725905960    -0.831061324365     0.076139905798
    H           -3.911152049757     0.693161061549     0.708512056255
    C           -0.702375248323    -0.412711054519     0.056087076106
    H           -1.513842423587     1.588684688042     0.199456723564
    H           -1.762656560788     0.610116440956     1.618727831973
    C            0.718494688779    -0.024811356122     0.469331380385
    H           -0.756261317814    -0.501986881168    -1.026220708940
    H           -0.939909736455    -1.395890157846     0.458050874112
    C            1.769203226790    -1.038139226668     0.007686468631
    H            0.947361045898     0.958308981195     0.065550293081
    H            0.765710541213     0.071273181088     1.553486664718
    C            3.198266051516    -0.737635181697     0.474186210703
    H            1.753167213971    -1.102712709246    -1.079096599325
    H            1.486996121047    -2.023300379544     0.373515488185
    C            3.799143364471     0.544976544313    -0.103909387821
    H            3.833895948296    -1.575297894598     0.197637099761
    H            3.218727633817    -0.688105514605     1.561086234802
    H            3.783073306821     0.527924535846    -1.190408670037
    H            4.832443711917     0.661354301560     0.208464800060
    H            3.260245091288     1.428795782101     0.221037524134

  Mulliken Charges: (a.u.)
   Center  Symbol    Alpha    Beta     Spin     Total
       1     H     0.28329  0.28329  0.00000  0.43343
       2     O     4.36940  4.36940  0.00000 -0.73881
       3     C     2.99784  2.99784  0.00000  0.00432
       4     C     3.16439  3.16439  0.00000 -0.32877
       5     H     0.41532  0.41532  0.00000  0.16936
       6     H     0.42888  0.42888  0.00000  0.14224
       7     C     3.15500  3.15500  0.00000 -0.31000
       8     H     0.42658  0.42658  0.00000  0.14683
       9     H     0.42334  0.42334  0.00000  0.15332
      10     C     3.15388  3.15388  0.00000 -0.30776
      11     H     0.41276  0.41276  0.00000  0.17448
      12     H     0.42369  0.42369  0.00000  0.15262
      13     C     3.15243  3.15243  0.00000 -0.30486
      14     H     0.42189  0.42189  0.00000  0.15623
      15     H     0.42540  0.42540  0.00000  0.14921
      16     C     3.15228  3.15228  0.00000 -0.30457
      17     H     0.42322  0.42322  0.00000  0.15356
      18     H     0.42242  0.42242  0.00000  0.15517
      19     C     3.24113  3.24113  0.00000 -0.48226
      20     H     0.42101  0.42101  0.00000  0.15798
      21     H     0.42381  0.42381  0.00000  0.15237
      22     H     0.42202  0.42202  0.00000  0.15595
      23     H     0.41950  0.41950  0.00000  0.16100
      24     H     0.42051  0.42051  0.00000  0.15898

   Total alpha = 33.00000, Total beta = 33.00000, Total charge = -0.00000
