  ==> Input File <==

--------------------------------------------------------------------------
set {
	reference rhf
	basis 6-31G*
}

set_num_threads( 1 )
memory 2 gb

molecule MOL {
0 1

H	 -3.420663	 1.227371	 -1.044276
O	 -3.452007	 0.283848	 -0.965577
C	 -3.181085	 -0.079926	 0.364119
C	 -1.765924	 0.277073	 0.805136
H	 -3.327791	 -1.152017	 0.410903
H	 -3.905698	 0.375695	 1.036898
C	 -0.677594	 -0.417312	 -0.014550
H	 -1.637766	 1.358238	 0.744969
H	 -1.659588	 0.017670	 1.857098
C	 0.738335	 -0.034840	 0.421385
H	 -0.814977	 -0.178223	 -1.064632
H	 -0.802730	 -1.495410	 0.071702
C	 1.457944	 -1.166835	 1.159515
H	 1.310617	 0.260021	 -0.454953
H	 0.694280	 0.841865	 1.066407
C	 2.847613	 -0.802374	 1.694438
H	 1.542609	 -2.029281	 0.500187
H	 0.839153	 -1.485241	 1.995895
C	 3.888370	 -0.507980	 0.612512
H	 3.206782	 -1.624941	 2.308173
H	 2.763761	 0.056063	 2.357958
H	 3.984713	 -1.344991	 -0.073978
H	 4.864114	 -0.330420	 1.054365
H	 3.631437	 0.370217	 0.029486

	symmetry c1
}
set optking {
	frozen_dihedral = ("
		20 16 13 17,
		17 13 10 7,
		11 7 4 3,
		1 2 3 5,
		7 4 3 2
	")
}

ee = energy('scf')
oeprop('DIPOLE', 'QUADRUPOLE', 'MULLIKEN_CHARGES')
f=open( 'psi4out.xyz', 'w' )
f.write( "24  " )
f.write( str(ee) + "\n" )
f.write( MOL.save_string_xyz() )
f.close()
--------------------------------------------------------------------------

    Molecular point group: c1

    Geometry (in Angstrom), charge = 0, multiplicity = 1:

       Center              X                  Y                   Z               Mass
    ------------   -----------------  -----------------  -----------------  -----------------
           H         -3.350067807178     1.515174334774    -1.526079009662     1.007825032070
           O         -3.381411807178     0.571651334774    -1.447380009662    15.994914619560
           C         -3.110489807178     0.207877334774    -0.117684009662    12.000000000000
           C         -1.695328807178     0.564876334774     0.323332990338    12.000000000000
           H         -3.257195807178    -0.864213665226    -0.070900009662     1.007825032070
           H         -3.835102807178     0.663498334774     0.555094990338     1.007825032070
           C         -0.606998807178    -0.129508665226    -0.496353009662    12.000000000000
           H         -1.567170807178     1.646041334774     0.263165990338     1.007825032070
           H         -1.588992807178     0.305473334774     1.375294990338     1.007825032070
           C          0.808930192822     0.252963334774    -0.060418009662    12.000000000000
           H         -0.744381807178     0.109580334774    -1.546435009662     1.007825032070
           H         -0.732134807178    -1.207606665226    -0.410101009662     1.007825032070
           C          1.528539192822    -0.879031665226     0.677711990338    12.000000000000
           H          1.381212192822     0.547824334774    -0.936756009662     1.007825032070
           H          0.764875192822     1.129668334774     0.584603990338     1.007825032070
           C          2.918208192822    -0.514570665226     1.212634990338    12.000000000000
           H          1.613204192822    -1.741477665226     0.018383990338     1.007825032070
           H          0.909748192822    -1.197437665226     1.514091990338     1.007825032070
           C          3.958965192822    -0.220176665226     0.130708990338    12.000000000000
           H          3.277377192822    -1.337137665226     1.826369990338     1.007825032070
           H          2.834356192822     0.343866334774     1.876154990338     1.007825032070
           H          4.055308192822    -1.057187665226    -0.555781009662     1.007825032070
           H          4.934709192822    -0.042616665226     0.572561990338     1.007825032070
           H          3.702032192822     0.658020334774    -0.452317009662     1.007825032070

  Charge       = 0
  Multiplicity = 1
  Basis Set: 6-31G*
  Basis Set:

    Orbital Energies (a.u.)
    -----------------------

    Doubly Occupied:

       1A    -20.553404     2A    -11.267251     3A    -11.217744
       4A    -11.214105     5A    -11.212768     6A    -11.210762
       7A    -11.209541     8A    -11.207250     9A     -1.359954
      10A     -1.089264    11A     -1.047700    12A     -0.985014
      13A     -0.915187    14A     -0.851343    15A     -0.801769
      16A     -0.776383    17A     -0.679750    18A     -0.648071
      19A     -0.625776    20A     -0.619513    21A     -0.594432
      22A     -0.582571    23A     -0.569919    24A     -0.532779
      25A     -0.522677    26A     -0.511222    27A     -0.490005
      28A     -0.483331    29A     -0.466017    30A     -0.458905
      31A     -0.457289    32A     -0.438433    33A     -0.421072

  @DF-RHF Final Energy:  -349.24233767822261

   => Energetics <=

    Nuclear Repulsion Energy =            385.6038928305033551
    One-Electron Energy =               -1237.6500100427592770
    Two-Electron Energy =                 502.8037795340336515
    DFT Exchange-Correlation Energy =       0.0000000000000000
    Empirical Dispersion Energy =           0.0000000000000000
    PCM Polarization Energy =               0.0000000000000000
    EFP Energy =                            0.0000000000000000
    Total Energy =                       -349.2423376782222704

  Mulliken Charges: (a.u.)
   Center  Symbol    Alpha    Beta     Spin     Total
       1     H     0.28340  0.28340  0.00000  0.43320
       2     O     4.36825  4.36825  0.00000 -0.73649
       3     C     2.99653  2.99653  0.00000  0.00694
       4     C     3.17079  3.17079  0.00000 -0.34158
       5     H     0.41630  0.41630  0.00000  0.16739
       6     H     0.42840  0.42840  0.00000  0.14321
       7     C     3.15541  3.15541  0.00000 -0.31083
       8     H     0.42761  0.42761  0.00000  0.14478
       9     H     0.42233  0.42233  0.00000  0.15534
      10     C     3.15666  3.15666  0.00000 -0.31332
      11     H     0.40979  0.40979  0.00000  0.18042
      12     H     0.42088  0.42088  0.00000  0.15823
      13     C     3.15432  3.15432  0.00000 -0.30865
      14     H     0.41860  0.41860  0.00000  0.16280
      15     H     0.42350  0.42350  0.00000  0.15300
      16     C     3.15266  3.15266  0.00000 -0.30532
      17     H     0.42289  0.42289  0.00000  0.15421
      18     H     0.42344  0.42344  0.00000  0.15312
      19     C     3.24095  3.24095  0.00000 -0.48189
      20     H     0.42147  0.42147  0.00000  0.15706
      21     H     0.42396  0.42396  0.00000  0.15208
      22     H     0.42209  0.42209  0.00000  0.15581
      23     H     0.41959  0.41959  0.00000  0.16082
      24     H     0.42017  0.42017  0.00000  0.15966

   Total alpha = 33.00000, Total beta = 33.00000, Total charge = -0.00000
