  ==> Input File <==

--------------------------------------------------------------------------
set {
	reference rhf
	basis 6-31G*
}

set_num_threads( 4 )
memory 2 gb

molecule MOL {
0 1

O	 3.225979	 0.970355	 -0.599647
C	 2.701189	 0.057885	 -0.047330
C	 1.245376	 -0.013843	 0.345420
O	 3.347903	 -1.046386	 0.304773
C	 0.455112	 1.231400	 -0.050772
H	 0.838542	 -0.913825	 -0.103701
H	 1.208210	 -0.175333	 1.419774
C	 -0.998893	 1.219485	 0.433193
H	 0.482531	 1.345121	 -1.130325
H	 0.957290	 2.103070	 0.354729
C	 -1.863523	 2.368856	 -0.092612
H	 -0.992437	 1.258734	 1.519996
H	 -1.461259	 0.269596	 0.168729
C	 -3.272191	 2.375045	 0.504560
H	 -1.374216	 3.315692	 0.130770
H	 -1.941777	 2.313562	 -1.176029
C	 -4.146894	 3.516243	 -0.017640
H	 -3.202965	 2.443713	 1.588870
H	 -3.758128	 1.424335	 0.290752
C	 -5.550718	 3.517542	 0.586493
H	 -3.662300	 4.466977	 0.194293
H	 -4.220849	 3.446758	 -1.100914
H	 -6.146246	 4.337467	 0.197038
H	 -5.512294	 3.621005	 1.667240
H	 -6.074823	 2.592650	 0.362523
C	 4.728119	 -1.109107	 -0.004993
H	 4.882018	 -1.033965	 -1.071845
H	 5.068212	 -2.067527	 0.355250
H	 5.265056	 -0.311663	 0.488280

	symmetry c1
}
set optking {
	frozen_dihedral = ("
		11 8 5 9
	")
}

ee = optimize('scf')
oeprop('DIPOLE', 'QUADRUPOLE', 'MULLIKEN_CHARGES')
f=open( 'psi4out.xyz', 'w' )
f.write( "29  " )
f.write( str(ee) + "\n" )
f.write( MOL.save_string_xyz() )
f.close()
--------------------------------------------------------------------------

    Molecular point group: c1
  Charge       = 0
  Multiplicity = 1
  Basis Set: 6-31G*
  Basis Set:
  @DF-RHF Final Energy:  -501.04498896324071
    Total Energy =                       -501.0449889632404847
    Molecular point group: c1
  Basis Set: 6-31G*
  Basis Set:
  Basis Set: 6-31G*
  Basis Set:
  @DF-RHF Final Energy:  -501.04542530422259
    Total Energy =                       -501.0454253042232722
  Basis Set: 6-31G*
  Basis Set:
  Basis Set: 6-31G*
  Basis Set:
  @DF-RHF Final Energy:  -501.04539930733665
    Total Energy =                       -501.0453993073372203
  Basis Set: 6-31G*
  Basis Set:
  Basis Set: 6-31G*
  Basis Set:
  @DF-RHF Final Energy:  -501.04540892929560
    Total Energy =                       -501.0454089292965136
  Basis Set: 6-31G*
  Basis Set:
  Basis Set: 6-31G*
  Basis Set:
  @DF-RHF Final Energy:  -501.04547172016407
    Total Energy =                       -501.0454717201644144
  Basis Set: 6-31G*
  Basis Set:
  Charge       = 0
  Multiplicity = 1
  Basis Set: 6-31G*
  Basis Set:

    Orbital Energies (a.u.)
    -----------------------

    Doubly Occupied:

       1A    -20.603501     2A    -20.545308     3A    -11.372121
       4A    -11.280751     5A    -11.235402     6A    -11.218866
       7A    -11.217448     8A    -11.214497     9A    -11.214134
      10A    -11.213091    11A    -11.208070    12A     -1.469195
      13A     -1.362645    14A     -1.097273    15A     -1.067146
      16A     -1.020378    17A     -0.977442    18A     -0.926959
      19A     -0.855473    20A     -0.801240    21A     -0.790058
      22A     -0.766751    23A     -0.696777    24A     -0.683687
      25A     -0.671502    26A     -0.657508    27A     -0.630145
      28A     -0.597666    29A     -0.591380    30A     -0.584167
      31A     -0.566460    32A     -0.550061    33A     -0.529988
      34A     -0.521794    35A     -0.517758    36A     -0.514614
      37A     -0.489563    38A     -0.481162    39A     -0.468888
      40A     -0.461880    41A     -0.461116    42A     -0.455445
      43A     -0.446606    44A     -0.431112

  @DF-RHF Final Energy:  -501.04547167764372

   => Energetics <=

    Nuclear Repulsion Energy =            601.9018612827305788
    One-Electron Energy =               -1874.9606112790784209
    Two-Electron Energy =                 772.0132783187032146
    DFT Exchange-Correlation Energy =       0.0000000000000000
    Empirical Dispersion Energy =           0.0000000000000000
    PCM Polarization Energy =               0.0000000000000000
    EFP Energy =                            0.0000000000000000
    Total Energy =                       -501.0454716776446276
    Molecular point group: c1
  Basis Set: 6-31G*
  Basis Set:

  -Total Gradient:
     Atom            X                  Y                   Z
    ------   -----------------  -----------------  -----------------
       1        0.000003079692    -0.000018367865    -0.000001459126
       2        0.000001702108     0.000074496116     0.000032395721
       3       -0.000041415325    -0.000036595756    -0.000046116456
       4       -0.000021165270    -0.000007145214    -0.000016798891
       5       -0.000133676458    -0.002240281739    -0.000559446028
       6        0.000009096489     0.000001616651     0.000012358117
       7       -0.000000697367     0.000007590592     0.000012609597
       8        0.000423715375     0.001350724562     0.001341747574
       9        0.000017352831     0.001579807166     0.000147287882
      10        0.000009473804     0.000000497381     0.000007421714
      11       -0.000278875105    -0.000670809374    -0.000931605667
      12        0.000000974098    -0.000000995765     0.000019709174
      13       -0.000010524750     0.000017782799    -0.000010124820
      14       -0.000004899507    -0.000044232711     0.000002703267
      15        0.000005475914    -0.000002665696    -0.000002126931
      16        0.000000951499    -0.000005749674    -0.000008829275
      17        0.000024325267     0.000004713383     0.000003887658
      18       -0.000017819362    -0.000017443493    -0.000002403933
      19        0.000002135868    -0.000003869512    -0.000019554401
      20        0.000007966855     0.000009279100     0.000023762243
      21        0.000005777941     0.000009120208    -0.000015939099
      22       -0.000010669316    -0.000012134381     0.000006670473
      23        0.000002598070     0.000003227792     0.000003242238
      24       -0.000005706010    -0.000002067808     0.000002573970
      25        0.000007230649     0.000003396734    -0.000002686257
      26       -0.000002527924     0.000000327467     0.000002151900
      27        0.000001036411    -0.000000045322     0.000000646894
      28        0.000004054971    -0.000000324724    -0.000001442228
      29        0.000001028539     0.000000149080    -0.000000635310

  **** Optimization is complete! (in 6 steps) ****
    Final optimized geometry and variables:
    Molecular point group: c1

    Geometry (in Angstrom), charge = 0, multiplicity = 1:

    O            3.169989749213    -0.227972166797    -0.796570164276
    C            2.660283843546    -1.110313384713    -0.184442561910
    C            1.225888475056    -1.140324150157     0.284053327940
    O            3.306221366528    -2.212513551897     0.174952443625
    C            0.432211542297     0.099743806371    -0.113431670606
    H            0.772308577838    -2.043309545784    -0.114992488893
    H            1.239743126679    -1.268854947543     1.363123276594
    C           -1.008486178585     0.061262498289     0.400395371034
    H            0.438490080525     0.206977935729    -1.193693817380
    H            0.933480861930     0.982407778773     0.271655959846
    C           -1.865665619045     1.206749833316    -0.140676873532
    H           -1.006827690685     0.088716657703     1.488668297851
    H           -1.469015561059    -0.885501706678     0.121514693220
    C           -3.300599562862     1.189150381970     0.388723355769
    H           -1.399724937064     2.157212111086     0.113673102217
    H           -1.881745188009     1.157326819730    -1.227765484728
    C           -4.159957361423     2.332508289037    -0.153879624902
    H           -3.284221630803     1.238431588323     1.476322876288
    H           -3.767022007963     0.238534749381     0.134645798183
    C           -5.590248680244     2.312453776684     0.384223976072
    H           -3.693791386654     3.283079288126     0.096439698498
    H           -4.182681053335     2.281261559840    -1.240357796609
    H           -6.173992798524     3.134550093291    -0.018313791499
    H           -5.602990693356     2.397132486895     1.467263699175
    H           -6.095627714911     1.387694011968     0.120163340699
    C            4.667137390111    -2.311980575435    -0.203184929546
    H            4.766187260527    -2.278693557321    -1.278637188916
    H            5.009721726672    -3.262708967848     0.174612279456
    H            5.242216363940    -1.507080246659     0.231496373975

  Mulliken Charges: (a.u.)
   Center  Symbol    Alpha    Beta     Spin     Total
       1     O     4.28608  4.28608  0.00000 -0.57215
       2     C     2.60470  2.60470  0.00000  0.79060
       3     C     3.20829  3.20829  0.00000 -0.41657
       4     O     4.30749  4.30749  0.00000 -0.61498
       5     C     3.15282  3.15282  0.00000 -0.30564
       6     H     0.40058  0.40058  0.00000  0.19885
       7     H     0.40062  0.40062  0.00000  0.19875
       8     C     3.15437  3.15437  0.00000 -0.30874
       9     H     0.41207  0.41207  0.00000  0.17585
      10     H     0.41128  0.41128  0.00000  0.17744
      11     C     3.15217  3.15217  0.00000 -0.30433
      12     H     0.42294  0.42294  0.00000  0.15412
      13     H     0.42441  0.42441  0.00000  0.15117
      14     C     3.15079  3.15079  0.00000 -0.30158
      15     H     0.42203  0.42203  0.00000  0.15595
      16     H     0.42224  0.42224  0.00000  0.15552
      17     C     3.15150  3.15150  0.00000 -0.30300
      18     H     0.42421  0.42421  0.00000  0.15158
      19     H     0.42435  0.42435  0.00000  0.15130
      20     C     3.23929  3.23929  0.00000 -0.47858
      21     H     0.42268  0.42268  0.00000  0.15463
      22     H     0.42283  0.42283  0.00000  0.15434
      23     H     0.41925  0.41925  0.00000  0.16150
      24     H     0.42195  0.42195  0.00000  0.15610
      25     H     0.42201  0.42201  0.00000  0.15599
      26     C     3.09243  3.09243  0.00000 -0.18487
      27     H     0.40908  0.40908  0.00000  0.18184
      28     H     0.40845  0.40845  0.00000  0.18310
      29     H     0.40911  0.40911  0.00000  0.18179

   Total alpha = 44.00000, Total beta = 44.00000, Total charge =  0.00000
