                              Psi4 1.0.54 Driver

  ==> Input File <==

--------------------------------------------------------------------------
set {
	reference rhf
	basis cc-pvtz
}

set_num_threads( 4 )
memory 2 gb

molecule MOL {
0 1

H	 2.090593	 0.067655	 0.368348
C	 1.189514	 -0.484961	 0.209589
C	 1.182031	 -1.865061	 0.208244
C	 0.000000	 0.179985	 0.000046
H	 2.096652	 -2.400808	 0.369360
C	 -0.000001	 -2.552036	 -0.000007
N	 0.000000	 1.644631	 0.000076
C	 -1.189514	 -0.484952	 -0.209525
H	 -0.000000	 -3.625035	 -0.000032
C	 -1.182032	 -1.865052	 -0.208234
O	 1.050559	 2.194174	 -0.000073
O	 -1.050559	 2.194174	 -0.000074
H	 -2.090595	 0.067670	 -0.368253
H	 -2.096652	 -2.400793	 -0.369375

	symmetry c1
}
set optking {
	frozen_dihedral = ("
		2 4 7 11
	")
}

ee,wfn = optimize('scf', return_wfn=True)
oeprop( wfn, 'DIPOLE', 'QUADRUPOLE', 'MULLIKEN_CHARGES')
f=open( 'psi4out.xyz', 'w' )
f.write( "14  " )
f.write( str(ee) + "\n" )
f.write( MOL.save_string_xyz() )
f.close()
--------------------------------------------------------------------------

    Molecular point group: c1
  Charge       = 0
  Multiplicity = 1
  Basis Set: CC-PVTZ
  Basis Set:
  @DF-RHF Final Energy:  -434.32992158221958
    Total Energy =                       -434.3299215822196402
    Molecular point group: c1
  Basis Set: CC-PVTZ
  Basis Set:
  Basis Set: CC-PVTZ
  Basis Set:
  @DF-RHF Final Energy:  -434.32846566408796
    Total Energy =                       -434.3284656640876165
  Basis Set: CC-PVTZ
  Basis Set:
  Basis Set: CC-PVTZ
  Basis Set:
  @DF-RHF Final Energy:  -434.32985490844931
    Total Energy =                       -434.3298549084491924
  Basis Set: CC-PVTZ
  Basis Set:
  Basis Set: CC-PVTZ
  Basis Set:
  @DF-RHF Final Energy:  -434.32993476315568
    Total Energy =                       -434.3299347631550518
  Basis Set: CC-PVTZ
  Basis Set:
  Basis Set: CC-PVTZ
  Basis Set:
  @DF-RHF Final Energy:  -434.32993576355477
    Total Energy =                       -434.3299357635545448
  Basis Set: CC-PVTZ
  Basis Set:
  Charge       = 0
  Multiplicity = 1
  Basis Set: CC-PVTZ
  Basis Set:

    Orbital Energies (a.u.)
    -----------------------

    Doubly Occupied:

       1A    -20.591849     2A    -20.591792     3A    -15.847742
       4A    -11.302497     5A    -11.267250     6A    -11.267205
       7A    -11.264737     8A    -11.258268     9A    -11.258131
      10A     -1.641231    11A     -1.423614    12A     -1.204598
      13A     -1.095744    14A     -1.055092    15A     -0.959468
      16A     -0.867258    17A     -0.829008    18A     -0.789380
      19A     -0.740759    20A     -0.735323    21A     -0.711713
      22A     -0.659643    23A     -0.651969    24A     -0.626429
      25A     -0.555412    26A     -0.541039    27A     -0.531377
      28A     -0.492397    29A     -0.491610    30A     -0.457598
      31A     -0.377582    32A     -0.369334

  @DF-RHF Final Energy:  -434.32993631358522

   => Energetics <=

    Nuclear Repulsion Energy =            418.2257508703519306
    One-Electron Energy =               -1420.1972737740595676
    Two-Electron Energy =                 567.6415865901225288
    DFT Exchange-Correlation Energy =       0.0000000000000000
    Empirical Dispersion Energy =           0.0000000000000000
    PCM Polarization Energy =               0.0000000000000000
    EFP Energy =                            0.0000000000000000
    Total Energy =                       -434.3299363135851081
    Molecular point group: c1
  Basis Set: CC-PVTZ
  Basis Set:

  -Total Gradient:
     Atom            X                  Y                   Z
    ------   -----------------  -----------------  -----------------
       1       -0.000004142187    -0.000004436629    -0.000001134505
       2       -0.000135669671    -0.000004299417     0.000769676822
       3        0.000001688097    -0.000001179749    -0.000000909822
       4        0.000199339611    -0.000000748419    -0.001440373942
       5       -0.000000095369     0.000000223145     0.000000240103
       6        0.000000093323    -0.000000426334    -0.000004039614
       7       -0.000054403924     0.000025209199     0.001581237605
       8        0.000007221366    -0.000000559924    -0.000005919337
       9       -0.000001425594     0.000000064686     0.000000540640
      10       -0.000001507195     0.000000865503     0.000003867648
      11        0.000002911100     0.000001194198    -0.000901751167
      12       -0.000010066176    -0.000018782305     0.000000397763
      13       -0.000003057958     0.000003106663    -0.000001843004
      14       -0.000000885423    -0.000000230613     0.000000010812

  **** Optimization is complete! (in 6 steps) ****
    Final optimized geometry and variables:
    Molecular point group: c1

    Geometry (in Angstrom), charge = 0, multiplicity = 1:

    H            2.089401207387     0.068794601315     0.374783501014
    C            1.188096236167    -0.484226091510     0.218106125497
    C            1.177690621480    -1.864208976015     0.233539877786
    C            0.001147065786     0.179919409773    -0.006180543683
    H            2.089567808018    -2.399895387906     0.409615452136
    C           -0.003763977690    -2.551168368092     0.022322006794
    N            0.002322084801     1.644023180861    -0.012357561161
    C           -1.189156566019    -0.484401034518    -0.211366574119
    H           -0.005579659700    -3.624081911082     0.032709587987
    C           -1.183143715690    -1.864445561653    -0.201016993776
    O            1.053680280275     2.192168208323    -0.004305002760
    O           -1.048039086550     2.193783627953    -0.031314884922
    H           -2.089271745684     0.068479380867    -0.375176350715
    H           -2.097197961568    -2.400385894101    -0.364603168783

  Mulliken Charges: (a.u.)
   Center  Symbol    Alpha    Beta     Spin     Total
       1     H     0.39947  0.39947  0.00000  0.20106
       2     C     3.07744  3.07744  0.00000 -0.15489
       3     C     3.07219  3.07219  0.00000 -0.14439
       4     C     2.97886  2.97886  0.00000  0.04228
       5     H     0.41694  0.41694  0.00000  0.16612
       6     C     3.06468  3.06468  0.00000 -0.12936
       7     N     3.25405  3.25405  0.00000  0.49189
       8     C     3.07734  3.07734  0.00000 -0.15467
       9     H     0.41709  0.41709  0.00000  0.16582
      10     C     3.07213  3.07213  0.00000 -0.14427
      11     O     4.17665  4.17665  0.00000 -0.35331
      12     O     4.17672  4.17672  0.00000 -0.35344
      13     H     0.39948  0.39948  0.00000  0.20103
      14     H     0.41694  0.41694  0.00000  0.16611

   Total alpha = 32.00000, Total beta = 32.00000, Total charge = -0.00000

*** Psi4 exiting successfully. Buy a developer a beer!
