  ==> Input File <==

--------------------------------------------------------------------------
set {
	reference rhf
	basis cc-pvtz
}

set_num_threads( 4 )
memory 2 gb

molecule MOL {
0 1

H	 -2.634881	 0.644738	 0.776669
C	 -2.542431	 0.094930	 -0.150361
C	 -1.281705	 -0.755563	 -0.157060
H	 -2.528605	 0.815917	 -0.956713
H	 -3.418889	 -0.531459	 -0.265952
C	 0.000000	 0.039916	 0.000014
H	 -1.204816	 -1.325072	 -1.079365
H	 -1.310158	 -1.494805	 0.638933
C	 1.286532	 -0.763243	 0.000268
O	 -0.003567	 1.221835	 0.115911
C	 2.547023	 0.087626	 -0.000114
H	 1.264245	 -1.421103	 -0.864380
H	 1.264290	 -1.420353	 0.865489
H	 2.584452	 0.725630	 -0.872909
H	 3.427035	 -0.544422	 0.000125
H	 2.584484	 0.726356	 0.872143

	symmetry c1
}
set optking {
	frozen_dihedral = ("
		3 6 9 12
	")
}

ee = optimize('scf')
oeprop('DIPOLE', 'QUADRUPOLE', 'MULLIKEN_CHARGES')
f=open( 'psi4out.xyz', 'w' )
f.write( "16  " )
f.write( str(ee) + "\n" )
f.write( MOL.save_string_xyz() )
f.close()
--------------------------------------------------------------------------

    Molecular point group: c1
  Charge       = 0
  Multiplicity = 1
  Basis Set: CC-PVTZ
  Basis Set:
  @DF-RHF Final Energy:  -270.13180155394741
    Total Energy =                       -270.1318015539474686
    Molecular point group: c1
  Basis Set: CC-PVTZ
  Basis Set:
  Basis Set: CC-PVTZ
  Basis Set:
  @DF-RHF Final Energy:  -270.13183035764337
    Total Energy =                       -270.1318303576433664
  Basis Set: CC-PVTZ
  Basis Set:
  Basis Set: CC-PVTZ
  Basis Set:
  @DF-RHF Final Energy:  -270.13162105531330
    Total Energy =                       -270.1316210553134169
  Basis Set: CC-PVTZ
  Basis Set:
  Basis Set: CC-PVTZ
  Basis Set:
  @DF-RHF Final Energy:  -270.13185103051893
    Total Energy =                       -270.1318510305187033
  Basis Set: CC-PVTZ
  Basis Set:
  Basis Set: CC-PVTZ
  Basis Set:
  @DF-RHF Final Energy:  -270.13185310022016
    Total Energy =                       -270.1318531002202690
  Basis Set: CC-PVTZ
  Basis Set:
  Charge       = 0
  Multiplicity = 1
  Basis Set: CC-PVTZ
  Basis Set:

    Orbital Energies (a.u.)
    -----------------------

    Doubly Occupied:

       1A    -20.539158     2A    -11.317912     3A    -11.232233
       4A    -11.232206     5A    -11.211871     6A    -11.211827
       7A     -1.399415     8A     -1.069452     9A     -1.037238
      10A     -0.917093    11A     -0.846108    12A     -0.725968
      13A     -0.669657    14A     -0.648976    15A     -0.620100
      16A     -0.608020    17A     -0.561234    18A     -0.528030
      19A     -0.525710    20A     -0.510978    21A     -0.505160
      22A     -0.492438    23A     -0.487944    24A     -0.401200

  @DF-RHF Final Energy:  -270.13185340227005

   => Energetics <=

    Nuclear Repulsion Energy =            240.3552418183346333
    One-Electron Energy =                -842.3743333034399257
    Two-Electron Energy =                 331.8872380828353243
    DFT Exchange-Correlation Energy =       0.0000000000000000
    Empirical Dispersion Energy =           0.0000000000000000
    PCM Polarization Energy =               0.0000000000000000
    EFP Energy =                            0.0000000000000000
    Total Energy =                       -270.1318534022699396
    Molecular point group: c1
  Basis Set: CC-PVTZ
  Basis Set:

  -Total Gradient:
     Atom            X                  Y                   Z
    ------   -----------------  -----------------  -----------------
       1       -0.000001541060     0.000001742760    -0.000000930974
       2       -0.000001585901    -0.000003703964     0.000003054888
       3        0.000008851926     0.000014107913    -0.000096681089
       4        0.000002066886    -0.000001554272     0.000001043057
       5       -0.000001649089     0.000000301460     0.000000752480
       6       -0.000029767428    -0.000034688547     0.000172951338
       7        0.000003166629    -0.000007162220    -0.000006597764
       8        0.000000008258     0.000007203545    -0.000006701827
       9        0.000074662476     0.000109144272    -0.000141173613
      10       -0.000001465182     0.000002690770    -0.000003536425
      11        0.000001195354    -0.000003581712     0.000000202769
      12       -0.000056759771    -0.000082633895     0.000077435720
      13       -0.000000682723    -0.000003127671     0.000006587470
      14        0.000002365952     0.000001227190    -0.000001041046
      15        0.000001720090     0.000001050929    -0.000002408002
      16       -0.000000586419    -0.000001016558    -0.000002956982

  **** Optimization is complete! (in 6 steps) ****
    Final optimized geometry and variables:
    Molecular point group: c1

    Geometry (in Angstrom), charge = 0, multiplicity = 1:

    H           -2.618576980328     0.599671693527     0.881626785866
    C           -2.546194919565     0.087116652969    -0.068634540026
    C           -1.282028347942    -0.755273513164    -0.139645582446
    H           -2.555174814248     0.839043074780    -0.845851120962
    H           -3.422444689099    -0.539127147064    -0.186545273835
    C           -0.000184728941     0.041744117791     0.006762430988
    H           -1.225547131144    -1.284427415584    -1.087540154378
    H           -1.286188720660    -1.527789525899     0.624198044778
    C            1.282821879855    -0.765122188277     0.060073047643
    O           -0.000948388483     1.227321517171     0.075887876856
    C            2.546565088363     0.080898574749     0.061544304956
    H            1.279596806265    -1.459516260615    -0.775220079020
    H            1.234771937240    -1.384587172911     0.952260323142
    H            2.610806856204     0.684757324282    -0.834192406478
    H            3.423653889514    -0.553394538982     0.109216729570
    H            2.562498010564     0.752409402393     0.909011122028

  Mulliken Charges: (a.u.)
   Center  Symbol    Alpha    Beta     Spin     Total
       1     H     0.44902  0.44902  0.00000  0.10196
       2     C     3.14076  3.14076  0.00000 -0.28151
       3     C     3.09812  3.09812  0.00000 -0.19624
       4     H     0.44667  0.44667  0.00000  0.10666
       5     H     0.45073  0.45073  0.00000  0.09854
       6     C     2.87427  2.87427  0.00000  0.25145
       7     H     0.44568  0.44568  0.00000  0.10864
       8     H     0.44622  0.44622  0.00000  0.10756
       9     C     3.09804  3.09804  0.00000 -0.19607
      10     O     4.17144  4.17144  0.00000 -0.34287
      11     C     3.14078  3.14078  0.00000 -0.28155
      12     H     0.44618  0.44618  0.00000  0.10764
      13     H     0.44573  0.44573  0.00000  0.10854
      14     H     0.44927  0.44927  0.00000  0.10146
      15     H     0.45071  0.45071  0.00000  0.09858
      16     H     0.44639  0.44639  0.00000  0.10722

   Total alpha = 24.00000, Total beta = 24.00000, Total charge =  0.00000
