                              Psi4 1.0.54 Driver

  ==> Input File <==

--------------------------------------------------------------------------
set {
	reference rhf
	basis cc-pvtz
}

set_num_threads( 4 )
memory 2 gb

molecule MOL {
0 1

H	 -0.939693	 0.000281	 1.681345
O	 -0.046262	 -0.000157	 1.387678
C	 -0.000837	 0.000006	 -0.025491
C	 1.117117	 -0.925709	 -0.501286
C	 -1.350428	 -0.451290	 -0.580541
C	 0.289036	 1.441714	 -0.420001
H	 1.200089	 -0.918535	 -1.581961
H	 0.928059	 -1.948817	 -0.190515
H	 2.065465	 -0.615644	 -0.080622
H	 -1.357798	 -0.426688	 -1.664113
H	 -1.573436	 -1.467893	 -0.270929
H	 -2.140532	 0.192975	 -0.215680
H	 0.343300	 1.544150	 -1.497429
H	 1.230828	 1.764425	 0.005555
H	 -0.490542	 2.095416	 -0.049668

	symmetry c1
}
set optking {
	frozen_dihedral = ("
		4 3 2 1
	")
}

ee,wfn = optimize('scf', return_wfn=True)
oeprop( wfn, 'DIPOLE', 'QUADRUPOLE', 'MULLIKEN_CHARGES')
f=open( 'psi4out.xyz', 'w' )
f.write( "15  " )
f.write( str(ee) + "\n" )
f.write( MOL.save_string_xyz() )
f.close()
--------------------------------------------------------------------------

    Molecular point group: c1
  Charge       = 0
  Multiplicity = 1
  Basis Set: CC-PVTZ
  Basis Set:
  @DF-RHF Final Energy:  -232.24402342770841
    Total Energy =                       -232.2440234277082709
    Molecular point group: c1
  Basis Set: CC-PVTZ
  Basis Set:
  Basis Set: CC-PVTZ
  Basis Set:
  @DF-RHF Final Energy:  -232.21197402032044
    Total Energy =                       -232.2119740203205538
  Basis Set: CC-PVTZ
  Basis Set:
  Basis Set: CC-PVTZ
  Basis Set:
  @DF-RHF Final Energy:  -232.24430091662535
    Total Energy =                       -232.2443009166253773
  Basis Set: CC-PVTZ
  Basis Set:
  Basis Set: CC-PVTZ
  Basis Set:
  @DF-RHF Final Energy:  -232.24521790500873
    Total Energy =                       -232.2452179050087580
  Basis Set: CC-PVTZ
  Basis Set:
  Basis Set: CC-PVTZ
  Basis Set:
  @DF-RHF Final Energy:  -232.24523708782598
    Total Energy =                       -232.2452370878260695
  Basis Set: CC-PVTZ
  Basis Set:
  Basis Set: CC-PVTZ
  Basis Set:
  @DF-RHF Final Energy:  -232.24523932216130
    Total Energy =                       -232.2452393221612965
  Basis Set: CC-PVTZ
  Basis Set:
  Basis Set: CC-PVTZ
  Basis Set:
  @DF-RHF Final Energy:  -232.24524192065439
    Total Energy =                       -232.2452419206544505
  Basis Set: CC-PVTZ
  Basis Set:
  Charge       = 0
  Multiplicity = 1
  Basis Set: CC-PVTZ
  Basis Set:

    Orbital Energies (a.u.)
    -----------------------

    Doubly Occupied:

       1A    -20.540703     2A    -11.281052     3A    -11.215281
       4A    -11.204315     5A    -11.203372     6A     -1.363302
       7A     -1.065648     8A     -0.945531     9A     -0.937412
      10A     -0.778586    11A     -0.672006    12A     -0.624536
      13A     -0.622940    14A     -0.576348    15A     -0.557550
      16A     -0.534202    17A     -0.517075    18A     -0.511330
      19A     -0.503692    20A     -0.457976    21A     -0.427352

  @DF-RHF Final Energy:  -232.24524184366422

   => Energetics <=

    Nuclear Repulsion Energy =            200.6024567152699376
    One-Electron Energy =                -712.6149751303147468
    Two-Electron Energy =                 279.7672765713804779
    DFT Exchange-Correlation Energy =       0.0000000000000000
    Empirical Dispersion Energy =           0.0000000000000000
    PCM Polarization Energy =               0.0000000000000000
    EFP Energy =                            0.0000000000000000
    Total Energy =                       -232.2452418436643597
    Molecular point group: c1
  Basis Set: CC-PVTZ
  Basis Set:

  -Total Gradient:
     Atom            X                  Y                   Z
    ------   -----------------  -----------------  -----------------
       1        0.000018549001    -0.001614098027     0.000407617278
       2       -0.000202778675     0.001695194497    -0.000512727034
       3        0.000824352866     0.000678082562     0.000050029553
       4       -0.000649117381    -0.000752780130     0.000044416230
       5       -0.000011750153    -0.000007541617    -0.000014491364
       6        0.000011101573     0.000006587025    -0.000041554523
       7       -0.000028289227    -0.000003575873     0.000019288699
       8        0.000012292521    -0.000012659904     0.000016242208
       9       -0.000003246420     0.000017449781    -0.000007871777
      10       -0.000005533921     0.000003883179     0.000036530149
      11       -0.000006718914     0.000015271634    -0.000011168629
      12        0.000030211970    -0.000019695095    -0.000006653898
      13       -0.000006900706     0.000017437565     0.000014663818
      14       -0.000004151321    -0.000006764142    -0.000002183398
      15        0.000021978787    -0.000016791454     0.000007862688

  **** Optimization is complete! (in 8 steps) ****
    Final optimized geometry and variables:
    Molecular point group: c1

    Geometry (in Angstrom), charge = 0, multiplicity = 1:

    H           -1.229104813211     0.355343461639     1.449275780272
    O           -0.299944967688     0.332911389650     1.317748352788
    C            0.007959206784    -0.001968110726    -0.024208858713
    C            1.205164267033    -0.943368186718     0.032573631224
    C           -1.186409705259    -0.696757278351    -0.673054022272
    C            0.359697947402     1.280072100419    -0.774608272564
    H            1.536638741876    -1.213926825305    -0.963408448144
    H            0.947893432571    -1.847370706696     0.570295504439
    H            2.028516333499    -0.467138822273     0.550302273188
    H           -0.963013037338    -0.983309148067    -1.693228658464
    H           -1.453059321180    -1.590855687470    -0.121029037688
    H           -2.049407827115    -0.037935235355    -0.697217825789
    H            0.644873874673     1.071828514412    -1.799853602258
    H            1.183108265637     1.783359110902    -0.283751358203
    H           -0.487039450809     1.956987683739    -0.787538229320

  Mulliken Charges: (a.u.)
   Center  Symbol    Alpha    Beta     Spin     Total
       1     H     0.39271  0.39271  0.00000  0.21458
       2     O     4.21447  4.21447  0.00000 -0.42895
       3     C     2.87976  2.87976  0.00000  0.24049
       4     C     3.14012  3.14012  0.00000 -0.28024
       5     C     3.16065  3.16065  0.00000 -0.32131
       6     C     3.14192  3.14192  0.00000 -0.28385
       7     H     0.45946  0.45946  0.00000  0.08108
       8     H     0.45193  0.45193  0.00000  0.09615
       9     H     0.44740  0.44740  0.00000  0.10520
      10     H     0.45123  0.45123  0.00000  0.09754
      11     H     0.44606  0.44606  0.00000  0.10789
      12     H     0.45273  0.45273  0.00000  0.09455
      13     H     0.45870  0.45870  0.00000  0.08260
      14     H     0.44820  0.44820  0.00000  0.10360
      15     H     0.45467  0.45467  0.00000  0.09066

   Total alpha = 21.00000, Total beta = 21.00000, Total charge = -0.00000

*** Psi4 exiting successfully. Buy a developer a beer!
