  ==> Input File <==

--------------------------------------------------------------------------
set {
	reference rhf
	basis 6-31G*
}

set_num_threads( 1 )
memory 2 gb

molecule MOL {
0 1

H	 -3.261111	 -0.295142	 1.469456
C	 -3.306842	 -0.277400	 0.373456
C	 -2.660244	 0.921717	 -0.272021
O	 -3.838538	 -1.161155	 -0.216482
C	 -1.730028	 1.676684	 0.687655
H	 -2.133471	 0.590126	 -1.159301
H	 -3.463186	 1.586074	 -0.589147
C	 -0.488154	 0.876890	 1.089374
H	 -1.423836	 2.603539	 0.211765
H	 -2.286121	 1.963531	 1.578854
C	 0.435205	 1.645707	 2.036550
H	 0.061540	 0.598795	 0.192520
H	 -0.787379	 -0.057486	 1.560485
C	 1.684065	 0.849101	 2.423484
H	 0.722310	 2.582245	 1.565171
H	 -0.114429	 1.912254	 2.938348
C	 2.599021	 1.546531	 3.436656
H	 2.254755	 0.615661	 1.525980
H	 1.372007	 -0.105967	 2.840830
C	 3.268166	 2.820206	 2.917409
H	 3.372977	 0.845519	 3.739182
H	 2.031197	 1.777113	 4.335727
H	 3.830513	 2.622816	 2.008524
H	 2.545101	 3.598317	 2.696741
H	 3.960050	 3.218943	 3.653141

	symmetry c1
}
set optking {
	frozen_dihedral = ("
		6 3 5 8,
		3 5 8 12,
		12 8 11 14,
		8 11 14 18,
		20 17 14 18
	")
}

ee = energy('scf')
oeprop('DIPOLE', 'QUADRUPOLE', 'MULLIKEN_CHARGES')
f=open( 'psi4out.xyz', 'w' )
f.write( "25  " )
f.write( str(ee) + "\n" )
f.write( MOL.save_string_xyz() )
f.close()
--------------------------------------------------------------------------

    Molecular point group: c1

    Geometry (in Angstrom), charge = 0, multiplicity = 1:

       Center              X                  Y                   Z               Mass
    ------------   -----------------  -----------------  -----------------  -----------------
           H         -2.815828663771    -1.281600967824     0.082944846890     1.007825032070
           C         -2.861559663771    -1.263858967824    -1.013055153110    12.000000000000
           C         -2.214961663771    -0.064741967824    -1.658532153110    12.000000000000
           O         -3.393255663771    -2.147613967824    -1.602993153110    15.994914619560
           C         -1.284745663771     0.690225032176    -0.698856153110    12.000000000000
           H         -1.688188663771    -0.396332967824    -2.545812153110     1.007825032070
           H         -3.017903663771     0.599615032176    -1.975658153110     1.007825032070
           C         -0.042871663771    -0.109568967824    -0.297137153110    12.000000000000
           H         -0.978553663771     1.617080032176    -1.174746153110     1.007825032070
           H         -1.840838663771     0.977072032176     0.192342846890     1.007825032070
           C          0.880487336229     0.659248032176     0.650038846890    12.000000000000
           H          0.506822336229    -0.387663967824    -1.193991153110     1.007825032070
           H         -0.342096663771    -1.043944967824     0.173973846890     1.007825032070
           C          2.129347336229    -0.137357967824     1.036972846890    12.000000000000
           H          1.167592336229     1.595786032176     0.178659846890     1.007825032070
           H          0.330853336229     0.925795032176     1.551836846890     1.007825032070
           C          3.044303336229     0.560072032176     2.050144846890    12.000000000000
           H          2.700037336229    -0.370797967824     0.139468846890     1.007825032070
           H          1.817289336229    -1.092425967824     1.454318846890     1.007825032070
           C          3.713448336229     1.833747032176     1.530897846890    12.000000000000
           H          3.818259336229    -0.140939967824     2.352670846890     1.007825032070
           H          2.476479336229     0.790654032176     2.949215846890     1.007825032070
           H          4.275795336229     1.636357032176     0.622012846890     1.007825032070
           H          2.990383336229     2.611858032176     1.310229846890     1.007825032070
           H          4.405332336229     2.232484032176     2.266629846890     1.007825032070

  Charge       = 0
  Multiplicity = 1
  Basis Set: 6-31G*
  Basis Set:

    Orbital Energies (a.u.)
    -----------------------

    Doubly Occupied:

       1A    -20.560959     2A    -11.326450     3A    -11.235365
       4A    -11.233586     5A    -11.226903     6A    -11.221827
       7A    -11.219577     8A    -11.218864     9A    -11.211952
      10A     -1.401431    11A     -1.105881    12A     -1.071186
      13A     -1.014517    14A     -0.942891    15A     -0.875283
      16A     -0.824020    17A     -0.789223    18A     -0.783645
      19A     -0.664701    20A     -0.655392    21A     -0.633980
      22A     -0.630833    23A     -0.610182    24A     -0.596913
      25A     -0.569285    26A     -0.551939    27A     -0.540366
      28A     -0.524979    29A     -0.506485    30A     -0.499272
      31A     -0.490545    32A     -0.481018    33A     -0.466639
      34A     -0.460877    35A     -0.442616    36A     -0.408914

  @DF-RHF Final Energy:  -387.12068331324457

   => Energetics <=

    Nuclear Repulsion Energy =            437.3984428598983527
    One-Electron Energy =               -1391.0413371296101559
    Two-Electron Energy =                 566.5222109564659831
    DFT Exchange-Correlation Energy =       0.0000000000000000
    Empirical Dispersion Energy =           0.0000000000000000
    PCM Polarization Energy =               0.0000000000000000
    EFP Energy =                            0.0000000000000000
    Total Energy =                       -387.1206833132458769

  Mulliken Charges: (a.u.)
   Center  Symbol    Alpha    Beta     Spin     Total
       1     H     0.43063  0.43063  0.00000  0.13873
       2     C     2.83398  2.83398  0.00000  0.33204
       3     C     3.20678  3.20678  0.00000 -0.41357
       4     O     4.24095  4.24095  0.00000 -0.48190
       5     C     3.16874  3.16874  0.00000 -0.33748
       6     H     0.39832  0.39832  0.00000  0.20336
       7     H     0.39896  0.39896  0.00000  0.20207
       8     C     3.15591  3.15591  0.00000 -0.31182
       9     H     0.41331  0.41331  0.00000  0.17337
      10     H     0.41943  0.41943  0.00000  0.16114
      11     C     3.15368  3.15368  0.00000 -0.30736
      12     H     0.41888  0.41888  0.00000  0.16223
      13     H     0.42161  0.42161  0.00000  0.15677
      14     C     3.15312  3.15312  0.00000 -0.30624
      15     H     0.42014  0.42014  0.00000  0.15973
      16     H     0.42322  0.42322  0.00000  0.15356
      17     C     3.15281  3.15281  0.00000 -0.30562
      18     H     0.42313  0.42313  0.00000  0.15374
      19     H     0.42130  0.42130  0.00000  0.15739
      20     C     3.24144  3.24144  0.00000 -0.48288
      21     H     0.41988  0.41988  0.00000  0.16024
      22     H     0.42302  0.42302  0.00000  0.15397
      23     H     0.42186  0.42186  0.00000  0.15628
      24     H     0.42050  0.42050  0.00000  0.15899
      25     H     0.41839  0.41839  0.00000  0.16322

   Total alpha = 36.00000, Total beta = 36.00000, Total charge =  0.00000
