                              Psi4 1.0.54 Driver

  ==> Input File <==

--------------------------------------------------------------------------
set {
	reference rhf
	basis cc-pvtz
}

set_num_threads( 4 )
memory 2 gb

molecule MOL {
0 1

H	 -3.436473	 1.252944	 -1.023892
O	 -3.458596	 0.315260	 -0.960865
C	 -3.176635	 -0.080824	 0.355601
C	 -1.763371	 0.265266	 0.799691
H	 -3.321825	 -1.153438	 0.379502
H	 -3.895468	 0.357385	 1.043382
C	 -0.673390	 -0.426948	 -0.013392
H	 -1.631049	 1.344913	 0.747560
H	 -1.664587	 -0.001624	 1.849167
C	 0.737842	 -0.043159	 0.423759
H	 -0.806103	 -0.190518	 -1.063345
H	 -0.797221	 -1.503753	 0.074146
C	 1.759328	 -0.144709	 -0.707303
H	 0.721332	 0.968054	 0.818811
H	 1.049157	 -0.686225	 1.244372
C	 3.203322	 0.152333	 -0.299262
H	 1.470155	 0.526552	 -1.512683
H	 1.718781	 -1.148249	 -1.121891
C	 3.462584	 1.595768	 0.125500
H	 3.851964	 -0.084666	 -1.137038
H	 3.493245	 -0.517559	 0.506101
H	 3.176215	 2.289469	 -0.658623
H	 4.514766	 1.751766	 0.334831
H	 2.910961	 1.861230	 1.019282

	symmetry c1
}
set optking {
	frozen_dihedral = ("
		13 10 7 11
	")
}

ee,wfn = optimize('scf', return_wfn=True)
oeprop( wfn, 'DIPOLE', 'QUADRUPOLE', 'MULLIKEN_CHARGES')
f=open( 'psi4out.xyz', 'w' )
f.write( "24  " )
f.write( str(ee) + "\n" )
f.write( MOL.save_string_xyz() )
f.close()
--------------------------------------------------------------------------

    Molecular point group: c1
  Charge       = 0
  Multiplicity = 1
  Basis Set: CC-PVTZ
  Basis Set:
  @DF-RHF Final Energy:  -349.37788847756821
    Total Energy =                       -349.3778884775681490
    Molecular point group: c1
  Basis Set: CC-PVTZ
  Basis Set:
  Basis Set: CC-PVTZ
  Basis Set:
  @DF-RHF Final Energy:  -349.37806279025193
    Total Energy =                       -349.3780627902521587
  Basis Set: CC-PVTZ
  Basis Set:
  Basis Set: CC-PVTZ
  Basis Set:
  @DF-RHF Final Energy:  -349.37815626663763
    Total Energy =                       -349.3781562666376885
  Basis Set: CC-PVTZ
  Basis Set:
  Basis Set: CC-PVTZ
  Basis Set:
  @DF-RHF Final Energy:  -349.37814990989085
    Total Energy =                       -349.3781499098906806
  Basis Set: CC-PVTZ
  Basis Set:
  Basis Set: CC-PVTZ
  Basis Set:
  @DF-RHF Final Energy:  -349.37816482556013
    Total Energy =                       -349.3781648255597929
  Basis Set: CC-PVTZ
  Basis Set:
  Charge       = 0
  Multiplicity = 1
  Basis Set: CC-PVTZ
  Basis Set:

    Orbital Energies (a.u.)
    -----------------------

    Doubly Occupied:

       1A    -20.546234     2A    -11.265493     3A    -11.215653
       4A    -11.212033     5A    -11.210205     6A    -11.209619
       7A    -11.208924     8A    -11.205458     9A     -1.364064
      10A     -1.089213    11A     -1.049360    12A     -0.986480
      13A     -0.915870    14A     -0.851821    15A     -0.802613
      16A     -0.776711    17A     -0.682330    18A     -0.648782
      19A     -0.629684    20A     -0.618928    21A     -0.600043
      22A     -0.588709    23A     -0.550970    24A     -0.548870
      25A     -0.515353    26A     -0.507322    27A     -0.502995
      28A     -0.471156    29A     -0.468370    30A     -0.460676
      31A     -0.456591    32A     -0.450595    33A     -0.420836

  @DF-RHF Final Energy:  -349.37816504433806

   => Energetics <=

    Nuclear Repulsion Energy =            385.2806631094556451
    One-Electron Energy =               -1237.2537288340543000
    Two-Electron Energy =                 502.5949006802603094
    DFT Exchange-Correlation Energy =       0.0000000000000000
    Empirical Dispersion Energy =           0.0000000000000000
    PCM Polarization Energy =               0.0000000000000000
    EFP Energy =                            0.0000000000000000
    Total Energy =                       -349.3781650443383455
    Molecular point group: c1
  Basis Set: CC-PVTZ
  Basis Set:

  -Total Gradient:
     Atom            X                  Y                   Z
    ------   -----------------  -----------------  -----------------
       1       -0.000000782972     0.000009477827     0.000000705593
       2        0.000006024595    -0.000034773204    -0.000057424603
       3       -0.000026637914     0.000065715344     0.000039285180
       4        0.000014474827    -0.000045741013     0.000004454319
       5       -0.000002830215    -0.000002753522    -0.000008745974
       6       -0.000014933221    -0.000010699055     0.000012623613
       7       -0.001808377837     0.005863736339     0.000849477730
       8        0.000001076549     0.000001208396    -0.000004380417
       9        0.000017560178    -0.000008479913     0.000016128426
      10        0.001008016398    -0.004865717861     0.000871520550
      11        0.001307267250    -0.003815239529    -0.000944340868
      12       -0.000006787914    -0.000004743511     0.000019391068
      13       -0.000508862843     0.002854603879    -0.000810669539
      14       -0.000007726485     0.000000696030    -0.000002018954
      15        0.000005541124    -0.000008307665    -0.000002738137
      16        0.000012057998    -0.000016112032     0.000005298769
      17       -0.000007042795     0.000005931862     0.000004144126
      18       -0.000005591993    -0.000001522600     0.000001061756
      19        0.000000582229     0.000006466980     0.000010498021
      20       -0.000005426459    -0.000000471961     0.000009630913
      21        0.000008529792     0.000001853388    -0.000002987800
      22       -0.000001462197     0.000004483630    -0.000004490779
      23        0.000002329020     0.000001157483     0.000005129022
      24        0.000013002885    -0.000000769292    -0.000011552017

  **** Optimization is complete! (in 6 steps) ****
    Final optimized geometry and variables:
    Molecular point group: c1

    Geometry (in Angstrom), charge = 0, multiplicity = 1:

    H           -3.464638609579     0.938538576821    -1.012933422896
    O           -3.459217566302     0.004767972897    -0.904446502775
    C           -3.140979984989    -0.319087036085     0.423372110032
    C           -1.732587037634     0.093625801472     0.823100378821
    H           -3.249460263186    -1.393553991531     0.499495559974
    H           -3.861823915923     0.127026314646     1.104022486716
    C           -0.634819778030    -0.582878988183     0.009788006465
    H           -1.640608958635     1.174897651129     0.733358485776
    H           -1.600479207689    -0.134519018709     1.878348067411
    C            0.782911898836    -0.203899852785     0.452528196530
    H           -0.762328136304    -0.370163345937    -1.045375785301
    H           -0.753017722824    -1.661077132829     0.092630667887
    C            1.813032786560    -0.341345145754    -0.667370510850
    H            0.780131199424     0.823224565239     0.805026599615
    H            1.077211246291    -0.813059043221     1.302998904976
    C            3.263352788863    -0.105302837445    -0.243115157867
    H            1.556037239567     0.347818477397    -1.468129465698
    H            1.737654787735    -1.338912920360    -1.092766142254
    C            3.570158894163     1.317851711667     0.217279047090
    H            3.909556175189    -0.346058235519    -1.081717205687
    H            3.523200991590    -0.803319102679     0.548434975909
    H            3.310823602147     2.039903666104    -0.550608804100
    H            4.626207901354     1.432647117249     0.433575426706
    H            3.024323140114     1.580230855546     1.115500266306

  Mulliken Charges: (a.u.)
   Center  Symbol    Alpha    Beta     Spin     Total
       1     H     0.39531  0.39531  0.00000  0.20938
       2     O     4.20345  4.20345  0.00000 -0.40689
       3     C     2.97757  2.97757  0.00000  0.04487
       4     C     3.10230  3.10230  0.00000 -0.20460
       5     H     0.45892  0.45892  0.00000  0.08217
       6     H     0.46059  0.46059  0.00000  0.07882
       7     C     3.08785  3.08785  0.00000 -0.17569
       8     H     0.45906  0.45906  0.00000  0.08189
       9     H     0.45275  0.45275  0.00000  0.09450
      10     C     3.09372  3.09372  0.00000 -0.18744
      11     H     0.44678  0.44678  0.00000  0.10644
      12     H     0.45413  0.45413  0.00000  0.09175
      13     C     3.09411  3.09411  0.00000 -0.18822
      14     H     0.45489  0.45489  0.00000  0.09022
      15     H     0.45312  0.45312  0.00000  0.09377
      16     C     3.09032  3.09032  0.00000 -0.18063
      17     H     0.45412  0.45412  0.00000  0.09177
      18     H     0.44899  0.44899  0.00000  0.10203
      19     C     3.15307  3.15307  0.00000 -0.30614
      20     H     0.44868  0.44868  0.00000  0.10264
      21     H     0.45492  0.45492  0.00000  0.09017
      22     H     0.45517  0.45517  0.00000  0.08966
      23     H     0.44638  0.44638  0.00000  0.10724
      24     H     0.45383  0.45383  0.00000  0.09233

   Total alpha = 33.00000, Total beta = 33.00000, Total charge = -0.00000

*** Psi4 exiting successfully. Buy a developer a beer!
