  ==> Input File <==

--------------------------------------------------------------------------
set {
	reference rhf
	basis 6-31G*
}

set_num_threads( 4 )
memory 2 gb

molecule MOL {
0 1

H	 -2.172150	 0.880146	 0.502514
C	 -2.018062	 -0.000025	 -0.114509
O	 -0.774054	 0.001095	 -0.743181
H	 -2.760490	 0.003458	 -0.901350
H	 -2.173624	 -0.884374	 0.496163
C	 -0.035915	 1.206587	 -0.835228
C	 1.238254	 0.794637	 -1.569260
C	 -0.793543	 2.257324	 -1.653238
C	 0.313617	 1.748316	 0.554546
H	 0.992549	 0.385927	 -2.542922
H	 1.762986	 0.030958	 -1.006387
H	 1.901953	 1.642228	 -1.706201
H	 -1.099426	 1.841334	 -2.607395
H	 -0.157777	 3.115965	 -1.843342
H	 -1.678044	 2.616929	 -1.138556
H	 0.785850	 0.974970	 1.151189
H	 1.002342	 2.582655	 0.470464
H	 -0.561900	 2.103507	 1.087408

	symmetry c1
}
set optking {
	frozen_dihedral = ("
		6 3 2 5
	")
}

ee = optimize('scf')
oeprop('DIPOLE', 'QUADRUPOLE', 'MULLIKEN_CHARGES')
f=open( 'psi4out.xyz', 'w' )
f.write( "18  " )
f.write( str(ee) + "\n" )
f.write( MOL.save_string_xyz() )
f.close()
--------------------------------------------------------------------------

    Molecular point group: c1
  Charge       = 0
  Multiplicity = 1
  Basis Set: 6-31G*
  Basis Set:
  @DF-RHF Final Energy:  -271.17209970333107
    Total Energy =                       -271.1720997033310709
    Molecular point group: c1
  Basis Set: 6-31G*
  Basis Set:
  Basis Set: 6-31G*
  Basis Set:
  @DF-RHF Final Energy:  -271.17314900633141
    Total Energy =                       -271.1731490063314141
  Basis Set: 6-31G*
  Basis Set:
  Basis Set: 6-31G*
  Basis Set:
  @DF-RHF Final Energy:  -271.17330210638715
    Total Energy =                       -271.1733021063871547
  Basis Set: 6-31G*
  Basis Set:
  Basis Set: 6-31G*
  Basis Set:
  @DF-RHF Final Energy:  -271.17380667777377
    Total Energy =                       -271.1738066777737686
  Basis Set: 6-31G*
  Basis Set:
  Basis Set: 6-31G*
  Basis Set:
  @DF-RHF Final Energy:  -271.17384000280384
    Total Energy =                       -271.1738400028039564
  Basis Set: 6-31G*
  Basis Set:
  Basis Set: 6-31G*
  Basis Set:
  @DF-RHF Final Energy:  -271.17385169644911
    Total Energy =                       -271.1738516964489918
  Basis Set: 6-31G*
  Basis Set:
  Basis Set: 6-31G*
  Basis Set:
  @DF-RHF Final Energy:  -271.17385206297496
    Total Energy =                       -271.1738520629748450
  Basis Set: 6-31G*
  Basis Set:
  Charge       = 0
  Multiplicity = 1
  Basis Set: 6-31G*
  Basis Set:

    Orbital Energies (a.u.)
    -----------------------

    Doubly Occupied:

       1A    -20.544874     2A    -11.281809     3A    -11.260957
       4A    -11.209203     5A    -11.208128     6A    -11.203242
       7A     -1.368299     8A     -1.072579     9A     -0.945812
      10A     -0.939817    11A     -0.912730    12A     -0.752628
      13A     -0.654893    14A     -0.643981    15A     -0.638197
      16A     -0.590793    17A     -0.571254    18A     -0.551831
      19A     -0.538013    20A     -0.523793    21A     -0.514933
      22A     -0.489604    23A     -0.487136    24A     -0.437850
      25A     -0.401837

  @DF-RHF Final Energy:  -271.17385286151864

   => Energetics <=

    Nuclear Repulsion Energy =            272.2154985506589355
    One-Electron Energy =                -907.2903190620697842
    Two-Electron Energy =                 363.9009676498922090
    DFT Exchange-Correlation Energy =       0.0000000000000000
    Empirical Dispersion Energy =           0.0000000000000000
    PCM Polarization Energy =               0.0000000000000000
    EFP Energy =                            0.0000000000000000
    Total Energy =                       -271.1738528615186397
    Molecular point group: c1
  Basis Set: 6-31G*
  Basis Set:

  -Total Gradient:
     Atom            X                  Y                   Z
    ------   -----------------  -----------------  -----------------
       1       -0.000009154693     0.000001216078     0.000001791357
       2       -0.000471425768    -0.001353620417    -0.001067224575
       3       -0.000793211580     0.000619377731    -0.001914626277
       4        0.000011261000    -0.000005118173     0.000006083535
       5        0.000616667159     0.000994506258     0.001477262282
       6        0.000645625399    -0.000237394468     0.001458502032
       7        0.000024207321     0.000001723171     0.000007546991
       8       -0.000021491071    -0.000049750414     0.000006242817
       9       -0.000012044904     0.000038494976     0.000021029234
      10       -0.000005735345     0.000004785767     0.000006734748
      11        0.000012386075    -0.000005892797    -0.000010024010
      12        0.000006053383    -0.000002704886     0.000000463436
      13       -0.000022342083     0.000003456838    -0.000002471861
      14        0.000020481986    -0.000025688312     0.000004561440
      15       -0.000000808668     0.000010927521     0.000003387838
      16        0.000005702830    -0.000003006612    -0.000016156817
      17       -0.000012126831     0.000004215739     0.000011211333
      18        0.000005955790     0.000004472003     0.000005686498

  **** Optimization is complete! (in 8 steps) ****
    Final optimized geometry and variables:
    Molecular point group: c1

    Geometry (in Angstrom), charge = 0, multiplicity = 1:

    H           -1.875627728209    -0.098639019851     1.167107751920
    C           -1.686526120911    -0.973504875149     0.556241959351
    O           -0.399806531556    -0.992767033994     0.012977759530
    H           -2.437584500213    -1.010446268432    -0.227161709774
    H           -1.795097882368    -1.844767396318     1.190777079474
    C            0.335988307252     0.211184120889    -0.106946315963
    C            1.600689015395    -0.205581043158    -0.854171875541
    C           -0.437581942108     1.249127384881    -0.925790523550
    C            0.706495939112     0.761415822758     1.274103685166
    H            1.343740622317    -0.617666875353    -1.823391272378
    H            2.131120659186    -0.967456461875    -0.294272583257
    H            2.263789663545     0.640865404608    -1.001529020322
    H           -0.725575155171     0.831157886129    -1.884662065517
    H            0.176578912777     2.125365771149    -1.106539238432
    H           -1.336584141791     1.580310294583    -0.416472460240
    H            1.217098154408    -0.000638035254     1.852820470590
    H            1.366668881399     1.617348176629     1.176636439913
    H           -0.163728094702     1.085947136720     1.834206937258

  Mulliken Charges: (a.u.)
   Center  Symbol    Alpha    Beta     Spin     Total
       1     H     0.43040  0.43040  0.00000  0.13919
       2     C     3.07716  3.07716  0.00000 -0.15433
       3     O     4.32120  4.32120  0.00000 -0.64240
       4     H     0.42455  0.42455  0.00000  0.15090
       5     H     0.41658  0.41658  0.00000  0.16685
       6     C     2.84411  2.84411  0.00000  0.31178
       7     C     3.23304  3.23304  0.00000 -0.46607
       8     C     3.24683  3.24683  0.00000 -0.49366
       9     C     3.24387  3.24387  0.00000 -0.48774
      10     H     0.41443  0.41443  0.00000  0.17113
      11     H     0.41381  0.41381  0.00000  0.17237
      12     H     0.42509  0.42509  0.00000  0.14983
      13     H     0.41366  0.41366  0.00000  0.17268
      14     H     0.41946  0.41946  0.00000  0.16107
      15     H     0.42066  0.42066  0.00000  0.15869
      16     H     0.41340  0.41340  0.00000  0.17319
      17     H     0.42086  0.42086  0.00000  0.15828
      18     H     0.42088  0.42088  0.00000  0.15824

   Total alpha = 25.00000, Total beta = 25.00000, Total charge =  0.00000
