  ==> Input File <==

--------------------------------------------------------------------------
set {
	reference rhf
	basis 6-31G*
}

set_num_threads( 4 )
memory 2 gb

molecule MOL {
0 1

H	 -0.067412	 2.559964	 -0.319832
C	 0.805438	 1.909655	 -0.394124
N	 0.538815	 0.649616	 0.000000
O	 1.861189	 2.310587	 -0.786363
C	 1.521968	 -0.411503	 0.000000
H	 -0.384966	 0.446028	 0.305720
H	 2.150599	 -0.357004	 -0.881901
H	 0.999455	 -1.354525	 0.000000
H	 2.150599	 -0.357004	 0.881901

	symmetry c1
}
set optking {
	frozen_dihedral = ("
		6 3 5 7
	")
}

ee = optimize('scf')
oeprop('DIPOLE', 'QUADRUPOLE', 'MULLIKEN_CHARGES')
f=open( 'psi4out.xyz', 'w' )
f.write( "9  " )
f.write( str(ee) + "\n" )
f.write( MOL.save_string_xyz() )
f.close()
--------------------------------------------------------------------------

    Molecular point group: c1
  Charge       = 0
  Multiplicity = 1
  Basis Set: 6-31G*
  Basis Set:
  @DF-RHF Final Energy:  -207.96077126103026
    Total Energy =                       -207.9607712610302599
    Molecular point group: c1
  Basis Set: 6-31G*
  Basis Set:
  Basis Set: 6-31G*
  Basis Set:
  @DF-RHF Final Energy:  -207.96098260439339
    Total Energy =                       -207.9609826043933651
  Basis Set: 6-31G*
  Basis Set:
  Basis Set: 6-31G*
  Basis Set:
  @DF-RHF Final Energy:  -207.96097261474546
    Total Energy =                       -207.9609726147455149
  Basis Set: 6-31G*
  Basis Set:
  Basis Set: 6-31G*
  Basis Set:
  @DF-RHF Final Energy:  -207.96103749787329
    Total Energy =                       -207.9610374978733489
  Basis Set: 6-31G*
  Basis Set:
  Basis Set: 6-31G*
  Basis Set:
  @DF-RHF Final Energy:  -207.96105579061873
    Total Energy =                       -207.9610557906187580
  Basis Set: 6-31G*
  Basis Set:
  Basis Set: 6-31G*
  Basis Set:
  @DF-RHF Final Energy:  -207.96106180952918
    Total Energy =                       -207.9610618095291557
  Basis Set: 6-31G*
  Basis Set:
  Basis Set: 6-31G*
  Basis Set:
  @DF-RHF Final Energy:  -207.96106390318533
    Total Energy =                       -207.9610639031853623
  Basis Set: 6-31G*
  Basis Set:
  Charge       = 0
  Multiplicity = 1
  Basis Set: 6-31G*
  Basis Set:

    Orbital Energies (a.u.)
    -----------------------

    Doubly Occupied:

       1A    -20.526056     2A    -15.590401     3A    -11.342872
       4A    -11.261163     5A     -1.389350     6A     -1.235988
       7A     -0.967828     8A     -0.807927     9A     -0.746577
      10A     -0.641086    11A     -0.626761    12A     -0.592524
      13A     -0.557672    14A     -0.532903    15A     -0.423820
      16A     -0.391216

  @DF-RHF Final Energy:  -207.96106410964654

   => Energetics <=

    Nuclear Repulsion Energy =            122.6815620614614204
    One-Electron Energy =                -526.0169653686117499
    Two-Electron Energy =                 195.3743391975038151
    DFT Exchange-Correlation Energy =       0.0000000000000000
    Empirical Dispersion Energy =           0.0000000000000000
    PCM Polarization Energy =               0.0000000000000000
    EFP Energy =                            0.0000000000000000
    Total Energy =                       -207.9610641096465145
    Molecular point group: c1
  Basis Set: 6-31G*
  Basis Set:

  -Total Gradient:
     Atom            X                  Y                   Z
    ------   -----------------  -----------------  -----------------
       1        0.000003150013     0.000004654804    -0.000001381011
       2       -0.000021824749    -0.000025298999     0.000002391447
       3        0.000015830280     0.000036958224     0.000088042468
       4        0.000016760833     0.000013261131    -0.000011078385
       5        0.000034608727     0.000017727138     0.000006662246
       6       -0.000016239102    -0.000023503208    -0.000062336206
       7       -0.000031451660    -0.000025985900    -0.000022568985
       8        0.000000749540     0.000003961997    -0.000002256881
       9       -0.000001583881    -0.000001775188     0.000002525307

  **** Optimization is complete! (in 8 steps) ****
    Final optimized geometry and variables:
    Molecular point group: c1

    Geometry (in Angstrom), charge = 0, multiplicity = 1:

    H           -1.240905703412     1.479928890459    -0.038250398047
    C           -0.379832455523     0.812146500772    -0.095289977058
    N           -0.678729555253    -0.456539642928     0.239145477322
    O            0.701344950052     1.194605111579    -0.433151490720
    C            0.328142069527    -1.495788973714     0.277522294434
    H           -1.592619760241    -0.653346127965     0.575322450190
    H            0.922449126207    -1.463136001639    -0.624324257059
    H           -0.163757105215    -2.457164099108     0.340110805666
    H            0.989954880660    -1.382197169639     1.128989876625

  Mulliken Charges: (a.u.)
   Center  Symbol    Alpha    Beta     Spin     Total
       1     H     0.42695  0.42695  0.00000  0.14611
       2     C     2.74719  2.74719  0.00000  0.50562
       3     N     3.87471  3.87471  0.00000 -0.74942
       4     O     4.28306  4.28306  0.00000 -0.56611
       5     C     3.13738  3.13738  0.00000 -0.27475
       6     H     0.30811  0.30811  0.00000  0.38378
       7     H     0.39775  0.39775  0.00000  0.20450
       8     H     0.41554  0.41554  0.00000  0.16891
       9     H     0.40932  0.40932  0.00000  0.18136

   Total alpha = 16.00000, Total beta = 16.00000, Total charge = -0.00000
