  ==> Input File <==

--------------------------------------------------------------------------
set {
	reference rhf
	basis 6-31G*
}

set_num_threads( 1 )
memory 2 gb

molecule MOL {
0 1

H	 -1.056866	 -0.498549	 -0.504731
C	 -0.790252	 0.431209	 0.000000
N	 0.538815	 0.649616	 0.000000
O	 -1.616061	 1.146781	 0.484981
C	 1.521968	 -0.411503	 0.000000
H	 0.852804	 1.592852	 0.000000
H	 2.150599	 -0.357004	 -0.881901
H	 0.999455	 -1.354525	 0.000000
H	 2.150599	 -0.357004	 0.881901

	symmetry c1
}
set optking {
	frozen_dihedral = ("
		6 3 5 7
	")
}

ee = energy('scf')
oeprop('DIPOLE', 'QUADRUPOLE', 'MULLIKEN_CHARGES')
f=open( 'psi4out.xyz', 'w' )
f.write( "9  " )
f.write( str(ee) + "\n" )
f.write( MOL.save_string_xyz() )
f.close()
--------------------------------------------------------------------------

    Molecular point group: c1

    Geometry (in Angstrom), charge = 0, multiplicity = 1:

       Center              X                  Y                   Z               Mass
    ------------   -----------------  -----------------  -----------------  -----------------
           H         -0.982563122947    -0.950703619573    -0.627510531149     1.007825032070
           C         -0.715949122947    -0.020945619573    -0.122779531149    12.000000000000
           N          0.613117877053     0.197461380427    -0.122779531149    14.003074004780
           O         -1.541758122947     0.694626380427     0.362201468851    15.994914619560
           C          1.596270877053    -0.863657619573    -0.122779531149    12.000000000000
           H          0.927106877053     1.140697380427    -0.122779531149     1.007825032070
           H          2.224901877053    -0.809158619573    -1.004680531149     1.007825032070
           H          1.073757877053    -1.806679619573    -0.122779531149     1.007825032070
           H          2.224901877053    -0.809158619573     0.759121468851     1.007825032070

  Charge       = 0
  Multiplicity = 1
  Basis Set: 6-31G*
  Basis Set:

    Orbital Energies (a.u.)
    -----------------------

    Doubly Occupied:

       1A    -20.531319     2A    -15.583054     3A    -11.345158
       4A    -11.275006     5A     -1.390388     6A     -1.238335
       7A     -0.964290     8A     -0.845149     9A     -0.692695
      10A     -0.675727    11A     -0.634635    12A     -0.596584
      13A     -0.573661    14A     -0.531414    15A     -0.426042
      16A     -0.387676

  @DF-RHF Final Energy:  -207.94969093384012

   => Energetics <=

    Nuclear Repulsion Energy =            120.4660353696826576
    One-Electron Energy =                -521.4491696405170842
    Two-Electron Energy =                 193.0334433369941110
    DFT Exchange-Correlation Energy =       0.0000000000000000
    Empirical Dispersion Energy =           0.0000000000000000
    PCM Polarization Energy =               0.0000000000000000
    EFP Energy =                            0.0000000000000000
    Total Energy =                       -207.9496909338402872

  Mulliken Charges: (a.u.)
   Center  Symbol    Alpha    Beta     Spin     Total
       1     H     0.43127  0.43127  0.00000  0.13746
       2     C     2.74638  2.74638  0.00000  0.50724
       3     N     3.87485  3.87485  0.00000 -0.74970
       4     O     4.27281  4.27281  0.00000 -0.54562
       5     C     3.14031  3.14031  0.00000 -0.28062
       6     H     0.30443  0.30443  0.00000  0.39113
       7     H     0.41311  0.41311  0.00000  0.17377
       8     H     0.40948  0.40948  0.00000  0.18103
       9     H     0.40735  0.40735  0.00000  0.18530

   Total alpha = 16.00000, Total beta = 16.00000, Total charge =  0.00000
