                              Psi4 1.0.54 Driver

  ==> Input File <==

--------------------------------------------------------------------------
set {
	reference rhf
	basis cc-pvtz
}

set_num_threads( 4 )
memory 2 gb

molecule MOL {
0 1

H	 -3.436473	 1.252944	 -1.023892
O	 -3.458596	 0.315260	 -0.960865
C	 -3.176635	 -0.080824	 0.355601
C	 -1.763371	 0.265266	 0.799691
H	 -3.321825	 -1.153438	 0.379502
H	 -3.895468	 0.357385	 1.043382
C	 -0.673390	 -0.426948	 -0.013392
H	 -1.631049	 1.344913	 0.747560
H	 -1.664587	 -0.001624	 1.849167
C	 0.737842	 -0.043159	 0.423759
H	 -0.806103	 -0.190518	 -1.063345
H	 -0.797221	 -1.503753	 0.074146
C	 0.886741	 1.449863	 0.709698
H	 1.001587	 -0.617855	 1.306399
H	 1.446405	 -0.330508	 -0.350338
C	 2.303411	 1.897476	 1.073754
H	 0.206224	 1.731064	 1.510118
H	 0.565832	 2.004516	 -0.167797
C	 2.825272	 1.348926	 2.399612
H	 2.319843	 2.982224	 1.116507
H	 2.984581	 1.616372	 0.274749
H	 2.160550	 1.609571	 3.217099
H	 3.802898	 1.758572	 2.626942
H	 2.921302	 0.269989	 2.382900

	symmetry c1
}
set optking {
	frozen_dihedral = ("
		13 10 7 11
	")
}

ee,wfn = optimize('scf', return_wfn=True)
oeprop( wfn, 'DIPOLE', 'QUADRUPOLE', 'MULLIKEN_CHARGES')
f=open( 'psi4out.xyz', 'w' )
f.write( "24  " )
f.write( str(ee) + "\n" )
f.write( MOL.save_string_xyz() )
f.close()
--------------------------------------------------------------------------

    Molecular point group: c1
  Charge       = 0
  Multiplicity = 1
  Basis Set: CC-PVTZ
  Basis Set:
  @DF-RHF Final Energy:  -349.37425615228460
    Total Energy =                       -349.3742561522840333
    Molecular point group: c1
  Basis Set: CC-PVTZ
  Basis Set:
  Basis Set: CC-PVTZ
  Basis Set:
  @DF-RHF Final Energy:  -349.28915398810193
    Total Energy =                       -349.2891539881018161
  Basis Set: CC-PVTZ
  Basis Set:
  Basis Set: CC-PVTZ
  Basis Set:
  @DF-RHF Final Energy:  -349.36483344035395
    Total Energy =                       -349.3648334403534932
  Basis Set: CC-PVTZ
  Basis Set:
  Basis Set: CC-PVTZ
  Basis Set:
  @DF-RHF Final Energy:  -349.37610897572887
    Total Energy =                       -349.3761089757286413
  Basis Set: CC-PVTZ
  Basis Set:
  @DF-RHF Final Energy:  -349.37662296007625
    Total Energy =                       -349.3766229600762472
  Basis Set: CC-PVTZ
  Basis Set:
  @DF-RHF Final Energy:  -349.37665413140309
    Total Energy =                       -349.3766541314030292
  Basis Set: CC-PVTZ
  Basis Set:
  Basis Set: CC-PVTZ
  Basis Set:
  @DF-RHF Final Energy:  -349.37665380850382
    Total Energy =                       -349.3766538085034767
  Basis Set: CC-PVTZ
  Basis Set:
  Basis Set: CC-PVTZ
  Basis Set:
  @DF-RHF Final Energy:  -349.37666184845131
    Total Energy =                       -349.3766618484512492
  Basis Set: CC-PVTZ
  Basis Set:
  Charge       = 0
  Multiplicity = 1
  Basis Set: CC-PVTZ
  Basis Set:

    Orbital Energies (a.u.)
    -----------------------

    Doubly Occupied:

       1A    -20.546052     2A    -11.265386     3A    -11.215061
       4A    -11.213067     5A    -11.211084     6A    -11.210439
       7A    -11.209555     8A    -11.205959     9A     -1.363917
      10A     -1.089927    11A     -1.048093    12A     -0.985159
      13A     -0.917817    14A     -0.855476    15A     -0.810741
      16A     -0.764632    17A     -0.679863    18A     -0.651998
      19A     -0.629053    20A     -0.620283    21A     -0.600081
      22A     -0.578356    23A     -0.570487    24A     -0.537787
      25A     -0.524713    26A     -0.511468    27A     -0.494896
      28A     -0.482648    29A     -0.473955    30A     -0.457300
      31A     -0.448691    32A     -0.440569    33A     -0.425939

  @DF-RHF Final Energy:  -349.37666234708479

   => Energetics <=

    Nuclear Repulsion Energy =            389.8561770539455438
    One-Electron Energy =               -1246.3847704110135055
    Two-Electron Energy =                 507.1519310099832296
    DFT Exchange-Correlation Energy =       0.0000000000000000
    Empirical Dispersion Energy =           0.0000000000000000
    PCM Polarization Energy =               0.0000000000000000
    EFP Energy =                            0.0000000000000000
    Total Energy =                       -349.3766623470847321
    Molecular point group: c1
  Basis Set: CC-PVTZ
  Basis Set:

  -Total Gradient:
     Atom            X                  Y                   Z
    ------   -----------------  -----------------  -----------------
       1        0.000009281867     0.000033688722     0.000006252006
       2       -0.000040217700    -0.000032403240    -0.000025343810
       3        0.000024956699    -0.000019294324    -0.000012289106
       4        0.000028561099     0.000082530630     0.000036692695
       5       -0.000031062715    -0.000026711030    -0.000023415696
       6       -0.000006716202     0.000011193461     0.000014148967
       7       -0.000531677749     0.005690941070     0.003034703510
       8       -0.000000005551     0.000028654841     0.000013672802
       9        0.000002876827    -0.000005770480     0.000008700605
      10        0.001979865072    -0.000761129375    -0.005048736449
      11       -0.000014112483    -0.004715111371    -0.001302704686
      12        0.000034830286    -0.000037615575     0.000002971567
      13       -0.001423782085    -0.000196171938     0.003344387546
      14       -0.000005072697    -0.000028127920     0.000000416399
      15       -0.000033985930    -0.000016278748    -0.000023744166
      16       -0.000023873788    -0.000045546294    -0.000016755008
      17        0.000005178521     0.000032340796    -0.000005676476
      18       -0.000006006208    -0.000010422486     0.000002041046
      19        0.000008545180     0.000028760096    -0.000001768675
      20       -0.000003668904     0.000028383412     0.000019476266
      21        0.000042776399    -0.000008805126    -0.000029655667
      22       -0.000009751041     0.000017516726     0.000023452034
      23        0.000023063353    -0.000002980581     0.000002717136
      24       -0.000030002257    -0.000047641265    -0.000019542849

  **** Optimization is complete! (in 9 steps) ****
    Final optimized geometry and variables:
    Molecular point group: c1

    Geometry (in Angstrom), charge = 0, multiplicity = 1:

    H           -2.751752092581     1.635685830502    -1.829236217627
    O           -3.023416609330     0.737089553469    -1.779472301170
    C           -2.948731438259     0.289325905317    -0.451717376827
    C           -1.529817244565     0.265572745749     0.097964994916
    H           -3.365224108793    -0.709945305752    -0.453077313449
    H           -3.579301371999     0.901228330097     0.188582430761
    C           -0.605585785751    -0.684229912393    -0.658234585587
    H           -1.134282062412     1.277547599857     0.082887666897
    H           -1.580791750993    -0.026367656156     1.144753182191
    C            0.801501810666    -0.858814563767    -0.071730350618
    H           -0.536612999080    -0.395140460319    -1.701072587857
    H           -1.075235586395    -1.665048915837    -0.677641998650
    C            1.510633187856     0.434937913133     0.331335976239
    H            0.733574085186    -1.505212290529     0.798333484911
    H            1.410296473248    -1.391665472473    -0.796332530293
    C            2.979548981358     0.252638086832     0.719717275181
    H            0.984554568908     0.900959654319     1.158699622707
    H            1.462055954671     1.139056018217    -0.496134495097
    C            3.208012987413    -0.582695828254     1.977303415651
    H            3.418627637203     1.234234089068     0.870655497939
    H            3.517487830372    -0.194724794479    -0.111919322568
    H            2.672985796449    -0.165431650030     2.824693612533
    H            4.260872125618    -0.609857063157     2.234130334669
    H            2.878043599349    -1.606571202576     1.849707804165

  Mulliken Charges: (a.u.)
   Center  Symbol    Alpha    Beta     Spin     Total
       1     H     0.39522  0.39522  0.00000  0.20957
       2     O     4.20393  4.20393  0.00000 -0.40787
       3     C     2.97796  2.97796  0.00000  0.04408
       4     C     3.10650  3.10650  0.00000 -0.21301
       5     H     0.45809  0.45809  0.00000  0.08382
       6     H     0.46041  0.46041  0.00000  0.07918
       7     C     3.09219  3.09219  0.00000 -0.18437
       8     H     0.45556  0.45556  0.00000  0.08888
       9     H     0.45196  0.45196  0.00000  0.09608
      10     C     3.10018  3.10018  0.00000 -0.20037
      11     H     0.44492  0.44492  0.00000  0.11016
      12     H     0.45196  0.45196  0.00000  0.09608
      13     C     3.09794  3.09794  0.00000 -0.19588
      14     H     0.45266  0.45266  0.00000  0.09467
      15     H     0.44825  0.44825  0.00000  0.10351
      16     C     3.08992  3.08992  0.00000 -0.17985
      17     H     0.45141  0.45141  0.00000  0.09719
      18     H     0.44999  0.44999  0.00000  0.10002
      19     C     3.15300  3.15300  0.00000 -0.30601
      20     H     0.44897  0.44897  0.00000  0.10206
      21     H     0.45427  0.45427  0.00000  0.09147
      22     H     0.45561  0.45561  0.00000  0.08878
      23     H     0.44627  0.44627  0.00000  0.10746
      24     H     0.45283  0.45283  0.00000  0.09434

   Total alpha = 33.00000, Total beta = 33.00000, Total charge = -0.00000

*** Psi4 exiting successfully. Buy a developer a beer!
