  ==> Input File <==

--------------------------------------------------------------------------
set {
	reference rhf
	basis 6-31G*
}

set_num_threads( 4 )
memory 2 gb

molecule MOL {
0 1

O	 -2.439739	 -0.935931	 -0.423848
C	 -1.921153	 0.064240	 -0.045697
C	 -2.624470	 1.379923	 0.150949
O	 -0.632575	 0.154573	 0.251549
H	 -2.168117	 2.136577	 -0.476876
H	 -3.669540	 1.273223	 -0.098610
H	 -2.519365	 1.700893	 1.180846
C	 0.160891	 -1.019931	 0.106212
C	 1.589627	 -0.672828	 0.480843
H	 0.089836	 -1.367806	 -0.916050
H	 -0.238459	 -1.792301	 0.749618
C	 2.246377	 0.346236	 -0.452210
H	 2.163194	 -1.597435	 0.473358
H	 1.604769	 -0.303424	 1.502885
C	 2.203768	 1.767060	 0.108543
H	 3.280805	 0.057355	 -0.627156
H	 1.750685	 0.321046	 -1.417101
H	 2.674315	 2.470366	 -0.571147
H	 2.722268	 1.830416	 1.061129
H	 1.180428	 2.095193	 0.267235

	symmetry c1
}
set optking {
	frozen_dihedral = ("
		16 12 9 8
	")
}

ee = optimize('scf')
oeprop('DIPOLE', 'QUADRUPOLE', 'MULLIKEN_CHARGES')
f=open( 'psi4out.xyz', 'w' )
f.write( "20  " )
f.write( str(ee) + "\n" )
f.write( MOL.save_string_xyz() )
f.close()
--------------------------------------------------------------------------

    Molecular point group: c1
  Charge       = 0
  Multiplicity = 1
  Basis Set: 6-31G*
  Basis Set:
  @DF-RHF Final Energy:  -383.94135006411733
    Total Energy =                       -383.9413500641173869
    Molecular point group: c1
  Basis Set: 6-31G*
  Basis Set:
  Basis Set: 6-31G*
  Basis Set:
  @DF-RHF Final Energy:  -383.94159229456653
    Total Energy =                       -383.9415922945665898
  Basis Set: 6-31G*
  Basis Set:
  Basis Set: 6-31G*
  Basis Set:
  @DF-RHF Final Energy:  -383.94158234173756
    Total Energy =                       -383.9415823417374440
  Basis Set: 6-31G*
  Basis Set:
  Basis Set: 6-31G*
  Basis Set:
  @DF-RHF Final Energy:  -383.94176079660980
    Total Energy =                       -383.9417607966095147
  Basis Set: 6-31G*
  Basis Set:
  Charge       = 0
  Multiplicity = 1
  Basis Set: 6-31G*
  Basis Set:

    Orbital Energies (a.u.)
    -----------------------

    Doubly Occupied:

       1A    -20.602552     2A    -20.544798     3A    -11.375154
       4A    -11.282705     5A    -11.234007     6A    -11.225830
       7A    -11.221596     8A    -11.208787     9A     -1.468580
      10A     -1.362837    11A     -1.083913    12A     -1.026993
      13A     -0.980629    14A     -0.883417    15A     -0.806110
      16A     -0.777120    17A     -0.691041    18A     -0.685629
      19A     -0.667263    20A     -0.618158    21A     -0.603317
      22A     -0.596414    23A     -0.574404    24A     -0.555125
      25A     -0.538604    26A     -0.533402    27A     -0.510551
      28A     -0.480238    29A     -0.475678    30A     -0.468040
      31A     -0.449469    32A     -0.438499

  @DF-RHF Final Energy:  -383.94176087174986

   => Energetics <=

    Nuclear Repulsion Energy =            392.2252653282151300
    One-Electron Energy =               -1300.3923271135024606
    Two-Electron Energy =                 524.2253009135376942
    DFT Exchange-Correlation Energy =       0.0000000000000000
    Empirical Dispersion Energy =           0.0000000000000000
    PCM Polarization Energy =               0.0000000000000000
    EFP Energy =                            0.0000000000000000
    Total Energy =                       -383.9417608717496933
    Molecular point group: c1
  Basis Set: 6-31G*
  Basis Set:

  -Total Gradient:
     Atom            X                  Y                   Z
    ------   -----------------  -----------------  -----------------
       1        0.000010123161     0.000008982877    -0.000076567537
       2        0.000021878395    -0.000023011851     0.000043137404
       3        0.000018820962    -0.000003751579    -0.000006546140
       4        0.000033199785     0.000137316749    -0.000117376018
       5        0.000008320673    -0.000004460479     0.000005380146
       6        0.000000742156    -0.000009360691     0.000006250751
       7       -0.000008183972    -0.000002364046     0.000005493255
       8        0.000352983599    -0.001105438854    -0.000382330968
       9       -0.000755759604     0.001254834492     0.000712732940
      10       -0.000039381831     0.000036308655    -0.000115268166
      11        0.000090174243     0.000008297005    -0.000084111986
      12        0.000891150059     0.000776272894     0.001450171250
      13        0.000049047962     0.000028892334    -0.000046007991
      14       -0.000024154383     0.000028892878    -0.000023487350
      15       -0.000118184807    -0.000064785254     0.000070695873
      16       -0.000520480066    -0.000984009174    -0.001444588526
      17       -0.000042547817    -0.000032780326     0.000028478828
      18        0.000001905493    -0.000040977396    -0.000020361540
      19        0.000022446762     0.000000205060     0.000002044416
      20        0.000007899234    -0.000009063291    -0.000007738639

  **** Optimization is complete! (in 5 steps) ****
    Final optimized geometry and variables:
    Molecular point group: c1

    Geometry (in Angstrom), charge = 0, multiplicity = 1:

    O           -2.248772923828    -1.086275360914    -0.447229740754
    C           -1.732109627715    -0.083478420715    -0.073570041114
    C           -2.437426551342     1.232480988769     0.114036540313
    O           -0.445278123425     0.007898841012     0.232011831035
    H           -1.981292875629     1.985698176575    -0.518113240008
    H           -3.481872545859     1.122649590037    -0.136781015348
    H           -2.334598550991     1.559962074670     1.142140034354
    C            0.347710531834    -1.168757465418     0.099369248186
    C            1.783011076231    -0.828404504768     0.455215093878
    H            0.270476690348    -1.528590252877    -0.918079082645
    H           -0.048692151447    -1.932769710271     0.754635558800
    C            2.440747633087     0.217342428433    -0.465892874441
    H            2.337394121678    -1.762225058128     0.404230241339
    H            1.827501674328    -0.501408690129     1.490171913516
    C            2.413221028474     1.641463558430     0.088955271393
    H            3.469643265394    -0.073229524200    -0.657662654540
    H            1.947721144475     0.200523371713    -1.435061428094
    H            2.875529548481     2.336527718059    -0.605515764307
    H            2.957747316095     1.702294823185     1.027206898158
    H            1.397430033104     1.971589666597     0.271455984737

  Mulliken Charges: (a.u.)
   Center  Symbol    Alpha    Beta     Spin     Total
       1     O     4.28301  4.28301  0.00000 -0.56602
       2     C     2.61923  2.61923  0.00000  0.76154
       3     C     3.28203  3.28203  0.00000 -0.56407
       4     O     4.30825  4.30825  0.00000 -0.61650
       5     H     0.40064  0.40064  0.00000  0.19872
       6     H     0.39668  0.39668  0.00000  0.20664
       7     H     0.40044  0.40044  0.00000  0.19911
       8     C     3.00301  3.00301  0.00000 -0.00602
       9     C     3.16823  3.16823  0.00000 -0.33646
      10     H     0.41017  0.41017  0.00000  0.17967
      11     H     0.40933  0.40933  0.00000  0.18134
      12     C     3.15513  3.15513  0.00000 -0.31025
      13     H     0.41565  0.41565  0.00000  0.16869
      14     H     0.41303  0.41303  0.00000  0.17395
      15     C     3.24084  3.24084  0.00000 -0.48168
      16     H     0.41886  0.41886  0.00000  0.16228
      17     H     0.41953  0.41953  0.00000  0.16093
      18     H     0.42114  0.42114  0.00000  0.15771
      19     H     0.42287  0.42287  0.00000  0.15426
      20     H     0.41193  0.41193  0.00000  0.17614

   Total alpha = 32.00000, Total beta = 32.00000, Total charge =  0.00000
