                              Psi4 1.0.54 Driver

  ==> Input File <==

--------------------------------------------------------------------------
set {
	reference rhf
	basis cc-pvtz
}

set_num_threads( 4 )
memory 2 gb

molecule MOL {
0 1

H	 -3.436473	 1.252944	 -1.023892
O	 -3.458596	 0.315260	 -0.960865
C	 -3.176635	 -0.080824	 0.355601
C	 -1.763371	 0.265266	 0.799691
H	 -3.321825	 -1.153438	 0.379502
H	 -3.895468	 0.357385	 1.043382
C	 -0.673390	 -0.426948	 -0.013392
H	 -1.631049	 1.344913	 0.747560
H	 -1.664587	 -0.001624	 1.849167
C	 0.737842	 -0.043159	 0.423759
H	 -0.806103	 -0.190518	 -1.063345
H	 -0.797221	 -1.503753	 0.074146
C	 1.824000	 -0.743224	 -0.390623
H	 0.850588	 1.033777	 0.343840
H	 0.868587	 -0.286314	 1.476203
C	 3.255957	 -0.453067	 0.062319
H	 1.718250	 -0.470599	 -1.438164
H	 1.658105	 -1.815850	 -0.339904
C	 4.304864	 -0.537369	 -1.043950
H	 3.518201	 -1.159775	 0.843707
H	 3.294341	 0.531804	 0.520550
H	 4.285790	 -1.510229	 -1.524842
H	 5.300519	 -0.388487	 -0.641772
H	 4.148522	 0.212899	 -1.809627

	symmetry c1
}
set optking {
	frozen_dihedral = ("
		20 16 13 17
	")
}

ee,wfn = optimize('scf', return_wfn=True)
oeprop( wfn, 'DIPOLE', 'QUADRUPOLE', 'MULLIKEN_CHARGES')
f=open( 'psi4out.xyz', 'w' )
f.write( "24  " )
f.write( str(ee) + "\n" )
f.write( MOL.save_string_xyz() )
f.close()
--------------------------------------------------------------------------

    Molecular point group: c1
  Charge       = 0
  Multiplicity = 1
  Basis Set: CC-PVTZ
  Basis Set:
  @DF-RHF Final Energy:  -349.37916582578362
    Total Energy =                       -349.3791658257832751
    Molecular point group: c1
  Basis Set: CC-PVTZ
  Basis Set:
  Basis Set: CC-PVTZ
  Basis Set:
  @DF-RHF Final Energy:  -349.37956411415325
    Total Energy =                       -349.3795641141532542
  Basis Set: CC-PVTZ
  Basis Set:
  Basis Set: CC-PVTZ
  Basis Set:
  @DF-RHF Final Energy:  -349.37960061537223
    Total Energy =                       -349.3796006153723965
  Basis Set: CC-PVTZ
  Basis Set:
  Charge       = 0
  Multiplicity = 1
  Basis Set: CC-PVTZ
  Basis Set:

    Orbital Energies (a.u.)
    -----------------------

    Doubly Occupied:

       1A    -20.546335     2A    -11.265572     3A    -11.215268
       4A    -11.211601     5A    -11.210976     6A    -11.209069
       7A    -11.208917     8A    -11.205236     9A     -1.364190
      10A     -1.089434    11A     -1.049749    12A     -0.989174
      13A     -0.914433    14A     -0.843042    15A     -0.798422
      16A     -0.788632    17A     -0.681836    18A     -0.656945
      19A     -0.630793    20A     -0.616127    21A     -0.595510
      22A     -0.585737    23A     -0.549760    24A     -0.540775
      25A     -0.532517    26A     -0.502150    27A     -0.494907
      28A     -0.471628    29A     -0.469652    30A     -0.460017
      31A     -0.457121    32A     -0.455707    33A     -0.420676

  @DF-RHF Final Energy:  -349.37960091379819

   => Energetics <=

    Nuclear Repulsion Energy =            381.0607256914209984
    One-Electron Energy =               -1228.8168245673566616
    Two-Electron Energy =                 498.3764979621377051
    DFT Exchange-Correlation Energy =       0.0000000000000000
    Empirical Dispersion Energy =           0.0000000000000000
    PCM Polarization Energy =               0.0000000000000000
    EFP Energy =                            0.0000000000000000
    Total Energy =                       -349.3796009137979581
    Molecular point group: c1
  Basis Set: CC-PVTZ
  Basis Set:

  -Total Gradient:
     Atom            X                  Y                   Z
    ------   -----------------  -----------------  -----------------
       1        0.000001771011    -0.000009523082     0.000004308038
       2       -0.000003183470     0.000002941181    -0.000019907656
       3        0.000012267871     0.000019853352    -0.000002081475
       4       -0.000005137452     0.000023447326    -0.000030886782
       5        0.000005909251     0.000005925150     0.000001639697
       6        0.000007974526    -0.000001522690     0.000002867365
       7       -0.000042078506     0.000021661401     0.000008476091
       8       -0.000006855074     0.000005965861     0.000011347661
       9        0.000010466140    -0.000014117977    -0.000013654970
      10       -0.000046864394    -0.000036666296     0.000056133210
      11       -0.000007002379    -0.000015914745    -0.000003191341
      12        0.000028766082     0.000015523765     0.000025156029
      13       -0.001127651805     0.004325673426     0.000743145026
      14        0.000011987583    -0.000010849275     0.000018688647
      15        0.000016853657    -0.000032029220    -0.000031529471
      16       -0.001749802132     0.002412494735     0.003352525057
      17        0.001275438127    -0.003966691514    -0.001113026504
      18        0.000045304893    -0.000001879734     0.000018124565
      19        0.000063299842     0.000050602047    -0.000038158537
      20        0.001517969644    -0.002716339236    -0.002921260931
      21       -0.000022719095    -0.000065739990    -0.000043840197
      22        0.000014392261     0.000062258640     0.000027444349
      23       -0.000027197534    -0.000012393718    -0.000072405244
      24        0.000026090938    -0.000062679407     0.000020087369

  **** Optimization is complete! (in 4 steps) ****
    Final optimized geometry and variables:
    Molecular point group: c1

    Geometry (in Angstrom), charge = 0, multiplicity = 1:

    H           -3.501352452640     1.468674650170    -0.899024348361
    O           -3.528701915185     0.530427832234    -0.847909651894
    C           -3.253190807499     0.116501097794     0.464344622043
    C           -1.839478692620     0.449202274687     0.917081324551
    H           -3.404324003119    -0.955511375378     0.474055402147
    H           -3.971871437458     0.549859874901     1.155343239855
    C           -0.750699310623    -0.236516907476     0.096960467062
    H           -1.701672097283     1.528806428066     0.880872226012
    H           -1.744706789588     0.166734679223     1.962826920706
    C            0.660647666176     0.133578870211     0.543088372138
    H           -0.879236193202     0.015493250724    -0.949906566471
    H           -0.879625076514    -1.313864106164     0.168886962790
    C            1.752813984773    -0.541422219621    -0.279271591385
    H            0.785642840071     1.212256896189     0.483226369720
    H            0.789894531126    -0.127917249394     1.591226592090
    C            3.175565032992    -0.225748124306     0.196384572308
    H            1.651099620525    -0.279237268476    -1.329137043057
    H            1.606205747389    -1.618573014784    -0.247082221775
    C            4.214140924372    -0.348776466541    -0.916293528702
    H            3.450194147863    -0.917041681797     0.987218444150
    H            3.216219097857     0.774747120727     0.615181585834
    H            4.200537100216    -1.341642086021    -1.354165843303
    H            5.215642199791    -0.166984640065    -0.543114556607
    H            4.021766970233     0.363243827721    -1.711748031668

  Mulliken Charges: (a.u.)
   Center  Symbol    Alpha    Beta     Spin     Total
       1     H     0.39530  0.39530  0.00000  0.20939
       2     O     4.20369  4.20369  0.00000 -0.40737
       3     C     2.97766  2.97766  0.00000  0.04468
       4     C     3.10231  3.10231  0.00000 -0.20461
       5     H     0.45889  0.45889  0.00000  0.08222
       6     H     0.46029  0.46029  0.00000  0.07942
       7     C     3.08825  3.08825  0.00000 -0.17650
       8     H     0.45909  0.45909  0.00000  0.08182
       9     H     0.45329  0.45329  0.00000  0.09343
      10     C     3.08850  3.08850  0.00000 -0.17700
      11     H     0.44624  0.44624  0.00000  0.10753
      12     H     0.45523  0.45523  0.00000  0.08954
      13     C     3.08896  3.08896  0.00000 -0.17791
      14     H     0.45539  0.45539  0.00000  0.08922
      15     H     0.45520  0.45520  0.00000  0.08959
      16     C     3.08471  3.08471  0.00000 -0.16942
      17     H     0.45438  0.45438  0.00000  0.09123
      18     H     0.45431  0.45431  0.00000  0.09138
      19     C     3.14934  3.14934  0.00000 -0.29867
      20     H     0.45366  0.45366  0.00000  0.09267
      21     H     0.45543  0.45543  0.00000  0.08914
      22     H     0.45461  0.45461  0.00000  0.09078
      23     H     0.44956  0.44956  0.00000  0.10089
      24     H     0.45571  0.45571  0.00000  0.08858

   Total alpha = 33.00000, Total beta = 33.00000, Total charge =  0.00000

*** Psi4 exiting successfully. Buy a developer a beer!
