                              Psi4 1.0.54 Driver

  ==> Input File <==

--------------------------------------------------------------------------
set {
	reference rhf
	basis cc-pvtz
}

set_num_threads( 4 )
memory 2 gb

molecule MOL {
0 1

H	 -1.835082	 1.385983	 0.000069
C	 -1.300516	 0.441153	 -0.000028
O	 -0.006604	 0.654344	 -0.000106
O	 -1.828920	 -0.612308	 0.000113
C	 0.778884	 -0.037839	 0.966183
C	 2.219389	 0.369473	 0.766827
H	 0.642338	 -1.101258	 0.830343
H	 0.424284	 0.219883	 1.954010
H	 2.559630	 0.108940	 -0.227321
H	 2.845530	 -0.141133	 1.488688
H	 2.340477	 1.436733	 0.901969

	symmetry c1
}
set optking {
	frozen_dihedral = ("
		5 3 2 4
	")
}

ee,wfn = optimize('scf', return_wfn=True)
oeprop( wfn, 'DIPOLE', 'QUADRUPOLE', 'MULLIKEN_CHARGES')
f=open( 'psi4out.xyz', 'w' )
f.write( "11  " )
f.write( str(ee) + "\n" )
f.write( MOL.save_string_xyz() )
f.close()
--------------------------------------------------------------------------

    Molecular point group: c1
  Charge       = 0
  Multiplicity = 1
  Basis Set: CC-PVTZ
  Basis Set:
  @DF-RHF Final Energy:  -266.91996372741829
    Total Energy =                       -266.9199637274183488
    Molecular point group: c1
  Basis Set: CC-PVTZ
  Basis Set:
  Basis Set: CC-PVTZ
  Basis Set:
  @DF-RHF Final Energy:  -266.91234877391088
    Total Energy =                       -266.9123487739107077
  Basis Set: CC-PVTZ
  Basis Set:
  Basis Set: CC-PVTZ
  Basis Set:
  @DF-RHF Final Energy:  -266.91947311661886
    Total Energy =                       -266.9194731166188603
  Basis Set: CC-PVTZ
  Basis Set:
  Basis Set: CC-PVTZ
  Basis Set:
  @DF-RHF Final Energy:  -266.92083955204782
    Total Energy =                       -266.9208395520480508
  Basis Set: CC-PVTZ
  Basis Set:
  Basis Set: CC-PVTZ
  Basis Set:
  @DF-RHF Final Energy:  -266.92085774940142
    Total Energy =                       -266.9208577494014207
  Basis Set: CC-PVTZ
  Basis Set:
  Basis Set: CC-PVTZ
  Basis Set:
  @DF-RHF Final Energy:  -266.92086128521100
    Total Energy =                       -266.9208612852110036
  Basis Set: CC-PVTZ
  Basis Set:
  Charge       = 0
  Multiplicity = 1
  Basis Set: CC-PVTZ
  Basis Set:

    Orbital Energies (a.u.)
    -----------------------

    Doubly Occupied:

       1A    -20.593484     2A    -20.553076     3A    -11.372156
       4A    -11.294109     5A    -11.225563     6A     -1.472257
       7A     -1.379072     8A     -1.051620     9A     -0.897513
      10A     -0.813255    11A     -0.742630    12A     -0.690223
      13A     -0.668363    14A     -0.620244    15A     -0.564410
      16A     -0.550694    17A     -0.529641    18A     -0.511226
      19A     -0.466935    20A     -0.452502

  @DF-RHF Final Energy:  -266.92086158082918

   => Energetics <=

    Nuclear Repulsion Energy =            178.4028304943853129
    One-Electron Energy =                -717.7494410991530458
    Two-Electron Energy =                 272.4257490239385220
    DFT Exchange-Correlation Energy =       0.0000000000000000
    Empirical Dispersion Energy =           0.0000000000000000
    PCM Polarization Energy =               0.0000000000000000
    EFP Energy =                            0.0000000000000000
    Total Energy =                       -266.9208615808292393
    Molecular point group: c1
  Basis Set: CC-PVTZ
  Basis Set:

  -Total Gradient:
     Atom            X                  Y                   Z
    ------   -----------------  -----------------  -----------------
       1        0.000020540144    -0.000075980223     0.000004093123
       2       -0.000748446926     0.002181239997     0.017482941502
       3        0.001771833596    -0.007951708980    -0.012661368893
       4        0.000013074582     0.000427561258    -0.009869347825
       5       -0.001075713946     0.005373935442     0.005008947264
       6        0.000008078797    -0.000009454379     0.000039913298
       7        0.000018473182     0.000017682207    -0.000001363644
       8       -0.000003316995     0.000038068260    -0.000010142679
       9       -0.000016635405    -0.000005030890     0.000004317694
      10        0.000013184018     0.000006620514     0.000002213131
      11       -0.000001071053    -0.000002933205    -0.000000202970

  **** Optimization is complete! (in 7 steps) ****
    Final optimized geometry and variables:
    Molecular point group: c1

    Geometry (in Angstrom), charge = 0, multiplicity = 1:

    H           -1.875789441656     1.178517398557    -0.401863799528
    C           -1.295905524483     0.261839041656    -0.333383457563
    O            0.004264917472     0.518502021424    -0.315027635172
    O           -1.780598272011    -0.807765197809    -0.377140068858
    C            0.814140530153    -0.180077236258     0.627722179536
    C            2.251151486217     0.221370615564     0.397263794977
    H            0.676248020592    -1.243849082292     0.500030182930
    H            0.489049539018     0.092190044635     1.624667775196
    H            2.567438684119    -0.052842655635    -0.600857991459
    H            2.890783600464    -0.282500382925     1.112167948528
    H            2.376187153210     1.289955395128     0.516266954467

  Mulliken Charges: (a.u.)
   Center  Symbol    Alpha    Beta     Spin     Total
       1     H     0.45689  0.45689  0.00000  0.08623
       2     C     2.83928  2.83928  0.00000  0.32144
       3     O     4.15544  4.15544  0.00000 -0.31088
       4     O     4.17959  4.17959  0.00000 -0.35918
       5     C     2.97105  2.97105  0.00000  0.05791
       6     C     3.13439  3.13439  0.00000 -0.26878
       7     H     0.44785  0.44785  0.00000  0.10431
       8     H     0.46179  0.46179  0.00000  0.07643
       9     H     0.44797  0.44797  0.00000  0.10405
      10     H     0.45533  0.45533  0.00000  0.08934
      11     H     0.45043  0.45043  0.00000  0.09914

   Total alpha = 20.00000, Total beta = 20.00000, Total charge =  0.00000

*** Psi4 exiting successfully. Buy a developer a beer!
