  ==> Input File <==

--------------------------------------------------------------------------
set {
	reference rhf
	basis 6-31G*
}

set_num_threads( 1 )
memory 2 gb

molecule MOL {
0 1

O	 -0.291628	 1.323815	 -0.000732
C	 -0.449655	 0.146360	 0.000961
C	 -1.783294	 -0.549321	 -0.000296
O	 0.550821	 -0.724572	 0.000672
H	 -1.863538	 -1.185371	 -0.874187
H	 -2.574672	 0.185258	 -0.002793
H	 -1.866414	 -1.182381	 0.875436
C	 1.316799	 -0.821700	 -1.186815
H	 0.694052	 -1.123689	 -2.016480
H	 2.069230	 -1.569764	 -0.991888
H	 1.781309	 0.126186	 -1.417216

	symmetry c1
}
set optking {
	frozen_dihedral = ("
		2 4 8 9
	")
}

ee = energy('scf')
oeprop('DIPOLE', 'QUADRUPOLE', 'MULLIKEN_CHARGES')
f=open( 'psi4out.xyz', 'w' )
f.write( "11  " )
f.write( str(ee) + "\n" )
f.write( MOL.save_string_xyz() )
f.close()
--------------------------------------------------------------------------

    Molecular point group: c1

    Geometry (in Angstrom), charge = 0, multiplicity = 1:

       Center              X                  Y                   Z               Mass
    ------------   -----------------  -----------------  -----------------  -----------------
           O         -0.175174590277     1.457505572264     0.251798299900    15.994914619560
           C         -0.333201590277     0.280050572264     0.253491299900    12.000000000000
           C         -1.666840590277    -0.415630427736     0.252234299900    12.000000000000
           O          0.667274409723    -0.590881427736     0.253202299900    15.994914619560
           H         -1.747084590277    -1.051680427736    -0.621656700100     1.007825032070
           H         -2.458218590277     0.318948572264     0.249737299900     1.007825032070
           H         -1.749960590277    -1.048690427736     1.127966299900     1.007825032070
           C          1.433252409723    -0.688009427736    -0.934284700100    12.000000000000
           H          0.810505409723    -0.989998427736    -1.763949700100     1.007825032070
           H          2.185683409723    -1.436073427736    -0.739357700100     1.007825032070
           H          1.897762409723     0.259876572264    -1.164685700100     1.007825032070

  Charge       = 0
  Multiplicity = 1
  Basis Set: 6-31G*
  Basis Set:

    Orbital Energies (a.u.)
    -----------------------

    Doubly Occupied:

       1A    -20.590195     2A    -20.554559     3A    -11.377533
       4A    -11.293424     5A    -11.235324     6A     -1.466538
       7A     -1.367465     8A     -1.030067     9A     -0.964100
      10A     -0.780829    11A     -0.694984    12A     -0.683729
      13A     -0.672857    14A     -0.607916    15A     -0.591762
      16A     -0.572912    17A     -0.542325    18A     -0.496705
      19A     -0.458445    20A     -0.440942

  @DF-RHF Final Energy:  -266.81820836911783

   => Energetics <=

    Nuclear Repulsion Energy =            183.0830337129557961
    One-Electron Energy =                -726.9572794508022753
    Two-Electron Energy =                 277.0560373687279139
    DFT Exchange-Correlation Energy =       0.0000000000000000
    Empirical Dispersion Energy =           0.0000000000000000
    PCM Polarization Energy =               0.0000000000000000
    EFP Energy =                            0.0000000000000000
    Total Energy =                       -266.8182083691185085

  Mulliken Charges: (a.u.)
   Center  Symbol    Alpha    Beta     Spin     Total
       1     O     4.25996  4.25996  0.00000 -0.51993
       2     C     2.62914  2.62914  0.00000  0.74173
       3     C     3.28370  3.28370  0.00000 -0.56741
       4     O     4.30378  4.30378  0.00000 -0.60757
       5     H     0.40633  0.40633  0.00000  0.18733
       6     H     0.39860  0.39860  0.00000  0.20280
       7     H     0.39826  0.39826  0.00000  0.20347
       8     C     3.09327  3.09327  0.00000 -0.18654
       9     H     0.42009  0.42009  0.00000  0.15982
      10     H     0.40278  0.40278  0.00000  0.19443
      11     H     0.40407  0.40407  0.00000  0.19186

   Total alpha = 20.00000, Total beta = 20.00000, Total charge =  0.00000
