  ==> Input File <==

--------------------------------------------------------------------------
set {
	reference rhf
	basis 6-31G*
}

set_num_threads( 1 )
memory 2 gb

molecule MOL {
0 1

O	 -2.574544	 -0.419003	 1.058154
C	 -1.557238	 -0.424052	 1.682252
C	 -0.302418	 -1.068995	 1.120307
C	 -1.455563	 0.234241	 3.040076
C	 0.379448	 -0.143569	 0.099626
H	 -0.597223	 -1.991443	 0.631960
H	 0.391116	 -1.315763	 1.919144
C	 1.631333	 -0.777471	 -0.511575
H	 -0.342098	 0.097955	 -0.672657
H	 0.651426	 0.794875	 0.580353
C	 2.915987	 -0.544314	 0.291766
H	 1.766672	 -0.399098	 -1.523130
H	 1.471257	 -1.849544	 -0.605828
C	 3.373361	 0.914346	 0.347591
H	 3.708709	 -1.142521	 -0.150311
H	 2.780642	 -0.921148	 1.303579
H	 3.506512	 1.320010	 -0.651625
H	 4.322697	 0.999599	 0.867103
H	 2.660624	 1.545032	 0.868198
H	 -1.282928	 -0.522489	 3.800879
H	 -2.370213	 0.765597	 3.263369
H	 -0.613261	 0.919252	 3.073110

	symmetry c1
}
set optking {
	frozen_dihedral = ("
		6 3 2 1,
		6 3 5 8,
		12 8 11 15
	")
}

ee = energy('scf')
oeprop('DIPOLE', 'QUADRUPOLE', 'MULLIKEN_CHARGES')
f=open( 'psi4out.xyz', 'w' )
f.write( "22  " )
f.write( str(ee) + "\n" )
f.write( MOL.save_string_xyz() )
f.close()
--------------------------------------------------------------------------

    Molecular point group: c1

    Geometry (in Angstrom), charge = 0, multiplicity = 1:

       Center              X                  Y                   Z               Mass
    ------------   -----------------  -----------------  -----------------  -----------------
           O         -2.879692996996    -0.154923313989     0.159248307248    15.994914619560
           C         -1.862386996996    -0.159972313989     0.783346307248    12.000000000000
           C         -0.607566996996    -0.804915313989     0.221401307248    12.000000000000
           C         -1.760711996996     0.498320686011     2.141170307248    12.000000000000
           C          0.074299003004     0.120510686011    -0.799279692752    12.000000000000
           H         -0.902371996996    -1.727363313989    -0.266945692752     1.007825032070
           H          0.085967003004    -1.051683313989     1.020238307248     1.007825032070
           C          1.326184003004    -0.513391313989    -1.410480692752    12.000000000000
           H         -0.647246996996     0.362034686011    -1.571562692752     1.007825032070
           H          0.346277003004     1.058954686011    -0.318552692752     1.007825032070
           C          2.610838003004    -0.280234313989    -0.607139692752    12.000000000000
           H          1.461523003004    -0.135018313989    -2.422035692752     1.007825032070
           H          1.166108003004    -1.585464313989    -1.504733692752     1.007825032070
           C          3.068212003004     1.178425686011    -0.551314692752    12.000000000000
           H          3.403560003004    -0.878441313989    -1.049216692752     1.007825032070
           H          2.475493003004    -0.657068313989     0.404673307248     1.007825032070
           H          3.201363003004     1.584089686011    -1.550530692752     1.007825032070
           H          4.017548003004     1.263678686011    -0.031802692752     1.007825032070
           H          2.355475003004     1.809111686011    -0.030707692752     1.007825032070
           H         -1.588076996996    -0.258409313989     2.901973307248     1.007825032070
           H         -2.675361996996     1.029676686011     2.364463307248     1.007825032070
           H         -0.918409996996     1.183331686011     2.174204307248     1.007825032070

  Charge       = 0
  Multiplicity = 1
  Basis Set: 6-31G*
  Basis Set:

    Orbital Energies (a.u.)
    -----------------------

    Doubly Occupied:

       1A    -20.547252     2A    -11.324228     3A    -11.229030
       4A    -11.228266     5A    -11.228158     6A    -11.223048
       7A    -11.221790     8A    -11.214973     9A     -1.392946
      10A     -1.097549    11A     -1.043636    12A     -0.999708
      13A     -0.939376    14A     -0.862780    15A     -0.781901
      16A     -0.735220    17A     -0.662607    18A     -0.649843
      19A     -0.624317    20A     -0.613558    21A     -0.604502
      22A     -0.578945    23A     -0.562734    24A     -0.551167
      25A     -0.531550    26A     -0.523127    27A     -0.506610
      28A     -0.485753    29A     -0.466203    30A     -0.463800
      31A     -0.459729    32A     -0.396585

  @DF-RHF Final Energy:  -348.09481512437429

   => Energetics <=

    Nuclear Repulsion Energy =            377.2781399874745034
    One-Electron Energy =               -1219.2442217867501313
    Two-Electron Energy =                 493.8712666749020173
    DFT Exchange-Correlation Energy =       0.0000000000000000
    Empirical Dispersion Energy =           0.0000000000000000
    PCM Polarization Energy =               0.0000000000000000
    EFP Energy =                            0.0000000000000000
    Total Energy =                       -348.0948151243735538

  Mulliken Charges: (a.u.)
   Center  Symbol    Alpha    Beta     Spin     Total
       1     O     4.26259  4.26259  0.00000 -0.52518
       2     C     2.73654  2.73654  0.00000  0.52692
       3     C     3.20169  3.20169  0.00000 -0.40338
       4     C     3.28951  3.28951  0.00000 -0.57901
       5     C     3.16562  3.16562  0.00000 -0.33123
       6     H     0.40100  0.40100  0.00000  0.19800
       7     H     0.41639  0.41639  0.00000  0.16721
       8     C     3.15633  3.15633  0.00000 -0.31266
       9     H     0.40299  0.40299  0.00000  0.19401
      10     H     0.41861  0.41861  0.00000  0.16278
      11     C     3.15505  3.15505  0.00000 -0.31010
      12     H     0.41763  0.41763  0.00000  0.16474
      13     H     0.41902  0.41902  0.00000  0.16197
      14     C     3.24115  3.24115  0.00000 -0.48230
      15     H     0.41829  0.41829  0.00000  0.16342
      16     H     0.42416  0.42416  0.00000  0.15167
      17     H     0.42001  0.42001  0.00000  0.15998
      18     H     0.41757  0.41757  0.00000  0.16486
      19     H     0.42167  0.42167  0.00000  0.15665
      20     H     0.40701  0.40701  0.00000  0.18597
      21     H     0.39708  0.39708  0.00000  0.20585
      22     H     0.41008  0.41008  0.00000  0.17983

   Total alpha = 32.00000, Total beta = 32.00000, Total charge = -0.00000
