  ==> Input File <==

--------------------------------------------------------------------------
set {
	reference rhf
	basis 6-31G*
}

set_num_threads( 4 )
memory 2 gb

molecule MOL {
0 1

O	 3.225979	 0.970355	 -0.599647
C	 2.701189	 0.057885	 -0.047330
C	 1.245376	 -0.013843	 0.345420
O	 3.347903	 -1.046386	 0.304773
C	 0.455112	 1.231400	 -0.050772
H	 0.838542	 -0.913825	 -0.103701
H	 1.208210	 -0.175333	 1.419774
C	 -0.998893	 1.219485	 0.433193
H	 0.482531	 1.345121	 -1.130325
H	 0.957290	 2.103070	 0.354729
C	 -1.883438	 0.145884	 -0.207175
H	 -1.431207	 2.195402	 0.224832
H	 -1.019646	 1.105716	 1.516076
C	 -3.229479	 -0.016665	 0.501876
H	 -2.055849	 0.400791	 -1.251740
H	 -1.368863	 -0.812336	 -0.207476
C	 -4.119657	 -1.090514	 -0.126266
H	 -3.757129	 0.935579	 0.494792
H	 -3.057695	 -0.261033	 1.549002
C	 -5.463461	 -1.243880	 0.585332
H	 -4.291496	 -0.848404	 -1.172925
H	 -3.595664	 -2.043986	 -0.116144
H	 -6.071481	 -2.011907	 0.117302
H	 -6.027557	 -0.315737	 0.562032
H	 -5.326238	 -1.519923	 1.627083
C	 4.728119	 -1.109107	 -0.004993
H	 4.882018	 -1.033965	 -1.071845
H	 5.068212	 -2.067527	 0.355250
H	 5.265056	 -0.311663	 0.488280

	symmetry c1
}
set optking {
	frozen_dihedral = ("
		15 11 8 5
	")
}

ee = optimize('scf')
oeprop('DIPOLE', 'QUADRUPOLE', 'MULLIKEN_CHARGES')
f=open( 'psi4out.xyz', 'w' )
f.write( "29  " )
f.write( str(ee) + "\n" )
f.write( MOL.save_string_xyz() )
f.close()
--------------------------------------------------------------------------

    Molecular point group: c1
  Charge       = 0
  Multiplicity = 1
  Basis Set: 6-31G*
  Basis Set:
  @DF-RHF Final Energy:  -501.04317358665730
    Total Energy =                       -501.0431735866568488
    Molecular point group: c1
  Basis Set: 6-31G*
  Basis Set:
  Basis Set: 6-31G*
  Basis Set:
  @DF-RHF Final Energy:  -501.04316250027966
    Total Energy =                       -501.0431625002797773
  Basis Set: 6-31G*
  Basis Set:
  Basis Set: 6-31G*
  Basis Set:
  @DF-RHF Final Energy:  -501.04336244886031
    Total Energy =                       -501.0433624488596251
  Basis Set: 6-31G*
  Basis Set:
  Basis Set: 6-31G*
  Basis Set:
  @DF-RHF Final Energy:  -501.04335788811102
    Total Energy =                       -501.0433578881102221
  Basis Set: 6-31G*
  Basis Set:
  Basis Set: 6-31G*
  Basis Set:
  @DF-RHF Final Energy:  -501.04329849395049
    Total Energy =                       -501.0432984939500329
  Basis Set: 6-31G*
  Basis Set:
  Basis Set: 6-31G*
  Basis Set:
  @DF-RHF Final Energy:  -501.04337668020821
    Total Energy =                       -501.0433766802080982
  Basis Set: 6-31G*
  Basis Set:
  Charge       = 0
  Multiplicity = 1
  Basis Set: 6-31G*
  Basis Set:

    Orbital Energies (a.u.)
    -----------------------

    Doubly Occupied:

       1A    -20.603471     2A    -20.545276     3A    -11.372140
       4A    -11.280733     5A    -11.234958     6A    -11.219185
       7A    -11.217721     8A    -11.215880     9A    -11.215762
      10A    -11.214348    11A    -11.209070    12A     -1.469165
      13A     -1.362611    14A     -1.097837    15A     -1.066863
      16A     -1.019461    17A     -0.977293    18A     -0.928491
      19A     -0.861073    20A     -0.799391    21A     -0.790345
      22A     -0.764406    23A     -0.701376    24A     -0.682327
      25A     -0.672240    26A     -0.649804    27A     -0.629143
      28A     -0.604830    29A     -0.595952    30A     -0.580134
      31A     -0.566635    32A     -0.549854    33A     -0.532902
      34A     -0.529918    35A     -0.515040    36A     -0.509904
      37A     -0.499099    38A     -0.477106    39A     -0.470618
      40A     -0.462121    41A     -0.459250    42A     -0.455677
      43A     -0.440527    44A     -0.435440

  @DF-RHF Final Energy:  -501.04337610868606

   => Energetics <=

    Nuclear Repulsion Energy =            610.6699681427066935
    One-Electron Energy =               -1892.4559370555105033
    Two-Electron Energy =                 780.7425928041177485
    DFT Exchange-Correlation Energy =       0.0000000000000000
    Empirical Dispersion Energy =           0.0000000000000000
    PCM Polarization Energy =               0.0000000000000000
    EFP Energy =                            0.0000000000000000
    Total Energy =                       -501.0433761086860613
    Molecular point group: c1
  Basis Set: 6-31G*
  Basis Set:

  -Total Gradient:
     Atom            X                  Y                   Z
    ------   -----------------  -----------------  -----------------
       1        0.000018584755     0.000046076452     0.000082072409
       2       -0.000063709340    -0.000143939402    -0.000226135909
       3        0.000050078489     0.000028208553     0.000064896919
       4        0.000024443561     0.000032577867     0.000066475723
       5        0.000504410041    -0.001227904962     0.001386568574
       6        0.000028941027     0.000008524946    -0.000004905201
       7       -0.000014245391    -0.000001070153     0.000005808727
       8       -0.001200868200     0.002121772831    -0.001793550975
       9       -0.000019762165     0.000008655026     0.000010729333
      10        0.000003728775    -0.000004641861     0.000000067929
      11        0.002775644849    -0.002258429811    -0.000202414645
      12       -0.000013265420     0.000035921803     0.000024441654
      13        0.000026305471    -0.000000906585    -0.000045451051
      14       -0.000023930675     0.000034902313    -0.000074320120
      15       -0.002086760721     0.001313923498     0.000778501790
      16        0.000004881851    -0.000045227896    -0.000034287488
      17       -0.000021012062     0.000034497740    -0.000027690750
      18        0.000002906494     0.000021109231    -0.000021302442
      19       -0.000008385953     0.000013979094    -0.000017655694
      20        0.000023906528    -0.000041086255     0.000033583906
      21       -0.000027737914     0.000018876159     0.000004467948
      22        0.000010991499     0.000015028892    -0.000025676239
      23        0.000008566230    -0.000014585796     0.000011334839
      24        0.000010570063    -0.000007416491    -0.000016611138
      25       -0.000011060493     0.000006358940     0.000017653854
      26       -0.000003713664     0.000003619840     0.000002053351
      27       -0.000002525864     0.000000463586     0.000000003743
      28       -0.000000406252     0.000000754907     0.000001418961
      29        0.000003424471    -0.000000042466    -0.000000078006

  **** Optimization is complete! (in 7 steps) ****
    Final optimized geometry and variables:
    Molecular point group: c1

    Geometry (in Angstrom), charge = 0, multiplicity = 1:

    O            3.160916508310     1.035092512180    -0.790298442645
    C            2.672198354725     0.156669642028    -0.155856419488
    C            1.232630616704     0.090959920331     0.293752228051
    O            3.351002149672    -0.908317116683     0.252414299547
    C            0.406517538598     1.291742993225    -0.162235868962
    H            0.827919629021    -0.846991676579    -0.071436198096
    H            1.236866236327     0.009847682999     1.377656539831
    C           -1.039766573609     1.270961617242     0.346533134313
    H            0.417855320195     1.345627096384    -1.246816318574
    H            0.894233715362     2.195783470655     0.186155083204
    C           -1.935912341892     0.208283607327    -0.299330229219
    H           -1.483323952849     2.248710145457     0.176883646788
    H           -1.031557805711     1.128641872902     1.426363276090
    C           -3.282207511236     0.057482458108     0.413626358746
    H           -2.122600780101     0.487129366695    -1.334746515578
    H           -1.436770658201    -0.757027941132    -0.318840592782
    C           -4.213160823259    -0.954698124338    -0.256262976939
    H           -3.777357603202     1.026399688534     0.456625974644
    H           -3.110849930015    -0.241864074354     1.446309681402
    C           -5.546360729417    -1.114757774865     0.473606499293
    H           -4.398967513323    -0.648284989923    -1.283459116574
    H           -3.714725335292    -1.920311770585    -0.311957386129
    H           -6.183278877456    -1.839460662887    -0.024143573766
    H           -6.086285874764    -0.172944380766     0.514483823461
    H           -5.396196941949    -1.452979455282     1.495047340128
    C            4.720906765260    -0.971084556447    -0.100224807914
    H            4.837209583463    -0.971553403839    -1.174459834607
    H            5.090838942403    -1.894996861999     0.316337254645
    H            5.259157552107    -0.131145871042     0.314893963624

  Mulliken Charges: (a.u.)
   Center  Symbol    Alpha    Beta     Spin     Total
       1     O     4.28588  4.28588  0.00000 -0.57175
       2     C     2.60487  2.60487  0.00000  0.79025
       3     C     3.20915  3.20915  0.00000 -0.41829
       4     O     4.30747  4.30747  0.00000 -0.61495
       5     C     3.15406  3.15406  0.00000 -0.30811
       6     H     0.39945  0.39945  0.00000  0.20109
       7     H     0.40102  0.40102  0.00000  0.19796
       8     C     3.15727  3.15727  0.00000 -0.31453
       9     H     0.41263  0.41263  0.00000  0.17475
      10     H     0.40921  0.40921  0.00000  0.18157
      11     C     3.15443  3.15443  0.00000 -0.30885
      12     H     0.41731  0.41731  0.00000  0.16537
      13     H     0.42452  0.42452  0.00000  0.15096
      14     C     3.15080  3.15080  0.00000 -0.30159
      15     H     0.42163  0.42163  0.00000  0.15674
      16     H     0.42374  0.42374  0.00000  0.15252
      17     C     3.15144  3.15144  0.00000 -0.30288
      18     H     0.42354  0.42354  0.00000  0.15293
      19     H     0.42424  0.42424  0.00000  0.15153
      20     C     3.23930  3.23930  0.00000 -0.47860
      21     H     0.42273  0.42273  0.00000  0.15454
      22     H     0.42353  0.42353  0.00000  0.15293
      23     H     0.41923  0.41923  0.00000  0.16155
      24     H     0.42160  0.42160  0.00000  0.15681
      25     H     0.42189  0.42189  0.00000  0.15623
      26     C     3.09241  3.09241  0.00000 -0.18483
      27     H     0.40907  0.40907  0.00000  0.18186
      28     H     0.40850  0.40850  0.00000  0.18299
      29     H     0.40910  0.40910  0.00000  0.18180

   Total alpha = 44.00000, Total beta = 44.00000, Total charge =  0.00000
