  ==> Input File <==

--------------------------------------------------------------------------
set {
	reference rhf
	basis 6-31G*
}

set_num_threads( 1 )
memory 2 gb

molecule MOL {
0 1

O	 1.570935	 0.717107	 -0.926021
C	 1.122059	 0.121804	 -0.000188
C	 -0.170150	 -0.657997	 -0.000612
O	 1.716744	 0.065866	 1.184799
C	 -1.412532	 0.227344	 -0.000452
H	 -0.153702	 -1.313099	 -0.867402
H	 -0.153924	 -1.313811	 0.865644
C	 -2.706999	 -0.587347	 -0.000541
H	 -1.388000	 0.879466	 -0.868000
H	 -1.387972	 0.879138	 0.867341
C	 -3.956778	 0.291888	 0.000910
H	 -2.726114	 -1.239230	 -0.871609
H	 -2.725217	 -1.240844	 0.869333
H	 -3.985213	 0.933254	 -0.875158
H	 -4.860123	 -0.309979	 0.000519
H	 -3.984618	 0.931166	 0.878514
C	 2.944102	 0.758774	 1.321228
H	 3.678870	 0.369748	 0.631110
H	 3.263535	 0.595703	 2.338734
H	 2.807079	 1.814495	 1.136333

	symmetry c1
}
set optking {
	frozen_dihedral = ("
		9 5 8 12,
		9 5 3 6,
		1 2 4 17
	")
}

ee = energy('scf')
oeprop('DIPOLE', 'QUADRUPOLE', 'MULLIKEN_CHARGES')
f=open( 'psi4out.xyz', 'w' )
f.write( "20  " )
f.write( str(ee) + "\n" )
f.write( MOL.save_string_xyz() )
f.close()
--------------------------------------------------------------------------

    Molecular point group: c1

    Geometry (in Angstrom), charge = 0, multiplicity = 1:

       Center              X                  Y                   Z               Mass
    ------------   -----------------  -----------------  -----------------  -----------------
           O          1.650909351257     0.584694810362    -1.133808565573    15.994914619560
           C          1.202033351257    -0.010608189638    -0.207975565573    12.000000000000
           C         -0.090175648743    -0.790409189638    -0.208399565573    12.000000000000
           O          1.796718351257    -0.066546189638     0.977011434427    15.994914619560
           C         -1.332557648743     0.094931810362    -0.208239565573    12.000000000000
           H         -0.073727648743    -1.445511189638    -1.075189565573     1.007825032070
           H         -0.073949648743    -1.446223189638     0.657856434427     1.007825032070
           C         -2.627024648743    -0.719759189638    -0.208328565573    12.000000000000
           H         -1.308025648743     0.747053810362    -1.075787565573     1.007825032070
           H         -1.307997648743     0.746725810362     0.659553434427     1.007825032070
           C         -3.876803648743     0.159475810362    -0.206877565573    12.000000000000
           H         -2.646139648743    -1.371642189638    -1.079396565573     1.007825032070
           H         -2.645242648743    -1.373256189638     0.661545434427     1.007825032070
           H         -3.905238648743     0.800841810362    -1.082945565573     1.007825032070
           H         -4.780148648743    -0.442391189638    -0.207268565573     1.007825032070
           H         -3.904643648743     0.798753810362     0.670726434427     1.007825032070
           C          3.024076351257     0.626361810362     1.113440434427    12.000000000000
           H          3.758844351257     0.237335810362     0.423322434427     1.007825032070
           H          3.343509351257     0.463290810362     2.130946434427     1.007825032070
           H          2.887053351257     1.682082810362     0.928545434427     1.007825032070

  Charge       = 0
  Multiplicity = 1
  Basis Set: 6-31G*
  Basis Set:

    Orbital Energies (a.u.)
    -----------------------

    Doubly Occupied:

       1A    -20.604774     2A    -20.543193     3A    -11.371266
       4A    -11.280266     5A    -11.233407     6A    -11.228866
       7A    -11.224265     8A    -11.213955     9A     -1.468931
      10A     -1.361532    11A     -1.092741    12A     -1.025383
      13A     -0.968816    14A     -0.889282    15A     -0.808012
      16A     -0.772346    17A     -0.693802    18A     -0.680026
      19A     -0.672969    20A     -0.646365    21A     -0.599784
      22A     -0.591770    23A     -0.573256    24A     -0.554218
      25A     -0.534250    26A     -0.522230    27A     -0.505378
      28A     -0.482900    29A     -0.480659    30A     -0.474304
      31A     -0.453770    32A     -0.430969

  @DF-RHF Final Energy:  -383.93926592807878

   => Energetics <=

    Nuclear Repulsion Energy =            381.7563808473917675
    One-Electron Energy =               -1279.4239514214391420
    Two-Electron Energy =                 513.7283046459685920
    DFT Exchange-Correlation Energy =       0.0000000000000000
    Empirical Dispersion Energy =           0.0000000000000000
    PCM Polarization Energy =               0.0000000000000000
    EFP Energy =                            0.0000000000000000
    Total Energy =                       -383.9392659280788394

  Mulliken Charges: (a.u.)
   Center  Symbol    Alpha    Beta     Spin     Total
       1     O     4.28544  4.28544  0.00000 -0.57087
       2     C     2.61359  2.61359  0.00000  0.77282
       3     C     3.20030  3.20030  0.00000 -0.40059
       4     O     4.30253  4.30253  0.00000 -0.60505
       5     C     3.16098  3.16098  0.00000 -0.32196
       6     H     0.40184  0.40184  0.00000  0.19633
       7     H     0.40193  0.40193  0.00000  0.19614
       8     C     3.15373  3.15373  0.00000 -0.30747
       9     H     0.40711  0.40711  0.00000  0.18579
      10     H     0.41498  0.41498  0.00000  0.17005
      11     C     3.24034  3.24034  0.00000 -0.48069
      12     H     0.41983  0.41983  0.00000  0.16034
      13     H     0.42067  0.42067  0.00000  0.15865
      14     H     0.41925  0.41925  0.00000  0.16150
      15     H     0.41751  0.41751  0.00000  0.16499
      16     H     0.42041  0.42041  0.00000  0.15918
      17     C     3.09320  3.09320  0.00000 -0.18639
      18     H     0.40871  0.40871  0.00000  0.18257
      19     H     0.40866  0.40866  0.00000  0.18267
      20     H     0.40899  0.40899  0.00000  0.18201

   Total alpha = 32.00000, Total beta = 32.00000, Total charge =  0.00000
