  ==> Input File <==

--------------------------------------------------------------------------
set {
	reference rhf
	basis cc-pvtz
}

set_num_threads( 4 )
memory 2 gb

molecule MOL {
0 1

H	 -2.123894	 -0.667238	 -0.609809
O	 -2.041679	 -0.058866	 0.103463
C	 -0.959304	 0.780994	 -0.094939
C	 0.354905	 0.037902	 -0.006215
H	 -0.985899	 1.279578	 -1.057596
H	 -0.969809	 1.529522	 0.682889
F	 0.373077	 -0.991769	 -0.834007
F	 1.352264	 0.831559	 -0.336336
F	 0.590313	 -0.423710	 1.198554

	symmetry c1
}
set optking {
	frozen_dihedral = ("
		7 4 3 5
	")
}

ee = optimize('scf')
oeprop('DIPOLE', 'QUADRUPOLE', 'MULLIKEN_CHARGES')
f=open( 'psi4out.xyz', 'w' )
f.write( "9  " )
f.write( str(ee) + "\n" )
f.write( MOL.save_string_xyz() )
f.close()
--------------------------------------------------------------------------

    Molecular point group: c1
  Charge       = 0
  Multiplicity = 1
  Basis Set: CC-PVTZ
  Basis Set:
  @DF-RHF Final Energy:  -450.84715615329634
    Total Energy =                       -450.8471561532962824
    Molecular point group: c1
  Basis Set: CC-PVTZ
  Basis Set:
  Basis Set: CC-PVTZ
  Basis Set:
  @DF-RHF Final Energy:  -450.84717023588456
    Total Energy =                       -450.8471702358847892
  Basis Set: CC-PVTZ
  Basis Set:
  Basis Set: CC-PVTZ
  Basis Set:
  @DF-RHF Final Energy:  -450.84717445258843
    Total Energy =                       -450.8471744525887175
  Basis Set: CC-PVTZ
  Basis Set:
  Charge       = 0
  Multiplicity = 1
  Basis Set: CC-PVTZ
  Basis Set:

    Orbital Energies (a.u.)
    -----------------------

    Doubly Occupied:

       1A    -26.340047     2A    -26.339977     3A    -26.335331
       4A    -20.583907     5A    -11.493925     6A    -11.310022
       7A     -1.748000     8A     -1.645534     9A     -1.642565
      10A     -1.407551    11A     -1.050510    12A     -0.929950
      13A     -0.837839    14A     -0.836576    15A     -0.812230
      16A     -0.731601    17A     -0.719113    18A     -0.703965
      19A     -0.672129    20A     -0.666000    21A     -0.649404
      22A     -0.632927    23A     -0.619592    24A     -0.533892
      25A     -0.484807

  @DF-RHF Final Energy:  -450.84717465954134

   => Energetics <=

    Nuclear Repulsion Energy =            277.7179392265102251
    One-Electron Energy =               -1177.6754339952774444
    Two-Electron Energy =                 449.1103201092259951
    DFT Exchange-Correlation Energy =       0.0000000000000000
    Empirical Dispersion Energy =           0.0000000000000000
    PCM Polarization Energy =               0.0000000000000000
    EFP Energy =                            0.0000000000000000
    Total Energy =                       -450.8471746595412242
    Molecular point group: c1
  Basis Set: CC-PVTZ
  Basis Set:

  -Total Gradient:
     Atom            X                  Y                   Z
    ------   -----------------  -----------------  -----------------
       1        0.000000892823     0.000008320648    -0.000004528077
       2        0.000010688707     0.000002628708    -0.000007373838
       3       -0.000790673281    -0.001446712202    -0.000376458241
       4        0.000574569096     0.000999418612    -0.000847928276
       5        0.000521856530     0.001005855050     0.000529329724
       6       -0.000000955024     0.000027227401    -0.000004763427
       7       -0.000371948332    -0.000606522968     0.000801263916
       8        0.000056326376     0.000009910764    -0.000006144152
       9       -0.000000756897    -0.000000126009    -0.000083397620

  **** Optimization is complete! (in 4 steps) ****
    Final optimized geometry and variables:
    Molecular point group: c1

    Geometry (in Angstrom), charge = 0, multiplicity = 1:

    H           -2.119674950327    -0.674698074288    -0.597162003571
    O           -2.042240316054    -0.054787580345     0.106600788339
    C           -0.959387778465     0.781495043352    -0.098586491417
    C            0.355516847283     0.038485030812    -0.008625063023
    H           -0.985731596070     1.284105193517    -1.059227714107
    H           -0.966025088612     1.532104816774     0.677574095889
    F            0.377805724552    -0.988477752935    -0.839033867627
    F            1.355444374272     0.833236727663    -0.326808640313
    F            0.583534152003    -0.430161201672     1.195736758744

  Mulliken Charges: (a.u.)
   Center  Symbol    Alpha    Beta     Spin     Total
       1     H     0.38619  0.38619  0.00000  0.22762
       2     O     4.19221  4.19221  0.00000 -0.38442
       3     C     2.99087  2.99087  0.00000  0.01826
       4     C     2.68351  2.68351  0.00000  0.63298
       5     H     0.46230  0.46230  0.00000  0.07540
       6     H     0.44781  0.44781  0.00000  0.10438
       7     F     4.61728  4.61728  0.00000 -0.23456
       8     F     4.61180  4.61180  0.00000 -0.22360
       9     F     4.60803  4.60803  0.00000 -0.21607

   Total alpha = 25.00000, Total beta = 25.00000, Total charge = -0.00000
