                              Psi4 1.0.54 Driver

  ==> Input File <==

--------------------------------------------------------------------------
set {
	reference rhf
	basis cc-pvtz
}

set_num_threads( 4 )
memory 2 gb

molecule MOL {
0 1

O	 -2.569726	 0.964361	 -0.458340
C	 -1.922978	 0.063265	 -0.045005
C	 -2.448829	 -1.320277	 0.215270
O	 -0.637375	 0.157174	 0.243149
H	 -2.305617	 -1.573333	 1.257946
H	 -3.496087	 -1.361894	 -0.036041
H	 -1.894260	 -2.037444	 -0.376078
C	 0.162530	 -1.009518	 0.097799
C	 1.587210	 -0.664190	 0.477086
H	 0.096803	 -1.356267	 -0.924704
H	 -0.233803	 -1.785900	 0.736810
C	 2.256770	 0.342732	 -0.454344
H	 2.154716	 -1.590834	 0.479041
H	 1.598751	 -0.289614	 1.496104
C	 3.698146	 0.643205	 -0.057145
H	 2.235038	 -0.042575	 -1.470299
H	 1.683491	 1.262594	 -0.461300
H	 4.150202	 1.356548	 -0.736242
H	 4.305463	 -0.255904	 -0.069842
H	 3.749130	 1.061068	 0.942759

	symmetry c1
}
set optking {
	frozen_dihedral = ("
		1 2 4 8
	")
}

ee,wfn = optimize('scf', return_wfn=True)
oeprop( wfn, 'DIPOLE', 'QUADRUPOLE', 'MULLIKEN_CHARGES')
f=open( 'psi4out.xyz', 'w' )
f.write( "20  " )
f.write( str(ee) + "\n" )
f.write( MOL.save_string_xyz() )
f.close()
--------------------------------------------------------------------------

    Molecular point group: c1
  Charge       = 0
  Multiplicity = 1
  Basis Set: CC-PVTZ
  Basis Set:
  @DF-RHF Final Energy:  -384.06521080396112
    Total Energy =                       -384.0652108039610084
    Molecular point group: c1
  Basis Set: CC-PVTZ
  Basis Set:
  Basis Set: CC-PVTZ
  Basis Set:
  @DF-RHF Final Energy:  -383.97926184937432
    Total Energy =                       -383.9792618493744385
  Basis Set: CC-PVTZ
  Basis Set:
  Basis Set: CC-PVTZ
  Basis Set:
  @DF-RHF Final Energy:  -384.05942286119705
    Total Energy =                       -384.0594228611972767
  Basis Set: CC-PVTZ
  Basis Set:
  Basis Set: CC-PVTZ
  Basis Set:
  @DF-RHF Final Energy:  -384.07147284307626
    Total Energy =                       -384.0714728430762079
  Basis Set: CC-PVTZ
  Basis Set:
  @DF-RHF Final Energy:  -384.07182095646084
    Total Energy =                       -384.0718209564613517
  @DF-RHF Final Energy:  -384.07246566729276
    Total Energy =                       -384.0724656672924766
  @DF-RHF Final Energy:  -384.07275320429488
    Total Energy =                       -384.0727532042943722
  Basis Set: CC-PVTZ
  Basis Set:
  @DF-RHF Final Energy:  -384.07279366846615
    Total Energy =                       -384.0727936684660335
  Basis Set: CC-PVTZ
  Basis Set:
  Basis Set: CC-PVTZ
  Basis Set:
  @DF-RHF Final Energy:  -384.07279923328423
    Total Energy =                       -384.0727992332840586
  Basis Set: CC-PVTZ
  Basis Set:
  Basis Set: CC-PVTZ
  Basis Set:
  @DF-RHF Final Energy:  -384.07280192856666
    Total Energy =                       -384.0728019285666051
  Basis Set: CC-PVTZ
  Basis Set:
  Charge       = 0
  Multiplicity = 1
  Basis Set: CC-PVTZ
  Basis Set:

    Orbital Energies (a.u.)
    -----------------------

    Doubly Occupied:

       1A    -20.589042     2A    -20.531285     3A    -11.368648
       4A    -11.294664     5A    -11.239691     6A    -11.228140
       7A    -11.218185     8A    -11.211017     9A     -1.464220
      10A     -1.368278    11A     -1.087020    12A     -1.019834
      13A     -0.999601    14A     -0.888958    15A     -0.813822
      16A     -0.781671    17A     -0.700401    18A     -0.688366
      19A     -0.662935    20A     -0.635805    21A     -0.609481
      22A     -0.595053    23A     -0.580344    24A     -0.563795
      25A     -0.544709    26A     -0.528073    27A     -0.519455
      28A     -0.486789    29A     -0.478064    30A     -0.474432
      31A     -0.447425    32A     -0.436433

  @DF-RHF Final Energy:  -384.07280248126585

   => Energetics <=

    Nuclear Repulsion Energy =            385.4533929275717128
    One-Electron Energy =               -1286.9411121360467405
    Two-Electron Energy =                 517.4149167272094019
    DFT Exchange-Correlation Energy =       0.0000000000000000
    Empirical Dispersion Energy =           0.0000000000000000
    PCM Polarization Energy =               0.0000000000000000
    EFP Energy =                            0.0000000000000000
    Total Energy =                       -384.0728024812656258
    Molecular point group: c1
  Basis Set: CC-PVTZ
  Basis Set:

  -Total Gradient:
     Atom            X                  Y                   Z
    ------   -----------------  -----------------  -----------------
       1       -0.000479583902    -0.000938608301    -0.002911412105
       2        0.000444853782     0.001721459743     0.002758030249
       3        0.000004671985    -0.000048478216    -0.000004327217
       4        0.000216855688    -0.001383467312     0.002735884603
       5       -0.000003146197     0.000013284734    -0.000013045373
       6        0.000012671790     0.000005901333    -0.000000312016
       7        0.000005601233     0.000007131687     0.000014055377
       8       -0.000226998919     0.000625153902    -0.002561276247
       9        0.000024841625     0.000008103829    -0.000028448624
      10        0.000006121785    -0.000005061625    -0.000006220301
      11       -0.000009106387     0.000008491864     0.000009405430
      12       -0.000008176914    -0.000015968989     0.000005373899
      13       -0.000000262669    -0.000002115499    -0.000006267660
      14       -0.000001111935     0.000002435001     0.000006480650
      15        0.000016654844     0.000015226253     0.000004338716
      16       -0.000003401255    -0.000005908253    -0.000003022352
      17        0.000002698294    -0.000002752224     0.000000476815
      18       -0.000002635292     0.000009111526    -0.000000283128
      19       -0.000001212735    -0.000012308735    -0.000000167164
      20        0.000000665168    -0.000001630717     0.000000736449

  **** Optimization is complete! (in 11 steps) ****
    Final optimized geometry and variables:
    Molecular point group: c1

    Geometry (in Angstrom), charge = 0, multiplicity = 1:

    O           -2.152171052137     1.601326544043     0.416377735606
    C           -1.725938888133     0.529262111063     0.655550813673
    C           -2.586311640287    -0.598069984476     1.170372474122
    O           -0.425780546049     0.283841372204     0.496841422630
    H           -2.169258872786    -1.008498373307     2.081288261948
    H           -3.574089058211    -0.212520410808     1.359959215287
    H           -2.649374162605    -1.397439131381     0.442833901473
    C            0.062797396242    -0.998479325245     0.153988975413
    C            1.553250760521    -0.887625618907    -0.096461828563
    H           -0.444542970680    -1.354224039750    -0.736456866021
    H           -0.127029136557    -1.698716701837     0.958242128494
    C            1.918828794455    -0.020064425886    -1.297511431183
    H            1.936015157328    -1.894554833940    -0.240273967224
    H            2.024309947235    -0.497031018779     0.799907158651
    C            3.425000265518     0.069905559128    -1.517452903357
    H            1.447933509218    -0.427780205920    -2.188394896458
    H            1.509861481996     0.972861621919    -1.158576050812
    H            3.656429479729     0.687236547749    -2.377275828576
    H            3.858849175546    -0.910253000044    -1.687343787591
    H            3.920020690225     0.505298857996    -0.655983594653

  Mulliken Charges: (a.u.)
   Center  Symbol    Alpha    Beta     Spin     Total
       1     O     4.17864  4.17864  0.00000 -0.35728
       2     C     2.81986  2.81986  0.00000  0.36027
       3     C     3.16458  3.16458  0.00000 -0.32916
       4     O     4.13708  4.13708  0.00000 -0.27416
       5     H     0.44385  0.44385  0.00000  0.11230
       6     H     0.42710  0.42710  0.00000  0.14581
       7     H     0.44745  0.44745  0.00000  0.10511
       8     C     2.99777  2.99777  0.00000  0.00445
       9     C     3.08410  3.08410  0.00000 -0.16820
      10     H     0.45711  0.45711  0.00000  0.08578
      11     H     0.45083  0.45083  0.00000  0.09834
      12     C     3.08602  3.08602  0.00000 -0.17205
      13     H     0.45287  0.45287  0.00000  0.09427
      14     H     0.44931  0.44931  0.00000  0.10137
      15     C     3.15074  3.15074  0.00000 -0.30149
      16     H     0.45710  0.45710  0.00000  0.08579
      17     H     0.43862  0.43862  0.00000  0.12275
      18     H     0.44635  0.44635  0.00000  0.10730
      19     H     0.45714  0.45714  0.00000  0.08572
      20     H     0.45347  0.45347  0.00000  0.09306

   Total alpha = 32.00000, Total beta = 32.00000, Total charge = -0.00000

*** Psi4 exiting successfully. Buy a developer a beer!
