                              Psi4 1.0.54 Driver

  ==> Input File <==

--------------------------------------------------------------------------
set {
	reference rhf
	basis cc-pvtz
}

set_num_threads( 4 )
memory 2 gb

molecule MOL {
0 1

H	 -3.780537	 -0.293206	 -1.657147
C	 -2.767507	 -0.168794	 -1.324781
C	 -2.317038	 1.080297	 -0.936848
C	 -1.916882	 -1.257321	 -1.285679
H	 -2.977850	 1.924744	 -0.967462
C	 -1.015162	 1.239378	 -0.509875
H	 -2.267193	 -2.225578	 -1.586733
C	 -0.613021	 -1.099639	 -0.858386
H	 -0.649928	 2.199229	 -0.205986
C	 -0.158405	 0.150257	 -0.469033
H	 0.048314	 -1.940576	 -0.826909
C	 1.238974	 0.374429	 0.000004
O	 1.968286	 -0.725612	 -0.000027
O	 1.659269	 1.429479	 0.339715
C	 3.373556	 -0.568203	 0.000011
H	 3.695416	 -0.031588	 -0.879663
H	 3.782700	 -1.565294	 -0.000152
H	 3.695405	 -0.031851	 0.879862

	symmetry c1
}
set optking {
	frozen_dihedral = ("
		10 12 13 15
	")
}

ee,wfn = optimize('scf', return_wfn=True)
oeprop( wfn, 'DIPOLE', 'QUADRUPOLE', 'MULLIKEN_CHARGES')
f=open( 'psi4out.xyz', 'w' )
f.write( "18  " )
f.write( str(ee) + "\n" )
f.write( MOL.save_string_xyz() )
f.close()
--------------------------------------------------------------------------

    Molecular point group: c1
  Charge       = 0
  Multiplicity = 1
  Basis Set: CC-PVTZ
  Basis Set:
  @DF-RHF Final Energy:  -457.50793830375420
    Total Energy =                       -457.5079383037539174
    Molecular point group: c1
  Basis Set: CC-PVTZ
  Basis Set:
  Basis Set: CC-PVTZ
  Basis Set:
  @DF-RHF Final Energy:  -457.50525897802481
    Total Energy =                       -457.5052589780248127
  Basis Set: CC-PVTZ
  Basis Set:
  Basis Set: CC-PVTZ
  Basis Set:
  @DF-RHF Final Energy:  -457.50809395224746
    Total Energy =                       -457.5080939522474637
  Basis Set: CC-PVTZ
  Basis Set:
  Basis Set: CC-PVTZ
  Basis Set:
  @DF-RHF Final Energy:  -457.50814983025384
    Total Energy =                       -457.5081498302542968
  Basis Set: CC-PVTZ
  Basis Set:
  Basis Set: CC-PVTZ
  Basis Set:
  @DF-RHF Final Energy:  -457.50815508188936
    Total Energy =                       -457.5081550818894129
  Basis Set: CC-PVTZ
  Basis Set:
  Charge       = 0
  Multiplicity = 1
  Basis Set: CC-PVTZ
  Basis Set:

    Orbital Energies (a.u.)
    -----------------------

    Doubly Occupied:

       1A    -20.598706     2A    -20.535358     3A    -11.372023
       4A    -11.281976     5A    -11.245255     6A    -11.243921
       7A    -11.243061     8A    -11.240425     9A    -11.236368
      10A    -11.235632    11A     -1.475555    12A     -1.368522
      13A     -1.171063    14A     -1.051575    15A     -1.029390
      16A     -0.980000    17A     -0.864077    18A     -0.838858
      19A     -0.781113    20A     -0.744767    21A     -0.687830
      22A     -0.680658    23A     -0.675963    24A     -0.634540
      25A     -0.630399    26A     -0.601793    27A     -0.590058
      28A     -0.563379    29A     -0.532115    30A     -0.520436
      31A     -0.509272    32A     -0.502524    33A     -0.463809
      34A     -0.449048    35A     -0.350565    36A     -0.346578

  @DF-RHF Final Energy:  -457.50815528555938

   => Energetics <=

    Nuclear Repulsion Energy =            494.1313529911852811
    One-Electron Energy =               -1602.7258019689518278
    Two-Electron Energy =                 651.0862936922076187
    DFT Exchange-Correlation Energy =       0.0000000000000000
    Empirical Dispersion Energy =           0.0000000000000000
    PCM Polarization Energy =               0.0000000000000000
    EFP Energy =                            0.0000000000000000
    Total Energy =                       -457.5081552855590417
    Molecular point group: c1
  Basis Set: CC-PVTZ
  Basis Set:

  -Total Gradient:
     Atom            X                  Y                   Z
    ------   -----------------  -----------------  -----------------
       1       -0.000001344453    -0.000000389268    -0.000000448051
       2       -0.000006015180     0.000035271840     0.000004565094
       3       -0.000022541033    -0.000014400098    -0.000007344292
       4        0.000038685753    -0.000015184906     0.000007331161
       5        0.000000713269     0.000004299927    -0.000000646533
       6        0.000025989061    -0.000011366500    -0.000002420561
       7        0.000000550276    -0.000000484651     0.000002738815
       8       -0.000024876328    -0.000013019826    -0.000004945955
       9       -0.000001254957     0.000005588161     0.000003700868
      10        0.001224611814     0.000743894466    -0.004168007059
      11        0.000010736292    -0.000006260069    -0.000000997241
      12       -0.001766209816    -0.001161987050     0.003567678704
      13        0.000567045726     0.000433009151     0.005363604845
      14       -0.000032528945     0.000129770509     0.000081239919
      15       -0.000051571449    -0.000117929857    -0.004841047535
      16        0.000013963205     0.000020470238    -0.000032474092
      17        0.000008270277    -0.000047156603    -0.000005219456
      18        0.000015776492     0.000015874538     0.000032691372

  **** Optimization is complete! (in 6 steps) ****
    Final optimized geometry and variables:
    Molecular point group: c1

    Geometry (in Angstrom), charge = 0, multiplicity = 1:

    H           -3.854518196709    -0.345525164722    -1.168893799479
    C           -2.841459933771    -0.219865931121    -0.836959162163
    C           -2.390714408689     1.031297701784    -0.454967498080
    C           -1.991232288823    -1.308264361105    -0.792397406140
    H           -3.051515612556     1.875668753121    -0.489525911491
    C           -1.089065063519     1.192158288942    -0.028760196783
    H           -2.341690124719    -2.278055904685    -1.088384885589
    C           -0.686929633826    -1.148616917804    -0.366241070054
    H           -0.723613805479     2.153658153656     0.269854389477
    C           -0.231597612935     0.103247071723     0.015160488422
    H           -0.025663037141    -1.989461966956    -0.330574252953
    C            1.170761373881     0.331646992039     0.467649271785
    O            1.898087622296    -0.772127237086     0.491475202974
    O            1.609183772274     1.399136591433     0.736399073482
    C            3.303887197290    -0.618580163998     0.477201525591
    H            3.607407144514    -0.026015208950    -0.373608291810
    H            3.710347822376    -1.614029553739     0.401699736374
    H            3.649352633627    -0.142952751549     1.382389281099

  Mulliken Charges: (a.u.)
   Center  Symbol    Alpha    Beta     Spin     Total
       1     H     0.42023  0.42023  0.00000  0.15954
       2     C     3.06944  3.06944  0.00000 -0.13887
       3     C     3.07566  3.07566  0.00000 -0.15131
       4     C     3.07532  3.07532  0.00000 -0.15063
       5     H     0.42040  0.42040  0.00000  0.15919
       6     C     3.07604  3.07604  0.00000 -0.15207
       7     H     0.42180  0.42180  0.00000  0.15640
       8     C     3.08355  3.08355  0.00000 -0.16710
       9     H     0.40671  0.40671  0.00000  0.18659
      10     C     3.01182  3.01182  0.00000 -0.02365
      11     H     0.41088  0.41088  0.00000  0.17824
      12     C     2.78236  2.78236  0.00000  0.43529
      13     O     4.15093  4.15093  0.00000 -0.30187
      14     O     4.20801  4.20801  0.00000 -0.41603
      15     C     3.03652  3.03652  0.00000 -0.07304
      16     H     0.45644  0.45644  0.00000  0.08712
      17     H     0.44543  0.44543  0.00000  0.10914
      18     H     0.44847  0.44847  0.00000  0.10306

   Total alpha = 36.00000, Total beta = 36.00000, Total charge = -0.00000

*** Psi4 exiting successfully. Buy a developer a beer!
