                              Psi4 1.0.54 Driver

  ==> Input File <==

--------------------------------------------------------------------------
set {
	reference rhf
	basis cc-pvtz
}

set_num_threads( 4 )
memory 2 gb

molecule MOL {
0 1

H	 -1.549485	 1.303985	 2.637589
O	 -1.193194	 2.028896	 2.157524
C	 -0.636540	 1.584536	 0.952194
C	 0.674373	 0.858264	 1.179854
H	 -1.320745	 0.938945	 0.410709
H	 -0.461677	 2.460231	 0.343703
O	 1.172093	 0.457955	 -0.054438
H	 0.513526	 -0.006251	 1.826104
H	 1.372963	 1.519770	 1.687748
C	 2.395478	 -0.199028	 -0.000366
H	 2.505946	 -0.901710	 -0.823354
H	 3.174616	 0.545641	 -0.071768
H	 2.513730	 -0.742241	 0.934223

	symmetry c1
}
set optking {
	frozen_dihedral = ("
		4 7 10 13
	")
}

ee,wfn = optimize('scf', return_wfn=True)
oeprop( wfn, 'DIPOLE', 'QUADRUPOLE', 'MULLIKEN_CHARGES')
f=open( 'psi4out.xyz', 'w' )
f.write( "13  " )
f.write( str(ee) + "\n" )
f.write( MOL.save_string_xyz() )
f.close()
--------------------------------------------------------------------------

    Molecular point group: c1
  Charge       = 0
  Multiplicity = 1
  Basis Set: CC-PVTZ
  Basis Set:
  @DF-RHF Final Energy:  -268.05972966869376
    Total Energy =                       -268.0597296686938762
    Molecular point group: c1
  Basis Set: CC-PVTZ
  Basis Set:
  Basis Set: CC-PVTZ
  Basis Set:
  @DF-RHF Final Energy:  -268.06032851329223
    Total Energy =                       -268.0603285132922338
  Basis Set: CC-PVTZ
  Basis Set:
  Basis Set: CC-PVTZ
  Basis Set:
  @DF-RHF Final Energy:  -268.06047212049930
    Total Energy =                       -268.0604721204991847
  Basis Set: CC-PVTZ
  Basis Set:
  Charge       = 0
  Multiplicity = 1
  Basis Set: CC-PVTZ
  Basis Set:

    Orbital Energies (a.u.)
    -----------------------

    Doubly Occupied:

       1A    -20.554233     2A    -20.552717     3A    -11.269567
       4A    -11.267586     5A    -11.267215     6A     -1.389851
       7A     -1.368865     8A     -1.019563     9A     -0.914124
      10A     -0.842819    11A     -0.711366    12A     -0.675153
      13A     -0.662550    14A     -0.638049    15A     -0.598588
      16A     -0.569245    17A     -0.549888    18A     -0.490775
      19A     -0.484172    20A     -0.441481    21A     -0.421485

  @DF-RHF Final Energy:  -268.06047327714680

   => Energetics <=

    Nuclear Repulsion Energy =            190.3515454961581952
    One-Electron Energy =                -743.4454544008666517
    Two-Electron Energy =                 285.0334356275614596
    DFT Exchange-Correlation Energy =       0.0000000000000000
    Empirical Dispersion Energy =           0.0000000000000000
    PCM Polarization Energy =               0.0000000000000000
    EFP Energy =                            0.0000000000000000
    Total Energy =                       -268.0604732771469685
    Molecular point group: c1
  Basis Set: CC-PVTZ
  Basis Set:

  -Total Gradient:
     Atom            X                  Y                   Z
    ------   -----------------  -----------------  -----------------
       1        0.000005561092    -0.000005719633    -0.000008012337
       2        0.000051105699     0.000003059825    -0.000009928873
       3       -0.000014961938    -0.000012614143    -0.000061879803
       4       -0.001055303588    -0.002085672752     0.000350357071
       5        0.000010174303     0.000000690246    -0.000006982202
       6       -0.000020199133     0.000018734048     0.000001408649
       7        0.001940514549     0.003469606153    -0.000041423504
       8        0.000003904832     0.000005663163     0.000016278603
       9        0.000014316070    -0.000016401116    -0.000052856291
      10       -0.001969754897    -0.003717441870    -0.001367584178
      11       -0.000067334849     0.000038684762     0.000017986885
      12       -0.000010400237     0.000006905497    -0.000012149983
      13        0.001112378099     0.002294505820     0.001174785965

  **** Optimization is complete! (in 4 steps) ****
    Final optimized geometry and variables:
    Molecular point group: c1

    Geometry (in Angstrom), charge = 0, multiplicity = 1:

    H           -2.031237943379     0.355057570765     1.756587210301
    O           -1.673755257198     1.081184098890     1.279253493372
    C           -1.106511305857     0.638350100033     0.078223727193
    C            0.205124764933    -0.083008464103     0.316404891804
    H           -1.783777600452    -0.010618409957    -0.467977861206
    H           -0.930923319822     1.514349121893    -0.529601156324
    O            0.707146285705    -0.488234322891    -0.915029150620
    H            0.043409787357    -0.945307351874     0.964272867902
    H            0.896980089290     0.584321496262     0.826133980539
    C            1.937170842284    -1.140144613847    -0.874929376357
    H            1.986233494584    -1.832341755410    -1.703349716725
    H            2.754725916096    -0.429377418772    -0.963496695409
    H            2.072469175204    -1.683477619289     0.055785574895

  Mulliken Charges: (a.u.)
   Center  Symbol    Alpha    Beta     Spin     Total
       1     H     0.39411  0.39411  0.00000  0.21179
       2     O     4.20212  4.20212  0.00000 -0.40425
       3     C     2.97445  2.97445  0.00000  0.05111
       4     C     2.96499  2.96499  0.00000  0.07003
       5     H     0.46716  0.46716  0.00000  0.06568
       6     H     0.45256  0.45256  0.00000  0.09488
       7     O     4.17796  4.17796  0.00000 -0.35592
       8     H     0.48087  0.48087  0.00000  0.03825
       9     H     0.47050  0.47050  0.00000  0.05900
      10     C     3.02941  3.02941  0.00000 -0.05881
      11     H     0.44965  0.44965  0.00000  0.10069
      12     H     0.46338  0.46338  0.00000  0.07323
      13     H     0.47284  0.47284  0.00000  0.05433

   Total alpha = 21.00000, Total beta = 21.00000, Total charge =  0.00000

*** Psi4 exiting successfully. Buy a developer a beer!
