                              Psi4 1.0.54 Driver

  ==> Input File <==

--------------------------------------------------------------------------
set {
	reference rhf
	basis cc-pvtz
}

set_num_threads( 4 )
memory 2 gb

molecule MOL {
0 1

H	 -2.465994	 0.915348	 1.031561
C	 -2.528158	 0.117938	 0.303211
C	 -1.266975	 -0.731818	 0.315338
H	 -2.680110	 0.573323	 -0.666197
H	 -3.393796	 -0.491010	 0.535064
C	 0.000000	 0.039916	 0.000014
H	 -1.343046	 -1.546280	 -0.400038
H	 -1.130784	 -1.207274	 1.282957
C	 1.286532	 -0.763243	 0.000268
O	 -0.014466	 1.204267	 -0.233345
C	 2.547023	 0.087626	 -0.000114
H	 1.264245	 -1.421103	 -0.864380
H	 1.264290	 -1.420353	 0.865489
H	 2.584452	 0.725630	 -0.872909
H	 3.427035	 -0.544422	 0.000125
H	 2.584484	 0.726356	 0.872143

	symmetry c1
}
set optking {
	frozen_dihedral = ("
		3 6 9 12
	")
}

ee,wfn = optimize('scf', return_wfn=True)
oeprop( wfn, 'DIPOLE', 'QUADRUPOLE', 'MULLIKEN_CHARGES')
f=open( 'psi4out.xyz', 'w' )
f.write( "16  " )
f.write( str(ee) + "\n" )
f.write( MOL.save_string_xyz() )
f.close()
--------------------------------------------------------------------------

    Molecular point group: c1
  Charge       = 0
  Multiplicity = 1
  Basis Set: CC-PVTZ
  Basis Set:
  @DF-RHF Final Energy:  -270.13161261435846
    Total Energy =                       -270.1316126143584597
    Molecular point group: c1
  Basis Set: CC-PVTZ
  Basis Set:
  Basis Set: CC-PVTZ
  Basis Set:
  @DF-RHF Final Energy:  -270.13169281213629
    Total Energy =                       -270.1316928121364640
  Basis Set: CC-PVTZ
  Basis Set:
  Basis Set: CC-PVTZ
  Basis Set:
  @DF-RHF Final Energy:  -270.13170980542088
    Total Energy =                       -270.1317098054205417
  Basis Set: CC-PVTZ
  Basis Set:
  Basis Set: CC-PVTZ
  Basis Set:
  @DF-RHF Final Energy:  -270.13176387089572
    Total Energy =                       -270.1317638708957247
  Basis Set: CC-PVTZ
  Basis Set:
  Basis Set: CC-PVTZ
  Basis Set:
  @DF-RHF Final Energy:  -270.13178040469609
    Total Energy =                       -270.1317804046961442
  Basis Set: CC-PVTZ
  Basis Set:
  Basis Set: CC-PVTZ
  Basis Set:
  @DF-RHF Final Energy:  -270.13178484275670
    Total Energy =                       -270.1317848427565878
  Basis Set: CC-PVTZ
  Basis Set:
  Basis Set: CC-PVTZ
  Basis Set:
  @DF-RHF Final Energy:  -270.13178716654591
    Total Energy =                       -270.1317871665459052
  Basis Set: CC-PVTZ
  Basis Set:
  Charge       = 0
  Multiplicity = 1
  Basis Set: CC-PVTZ
  Basis Set:

    Orbital Energies (a.u.)
    -----------------------

    Doubly Occupied:

       1A    -20.538915     2A    -11.317941     3A    -11.232337
       4A    -11.232228     5A    -11.212126     6A    -11.211948
       7A     -1.399275     8A     -1.069572     9A     -1.037276
      10A     -0.917067    11A     -0.846436    12A     -0.725931
      13A     -0.669476    14A     -0.648195    15A     -0.620915
      16A     -0.607888    17A     -0.561191    18A     -0.529248
      19A     -0.525938    20A     -0.511118    21A     -0.504548
      22A     -0.493289    23A     -0.487080    24A     -0.400870

  @DF-RHF Final Energy:  -270.13178791581254

   => Energetics <=

    Nuclear Repulsion Energy =            240.3425988096446417
    One-Electron Energy =                -842.3471555470148360
    Two-Electron Energy =                 331.8727688215574858
    DFT Exchange-Correlation Energy =       0.0000000000000000
    Empirical Dispersion Energy =           0.0000000000000000
    PCM Polarization Energy =               0.0000000000000000
    EFP Energy =                            0.0000000000000000
    Total Energy =                       -270.1317879158127084
    Molecular point group: c1
  Basis Set: CC-PVTZ
  Basis Set:

  -Total Gradient:
     Atom            X                  Y                   Z
    ------   -----------------  -----------------  -----------------
       1       -0.000003573707     0.000013151041     0.000007504641
       2       -0.000005804222    -0.000009781412    -0.000001885156
       3        0.000056384683     0.000067058156     0.000348379277
       4       -0.000005672982     0.000007894804    -0.000009768433
       5       -0.000000231753     0.000002175111     0.000000144059
       6       -0.000043400603    -0.000016349239    -0.000544446240
       7        0.000008118935    -0.000013757652    -0.000009795851
       8        0.000007384020    -0.000007935355     0.000011535946
       9       -0.000204193096    -0.000378088628     0.000441074647
      10       -0.000010837684     0.000023171293    -0.000002162519
      11       -0.000008254624    -0.000012202248     0.000002569973
      12        0.000198742166     0.000325271132    -0.000251457301
      13        0.000005950625    -0.000004814630     0.000002573743
      14       -0.000002820099     0.000001324218    -0.000003979836
      15        0.000007158657    -0.000004083499    -0.000000085429
      16        0.000001049679     0.000006966913     0.000009798480

  **** Optimization is complete! (in 8 steps) ****
    Final optimized geometry and variables:
    Molecular point group: c1

    Geometry (in Angstrom), charge = 0, multiplicity = 1:

    H           -2.520959518919     0.935472228680     0.833970075890
    C           -2.542171610010     0.092886371503     0.156588094735
    C           -1.269764594964    -0.731818466772     0.273095073403
    H           -2.661775303261     0.483190346426    -0.845800914113
    H           -3.407600814452    -0.515258151947     0.391224966203
    C           -0.001236482948     0.043755279891    -0.023091837249
    H           -1.301351675535    -1.594283175796    -0.386803727356
    H           -1.165890435641    -1.137582346218     1.276511477032
    C            1.274430292564    -0.772651371917    -0.102823435114
    O           -0.005778197089     1.220314576484    -0.184653192445
    C            2.544325382969     0.064864272044    -0.111238185021
    H            1.207598841385    -1.368311949060    -1.010476549033
    H            1.280684407630    -1.485082207879     0.716353588962
    H            2.548363903158     0.753097707387    -0.944877353291
    H            3.415988222050    -0.574051158742    -0.187696643274
    H            2.630170877506     0.649698937809     0.795756960136

  Mulliken Charges: (a.u.)
   Center  Symbol    Alpha    Beta     Spin     Total
       1     H     0.44595  0.44595  0.00000  0.10810
       2     C     3.14088  3.14088  0.00000 -0.28175
       3     C     3.09888  3.09888  0.00000 -0.19776
       4     H     0.44965  0.44965  0.00000  0.10070
       5     H     0.45068  0.45068  0.00000  0.09864
       6     C     2.87344  2.87344  0.00000  0.25312
       7     H     0.44596  0.44596  0.00000  0.10808
       8     H     0.44553  0.44553  0.00000  0.10895
       9     C     3.09837  3.09837  0.00000 -0.19674
      10     O     4.17205  4.17205  0.00000 -0.34410
      11     C     3.14108  3.14108  0.00000 -0.28217
      12     H     0.44564  0.44564  0.00000  0.10872
      13     H     0.44580  0.44580  0.00000  0.10839
      14     H     0.44488  0.44488  0.00000  0.11025
      15     H     0.45062  0.45062  0.00000  0.09876
      16     H     0.45059  0.45059  0.00000  0.09881

   Total alpha = 24.00000, Total beta = 24.00000, Total charge = -0.00000

*** Psi4 exiting successfully. Buy a developer a beer!
