                              Psi4 1.0.54 Driver

  ==> Input File <==

--------------------------------------------------------------------------
set {
	reference rhf
	basis cc-pvtz
}

set_num_threads( 4 )
memory 2 gb

molecule MOL {
0 1

O	 -2.071633	 -1.227563	 -0.223463
C	 -1.652164	 -0.152425	 0.058082
C	 -0.327811	 0.006324	 0.778296
C	 -2.402515	 1.108629	 -0.298924
C	 0.843231	 -0.001575	 -0.211665
H	 -0.319484	 0.928173	 1.350354
H	 -0.227804	 -0.823091	 1.466705
C	 1.804739	 -1.162999	 0.022485
H	 1.390560	 0.935018	 -0.141532
H	 0.445543	 -0.053679	 -1.219383
C	 2.964202	 -1.182173	 -0.967686
H	 2.195122	 -1.109219	 1.035023
H	 1.256736	 -2.098263	 -0.044707
H	 3.552830	 -0.273363	 -0.899736
H	 2.605604	 -1.267457	 -1.987736
H	 3.625921	 -2.019250	 -0.778392
H	 -3.240910	 0.874416	 -0.936711
H	 -1.747554	 1.818823	 -0.790984
H	 -2.760419	 1.579708	 0.610998

	symmetry c1
}
set optking {
	frozen_dihedral = ("
		9 5 3 2
	")
}

ee,wfn = optimize('scf', return_wfn=True)
oeprop( wfn, 'DIPOLE', 'QUADRUPOLE', 'MULLIKEN_CHARGES')
f=open( 'psi4out.xyz', 'w' )
f.write( "19  " )
f.write( str(ee) + "\n" )
f.write( MOL.save_string_xyz() )
f.close()
--------------------------------------------------------------------------

    Molecular point group: c1
  Charge       = 0
  Multiplicity = 1
  Basis Set: CC-PVTZ
  Basis Set:
  @DF-RHF Final Energy:  -309.17182048712971
    Total Energy =                       -309.1718204871300486
    Molecular point group: c1
  Basis Set: CC-PVTZ
  Basis Set:
  Basis Set: CC-PVTZ
  Basis Set:
  @DF-RHF Final Energy:  -309.17187244275931
    Total Energy =                       -309.1718724427594225
  Basis Set: CC-PVTZ
  Basis Set:
  Basis Set: CC-PVTZ
  Basis Set:
  @DF-RHF Final Energy:  -309.17224781368606
    Total Energy =                       -309.1722478136856580
  Basis Set: CC-PVTZ
  Basis Set:
  Basis Set: CC-PVTZ
  Basis Set:
  @DF-RHF Final Energy:  -309.17235175437554
    Total Energy =                       -309.1723517543755406
  Basis Set: CC-PVTZ
  Basis Set:
  @DF-RHF Final Energy:  -309.17239047238439
    Total Energy =                       -309.1723904723846204
  Basis Set: CC-PVTZ
  Basis Set:
  @DF-RHF Final Energy:  -309.17240807931250
    Total Energy =                       -309.1724080793125609
  Basis Set: CC-PVTZ
  Basis Set:
  Basis Set: CC-PVTZ
  Basis Set:
  @DF-RHF Final Energy:  -309.17241097385380
    Total Energy =                       -309.1724109738538004
  Basis Set: CC-PVTZ
  Basis Set:
  Basis Set: CC-PVTZ
  Basis Set:
  @DF-RHF Final Energy:  -309.17241282792230
    Total Energy =                       -309.1724128279223578
  Basis Set: CC-PVTZ
  Basis Set:
  Charge       = 0
  Multiplicity = 1
  Basis Set: CC-PVTZ
  Basis Set:

    Orbital Energies (a.u.)
    -----------------------

    Doubly Occupied:

       1A    -20.536784     2A    -11.319317     3A    -11.230908
       4A    -11.227656     5A    -11.226701     6A    -11.221041
       7A    -11.211890     8A     -1.396714     9A     -1.091209
      10A     -1.030089    11A     -0.982003    12A     -0.892403
      13A     -0.808406    14A     -0.735804    15A     -0.663375
      16A     -0.640981    17A     -0.627702    18A     -0.612551
      19A     -0.584262    20A     -0.575651    21A     -0.554420
      22A     -0.528724    23A     -0.524793    24A     -0.501935
      25A     -0.478824    26A     -0.475620    27A     -0.466670
      28A     -0.399318

  @DF-RHF Final Energy:  -309.17241338680765

   => Energetics <=

    Nuclear Repulsion Energy =            303.6684468825126260
    One-Electron Energy =               -1020.5902204308169985
    Two-Electron Energy =                 407.7493601614967247
    DFT Exchange-Correlation Energy =       0.0000000000000000
    Empirical Dispersion Energy =           0.0000000000000000
    PCM Polarization Energy =               0.0000000000000000
    EFP Energy =                            0.0000000000000000
    Total Energy =                       -309.1724133868076478
    Molecular point group: c1
  Basis Set: CC-PVTZ
  Basis Set:

  -Total Gradient:
     Atom            X                  Y                   Z
    ------   -----------------  -----------------  -----------------
       1        0.000002251887    -0.000000425195    -0.000002180759
       2       -0.000029717731     0.000153992183     0.000003450757
       3        0.000040210475    -0.000230056478    -0.000078421516
       4       -0.000009480766     0.000015797618     0.000005207423
       5        0.000189183898    -0.000022056650     0.000234412344
       6       -0.000016035456    -0.000004007636     0.000015051165
       7       -0.000011979653    -0.000000749390     0.000019918642
       8        0.000015150856    -0.000036791070    -0.000015404971
       9       -0.000179952017     0.000097164184    -0.000174906436
      10        0.000018012720    -0.000007870540    -0.000015687867
      11       -0.000000114073     0.000006672075     0.000007513677
      12       -0.000002411206     0.000001668113    -0.000001361049
      13        0.000000387065     0.000006583911     0.000003704891
      14        0.000000321099    -0.000000299173    -0.000002627626
      15       -0.000001227008     0.000000051198     0.000000201989
      16        0.000000377623    -0.000001415095     0.000000207784
      17       -0.000027409779    -0.000016110557    -0.000010653106
      18        0.000031332970    -0.000000195366    -0.000007590098
      19       -0.000018900902     0.000038047869     0.000019164755

  **** Optimization is complete! (in 9 steps) ****
    Final optimized geometry and variables:
    Molecular point group: c1

    Geometry (in Angstrom), charge = 0, multiplicity = 1:

    O           -2.067909723737    -0.874086236223     0.124671733758
    C           -1.545356842936     0.183738246940     0.264387697897
    C           -0.202727580251     0.319041700847     0.950719714205
    C           -2.184468794060     1.454067356250    -0.247401567297
    C            0.955953001700     0.396988299412    -0.076307160790
    H           -0.207504178822     1.203657840039     1.576917715919
    H           -0.079768251631    -0.542477379978     1.591587872241
    C            1.939637507058    -0.763885206899     0.049292748390
    H            1.488061968498     1.334298853993     0.041671442497
    H            0.559000301947     0.404579852796    -1.087043741042
    C            3.072467314452    -0.694947865214    -0.968163119372
    H            2.353783671471    -0.772476660251     1.053519692465
    H            1.399348489521    -1.697929339581    -0.067949503813
    H            3.647263938995     0.218415612409    -0.855069312301
    H            2.689491565704    -0.720689681884    -1.982843894745
    H            3.753060541005    -1.530031114624    -0.851175216360
    H           -3.025438186381     1.217540680257    -0.881095130602
    H           -1.467616642171     2.060001494586    -0.789248727013
    H           -2.526859885377     2.040850907758     0.599198586314

  Mulliken Charges: (a.u.)
   Center  Symbol    Alpha    Beta     Spin     Total
       1     O     4.17730  4.17730  0.00000 -0.35461
       2     C     2.85686  2.85686  0.00000  0.28628
       3     C     3.10743  3.10743  0.00000 -0.21486
       4     C     3.15586  3.15586  0.00000 -0.31173
       5     C     3.09660  3.09660  0.00000 -0.19320
       6     H     0.44237  0.44237  0.00000  0.11527
       7     H     0.43977  0.43977  0.00000  0.12046
       8     C     3.08317  3.08317  0.00000 -0.16635
       9     H     0.44803  0.44803  0.00000  0.10395
      10     H     0.45351  0.45351  0.00000  0.09298
      11     C     3.15067  3.15067  0.00000 -0.30135
      12     H     0.45268  0.45268  0.00000  0.09464
      13     H     0.44574  0.44574  0.00000  0.10853
      14     H     0.45588  0.45588  0.00000  0.08824
      15     H     0.45380  0.45380  0.00000  0.09241
      16     H     0.44673  0.44673  0.00000  0.10655
      17     H     0.43599  0.43599  0.00000  0.12803
      18     H     0.44977  0.44977  0.00000  0.10047
      19     H     0.44786  0.44786  0.00000  0.10428

   Total alpha = 28.00000, Total beta = 28.00000, Total charge = -0.00000

*** Psi4 exiting successfully. Buy a developer a beer!
