  ==> Input File <==

--------------------------------------------------------------------------
set {
	reference rhf
	basis 6-31G*
}

set_num_threads( 4 )
memory 2 gb

molecule MOL {
0 1

H	 3.276176	 0.174363	 -0.109463
N	 2.434251	 -0.367735	 -0.081097
C	 1.267428	 0.496480	 0.024474
H	 2.501951	 -0.965776	 0.720575
C	 -0.016086	 -0.325158	 -0.029487
H	 1.288818	 1.183521	 -0.816092
H	 1.267576	 1.109062	 0.929528
C	 -1.282277	 0.529072	 0.046735
H	 -0.012495	 -0.908639	 -0.945788
H	 -0.015903	 -1.041248	 0.791956
C	 -2.325660	 0.140080	 -1.000041
H	 -1.018296	 1.576874	 -0.081374
H	 -1.719770	 0.443983	 1.039366
H	 -1.930016	 0.248146	 -2.005779
H	 -3.211256	 0.763309	 -0.923717
H	 -2.636895	 -0.893546	 -0.877681

	symmetry c1
}
set optking {
	frozen_dihedral = ("
		12 8 5 9
	")
}

ee = optimize('scf')
oeprop('DIPOLE', 'QUADRUPOLE', 'MULLIKEN_CHARGES')
f=open( 'psi4out.xyz', 'w' )
f.write( "16  " )
f.write( str(ee) + "\n" )
f.write( MOL.save_string_xyz() )
f.close()
--------------------------------------------------------------------------

    Molecular point group: c1
  Charge       = 0
  Multiplicity = 1
  Basis Set: 6-31G*
  Basis Set:
  @DF-RHF Final Energy:  -212.31221116780338
    Total Energy =                       -212.3122111678034116
    Molecular point group: c1
  Basis Set: 6-31G*
  Basis Set:
  Basis Set: 6-31G*
  Basis Set:
  @DF-RHF Final Energy:  -212.31245273278523
    Total Energy =                       -212.3124527327853457
  Basis Set: 6-31G*
  Basis Set:
  Basis Set: 6-31G*
  Basis Set:
  @DF-RHF Final Energy:  -212.31251272962584
    Total Energy =                       -212.3125127296259507
  Basis Set: 6-31G*
  Basis Set:
  Charge       = 0
  Multiplicity = 1
  Basis Set: 6-31G*
  Basis Set:

    Orbital Energies (a.u.)
    -----------------------

    Doubly Occupied:

       1A    -15.532674     2A    -11.240503     3A    -11.214827
       4A    -11.209322     5A    -11.207812     6A     -1.176942
       7A     -1.056793     8A     -0.958433     9A     -0.845121
      10A     -0.791937    11A     -0.662776    12A     -0.626447
      13A     -0.616384    14A     -0.578043    15A     -0.558278
      16A     -0.528442    17A     -0.499304    18A     -0.472734
      19A     -0.462634    20A     -0.455727    21A     -0.381237

  @DF-RHF Final Energy:  -212.31251291987374

   => Energetics <=

    Nuclear Repulsion Energy =            186.3359672364314576
    One-Electron Energy =                -655.1442155109618852
    Two-Electron Energy =                 256.4957353546565173
    DFT Exchange-Correlation Energy =       0.0000000000000000
    Empirical Dispersion Energy =           0.0000000000000000
    PCM Polarization Energy =               0.0000000000000000
    EFP Energy =                            0.0000000000000000
    Total Energy =                       -212.3125129198739387
    Molecular point group: c1
  Basis Set: 6-31G*
  Basis Set:

  -Total Gradient:
     Atom            X                  Y                   Z
    ------   -----------------  -----------------  -----------------
       1        0.000031940528    -0.000008132355     0.000005778708
       2        0.000014972780    -0.000030023986    -0.000000923043
       3       -0.000023547180     0.000074981033    -0.000021757157
       4        0.000007021149    -0.000003833261     0.000007959983
       5        0.001802192018     0.002811627097    -0.000998323048
       6       -0.000004876687    -0.000001009188     0.000000584197
       7       -0.000021255825    -0.000008357643    -0.000017941646
       8       -0.000821144464    -0.000854328680    -0.003330743468
       9       -0.001419936009    -0.002202641180     0.001416516148
      10       -0.000019626481     0.000002053161     0.000007028763
      11       -0.000007793037    -0.000046127701    -0.000028880372
      12        0.000423467291     0.000241926376     0.002914264786
      13        0.000008733131     0.000000665986     0.000003311584
      14       -0.000010215544     0.000046370089     0.000011521885
      15        0.000002218103    -0.000012996452     0.000059069028
      16        0.000037850231    -0.000010173297    -0.000027466349

  **** Optimization is complete! (in 4 steps) ****
    Final optimized geometry and variables:
    Molecular point group: c1

    Geometry (in Angstrom), charge = 0, multiplicity = 1:

    H            3.240392279740     0.074639874063     0.139877115864
    N            2.395883714396    -0.464049213905     0.152888439213
    C            1.230222944311     0.403539868531     0.227216205015
    H            2.443696174523    -1.058863233178     0.958339740813
    C           -0.054730730504    -0.412634586922     0.147150132397
    H            1.271095442169     1.087139339151    -0.615527142638
    H            1.209064642636     1.020667679748     1.129251108754
    C           -1.333395102114     0.445612336874     0.231340870760
    H           -0.044261462992    -0.997385651210    -0.767616436778
    H           -0.055711776397    -1.143939789643     0.953720801660
    C           -2.402987328669     0.047526978721    -0.784225530877
    H           -1.081868239856     1.496676010628     0.106022448728
    H           -1.751956303720     0.374710080882     1.231998073314
    H           -2.041566488010     0.172765142655    -1.800828280680
    H           -3.298181208356     0.651524182204    -0.671586339836
    H           -2.687869498466    -0.993707409718    -0.662349530271

  Mulliken Charges: (a.u.)
   Center  Symbol    Alpha    Beta     Spin     Total
       1     H     0.33238  0.33238  0.00000  0.33524
       2     N     3.92201  3.92201  0.00000 -0.84401
       3     C     3.06273  3.06273  0.00000 -0.12547
       4     H     0.33523  0.33523  0.00000  0.32955
       5     C     3.15352  3.15352  0.00000 -0.30705
       6     H     0.42053  0.42053  0.00000  0.15894
       7     H     0.43431  0.43431  0.00000  0.13138
       8     C     3.15850  3.15850  0.00000 -0.31699
       9     H     0.41107  0.41107  0.00000  0.17786
      10     H     0.42569  0.42569  0.00000  0.14862
      11     C     3.23896  3.23896  0.00000 -0.47793
      12     H     0.42174  0.42174  0.00000  0.15653
      13     H     0.42104  0.42104  0.00000  0.15792
      14     H     0.42052  0.42052  0.00000  0.15895
      15     H     0.42086  0.42086  0.00000  0.15827
      16     H     0.42091  0.42091  0.00000  0.15817

   Total alpha = 21.00000, Total beta = 21.00000, Total charge = -0.00000
