  ==> Input File <==

--------------------------------------------------------------------------
set {
	reference rhf
	basis 6-31G*
}

set_num_threads( 1 )
memory 2 gb

molecule MOL {
0 1

H	 3.463771	 0.168298	 -0.756243
C	 2.752674	 -0.045734	 0.033351
C	 1.322923	 0.120767	 -0.479465
H	 2.934561	 -1.059086	 0.377456
H	 2.958358	 0.631174	 0.856809
C	 0.306652	 -0.176050	 0.621399
H	 1.144658	 -0.551717	 -1.312180
H	 1.166477	 1.131798	 -0.836680
N	 -1.068537	 -0.011044	 0.085269
H	 0.372515	 -1.192590	 0.973735
H	 0.391664	 0.520566	 1.441230
O	 -1.369386	 1.061760	 -0.338942
O	 -1.790308	 -0.959394	 0.146114

	symmetry c1
}
set optking {
	frozen_dihedral = ("
		7 3 6 9
	")
}

ee = energy('scf')
oeprop('DIPOLE', 'QUADRUPOLE', 'MULLIKEN_CHARGES')
f=open( 'psi4out.xyz', 'w' )
f.write( "13  " )
f.write( str(ee) + "\n" )
f.write( MOL.save_string_xyz() )
f.close()
--------------------------------------------------------------------------

    Molecular point group: c1

    Geometry (in Angstrom), charge = 0, multiplicity = 1:

       Center              X                  Y                   Z               Mass
    ------------   -----------------  -----------------  -----------------  -----------------
           H          3.468100878313     0.169239366082    -0.767058897228     1.007825032070
           C          2.757003878313    -0.044792633918     0.022535102772    12.000000000000
           C          1.327252878313     0.121708366082    -0.490280897228    12.000000000000
           H          2.938890878313    -1.058144633918     0.366640102772     1.007825032070
           H          2.962687878313     0.632115366082     0.845993102772     1.007825032070
           C          0.310981878313    -0.175108633918     0.610583102772    12.000000000000
           H          1.148987878313    -0.550775633918    -1.322995897228     1.007825032070
           H          1.170806878313     1.132739366082    -0.847495897228     1.007825032070
           N         -1.064207121687    -0.010102633918     0.074453102772    14.003074004780
           H          0.376844878313    -1.191648633918     0.962919102772     1.007825032070
           H          0.395993878313     0.521507366082     1.430414102772     1.007825032070
           O         -1.365056121687     1.062701366082    -0.349757897228    15.994914619560
           O         -1.785978121687    -0.958452633918     0.135298102772    15.994914619560

  Charge       = 0
  Multiplicity = 1
  Basis Set: 6-31G*
  Basis Set:

    Orbital Energies (a.u.)
    -----------------------

    Doubly Occupied:

       1A    -20.602309     2A    -20.600262     3A    -15.847490
       4A    -11.299354     5A    -11.254319     6A    -11.238681
       7A     -1.631121     8A     -1.416761     9A     -1.134990
      10A     -1.027669    11A     -0.883402    12A     -0.831737
      13A     -0.759808    14A     -0.737907    15A     -0.723887
      16A     -0.668922    17A     -0.604615    18A     -0.586674
      19A     -0.550294    20A     -0.521692    21A     -0.512545
      22A     -0.484875    23A     -0.472752    24A     -0.448775

  @DF-RHF Final Energy:  -321.73528279637640

   => Energetics <=

    Nuclear Repulsion Energy =            247.4981545248467967
    One-Electron Energy =                -928.7852303023066725
    Two-Electron Energy =                 359.5517929810839632
    DFT Exchange-Correlation Energy =       0.0000000000000000
    Empirical Dispersion Energy =           0.0000000000000000
    PCM Polarization Energy =               0.0000000000000000
    EFP Energy =                            0.0000000000000000
    Total Energy =                       -321.7352827963759410

  Mulliken Charges: (a.u.)
   Center  Symbol    Alpha    Beta     Spin     Total
       1     H     0.40762  0.40762  0.00000  0.18475
       2     C     3.24819  3.24819  0.00000 -0.49637
       3     C     3.17333  3.17333  0.00000 -0.34667
       4     H     0.41549  0.41549  0.00000  0.16901
       5     H     0.41531  0.41531  0.00000  0.16938
       6     C     3.08681  3.08681  0.00000 -0.17361
       7     H     0.40469  0.40469  0.00000  0.19062
       8     H     0.39399  0.39399  0.00000  0.21201
       9     N     3.22156  3.22156  0.00000  0.55688
      10     H     0.38552  0.38552  0.00000  0.22896
      11     H     0.38773  0.38773  0.00000  0.22455
      12     O     4.23093  4.23093  0.00000 -0.46185
      13     O     4.22883  4.22883  0.00000 -0.45766

   Total alpha = 24.00000, Total beta = 24.00000, Total charge =  0.00000
