                              Psi4 1.0.54 Driver

  ==> Input File <==

--------------------------------------------------------------------------
set {
	reference rhf
	basis cc-pvtz
}

set_num_threads( 4 )
memory 2 gb

molecule MOL {
0 1

O	 0.749630	 1.305591	 -0.000460
C	 0.576499	 0.134701	 -0.003900
C	 -0.765656	 -0.550508	 -0.002152
O	 1.564816	 -0.744612	 -0.000631
C	 -1.945526	 0.411052	 0.000603
H	 -0.794329	 -1.203792	 -0.868145
H	 -0.791555	 -1.205429	 0.862701
C	 -1.859718	 1.428288	 -1.132001
H	 -1.987280	 0.922645	 0.954502
H	 -2.866621	 -0.153447	 -0.078791
H	 -0.959134	 2.028685	 -1.055965
H	 -2.707732	 2.102009	 -1.111200
H	 -1.849451	 0.940310	 -2.101073
C	 2.884339	 -0.237801	 0.002883
H	 3.064150	 0.362814	 -0.876312
H	 3.533055	 -1.098529	 0.004958
H	 3.059365	 0.363432	 0.882614

	symmetry c1
}
set optking {
	frozen_dihedral = ("
		9 5 3 6
	")
}

ee,wfn = optimize('scf', return_wfn=True)
oeprop( wfn, 'DIPOLE', 'QUADRUPOLE', 'MULLIKEN_CHARGES')
f=open( 'psi4out.xyz', 'w' )
f.write( "17  " )
f.write( str(ee) + "\n" )
f.write( MOL.save_string_xyz() )
f.close()
--------------------------------------------------------------------------

    Molecular point group: c1
  Charge       = 0
  Multiplicity = 1
  Basis Set: CC-PVTZ
  Basis Set:
  @DF-RHF Final Energy:  -345.02937040244160
    Total Energy =                       -345.0293704024417138
    Molecular point group: c1
  Basis Set: CC-PVTZ
  Basis Set:
  Basis Set: CC-PVTZ
  Basis Set:
  @DF-RHF Final Energy:  -345.03295237490670
    Total Energy =                       -345.0329523749068130
  Basis Set: CC-PVTZ
  Basis Set:
  Basis Set: CC-PVTZ
  Basis Set:
  @DF-RHF Final Energy:  -345.03274313301586
    Total Energy =                       -345.0327431330159698
  Basis Set: CC-PVTZ
  Basis Set:
  Basis Set: CC-PVTZ
  Basis Set:
  @DF-RHF Final Energy:  -345.03293780681622
    Total Energy =                       -345.0329378068164488
  Basis Set: CC-PVTZ
  Basis Set:
  @DF-RHF Final Energy:  -345.03378104081332
    Total Energy =                       -345.0337810408132100
  Basis Set: CC-PVTZ
  Basis Set:
  @DF-RHF Final Energy:  -345.03390874006635
    Total Energy =                       -345.0339087400666358
  Basis Set: CC-PVTZ
  Basis Set:
  Basis Set: CC-PVTZ
  Basis Set:
  @DF-RHF Final Energy:  -345.03395317625916
    Total Energy =                       -345.0339531762589331
  Basis Set: CC-PVTZ
  Basis Set:
  Basis Set: CC-PVTZ
  Basis Set:
  @DF-RHF Final Energy:  -345.03396326706911
    Total Energy =                       -345.0339632670688843
  Basis Set: CC-PVTZ
  Basis Set:
  Charge       = 0
  Multiplicity = 1
  Basis Set: CC-PVTZ
  Basis Set:

    Orbital Energies (a.u.)
    -----------------------

    Doubly Occupied:

       1A    -20.597951     2A    -20.533836     3A    -11.365641
       4A    -11.279126     5A    -11.234418     6A    -11.222232
       7A    -11.206182     8A     -1.473345     9A     -1.366341
      10A     -1.080001    11A     -1.000553    12A     -0.940312
      13A     -0.831262    14A     -0.768432    15A     -0.701789
      16A     -0.684890    17A     -0.674924    18A     -0.624810
      19A     -0.613810    20A     -0.570159    21A     -0.563336
      22A     -0.536095    23A     -0.525706    24A     -0.491659
      25A     -0.485160    26A     -0.481247    27A     -0.460599
      28A     -0.438797

  @DF-RHF Final Energy:  -345.03396400238603

   => Energetics <=

    Nuclear Repulsion Energy =            318.8888718694304316
    One-Electron Energy =               -1102.3404460392634974
    Two-Electron Energy =                 438.4176101674469237
    DFT Exchange-Correlation Energy =       0.0000000000000000
    Empirical Dispersion Energy =           0.0000000000000000
    PCM Polarization Energy =               0.0000000000000000
    EFP Energy =                            0.0000000000000000
    Total Energy =                       -345.0339640023861421
    Molecular point group: c1
  Basis Set: CC-PVTZ
  Basis Set:

  -Total Gradient:
     Atom            X                  Y                   Z
    ------   -----------------  -----------------  -----------------
       1       -0.000051329266    -0.000015968680     0.000000648998
       2        0.000044348678     0.000027876558    -0.000021888116
       3        0.001871661483     0.002115538190    -0.001866544056
       4       -0.000040551615    -0.000039545574     0.000005913245
       5        0.001944851501     0.002204800185    -0.000984298340
       6       -0.001847256515    -0.002067718961     0.001697252512
       7        0.000009855960    -0.000021229021     0.000018905316
       8        0.000003170160    -0.000015249706     0.000004066526
       9       -0.001953618997    -0.002245475982     0.001148157340
      10        0.000005039908     0.000005219129    -0.000008625440
      11        0.000031740170     0.000009778663     0.000008472607
      12       -0.000013903591     0.000012022060    -0.000008676937
      13       -0.000008608205    -0.000000685249     0.000005296032
      14        0.000037895216     0.000056993428     0.000008161013
      15        0.000012603561    -0.000035363767     0.000023719461
      16       -0.000046463445     0.000017918714     0.000010978356
      17        0.000000565000    -0.000008909984    -0.000041538518

  **** Optimization is complete! (in 9 steps) ****
    Final optimized geometry and variables:
    Molecular point group: c1

    Geometry (in Angstrom), charge = 0, multiplicity = 1:

    O            0.599490254679     0.937220853120     0.705941839046
    C            0.379084892614    -0.142064678148     0.271148365968
    C           -0.988349206880    -0.763175047514     0.145363053503
    O            1.329953352447    -0.971318544171    -0.123236444004
    C           -2.146037964642     0.229827100978     0.096286347657
    H           -1.005576088764    -1.437015165042    -0.701648042979
    H           -1.093814135742    -1.399888685261     1.020326953757
    C           -2.096663989111     1.203002391363    -1.076729589020
    H           -2.201020373878     0.765404051409     1.035943635467
    H           -3.060062837672    -0.352773121938     0.032923046570
    H           -1.231386655962     1.849069005080    -1.018531310320
    H           -2.980387811567     1.830069826984    -1.087485681181
    H           -2.061253459045     0.670181668052    -2.022133072447
    C            2.667754667444    -0.533840761159     0.008346073778
    H            2.836010765059     0.358376893345    -0.576006717844
    H            3.281464755807    -1.340428835435    -0.358309044516
    H            2.901388970940    -0.327411015758     1.042227077187

  Mulliken Charges: (a.u.)
   Center  Symbol    Alpha    Beta     Spin     Total
       1     O     4.20093  4.20093  0.00000 -0.40186
       2     C     2.80421  2.80421  0.00000  0.39159
       3     C     3.10435  3.10435  0.00000 -0.20870
       4     O     4.14564  4.14564  0.00000 -0.29128
       5     C     3.08184  3.08184  0.00000 -0.16368
       6     H     0.43670  0.43670  0.00000  0.12659
       7     H     0.43809  0.43809  0.00000  0.12383
       8     C     3.15540  3.15540  0.00000 -0.31081
       9     H     0.44702  0.44702  0.00000  0.10596
      10     H     0.44905  0.44905  0.00000  0.10190
      11     H     0.44221  0.44221  0.00000  0.11557
      12     H     0.44803  0.44803  0.00000  0.10393
      13     H     0.45699  0.45699  0.00000  0.08601
      14     C     3.03588  3.03588  0.00000 -0.07176
      15     H     0.45408  0.45408  0.00000  0.09184
      16     H     0.44514  0.44514  0.00000  0.10971
      17     H     0.45442  0.45442  0.00000  0.09116

   Total alpha = 28.00000, Total beta = 28.00000, Total charge =  0.00000

*** Psi4 exiting successfully. Buy a developer a beer!
