  ==> Input File <==

--------------------------------------------------------------------------
set {
	reference rhf
	basis 6-31G*
}

set_num_threads( 1 )
memory 2 gb

molecule MOL {
0 1

H	 -3.892951	 0.981613	 -0.358725
C	 -3.196921	 0.361773	 0.172313
C	 -2.076860	 -0.007332	 -0.404944
H	 -3.439953	 0.057760	 1.173024
O	 -0.933501	 0.717919	 -0.288316
H	 -1.991666	 -0.909481	 -0.984655
C	 0.154949	 0.358018	 -1.067801
C	 0.105833	 1.008833	 -2.431737
H	 0.224879	 -0.714899	 -1.207994
H	 1.047297	 0.704403	 -0.567584
F	 1.182380	 0.664663	 -3.123401
F	 -0.954904	 0.623167	 -3.121614
F	 0.077350	 2.323090	 -2.352307

	symmetry c1
}
set optking {
	frozen_dihedral = ("
		11 8 7 9,
		3 5 7 9,
		6 3 5 7
	")
}

ee = energy('scf')
oeprop('DIPOLE', 'QUADRUPOLE', 'MULLIKEN_CHARGES')
f=open( 'psi4out.xyz', 'w' )
f.write( "13  " )
f.write( str(ee) + "\n" )
f.write( MOL.save_string_xyz() )
f.close()
--------------------------------------------------------------------------

    Molecular point group: c1

    Geometry (in Angstrom), charge = 0, multiplicity = 1:

       Center              X                  Y                   Z               Mass
    ------------   -----------------  -----------------  -----------------  -----------------
           H         -3.278716970129     0.181317814600     1.344801520515     1.007825032070
           C         -2.582686970129    -0.438522185400     1.875839520515    12.000000000000
           C         -1.462625970129    -0.807627185400     1.298582520515    12.000000000000
           H         -2.825718970129    -0.742535185400     2.876550520515     1.007825032070
           O         -0.319266970129    -0.082376185400     1.415210520515    15.994914619560
           H         -1.377431970129    -1.709776185400     0.718871520515     1.007825032070
           C          0.769183029871    -0.442277185400     0.635725520515    12.000000000000
           C          0.720067029871     0.208537814600    -0.728210479485    12.000000000000
           H          0.839113029871    -1.515194185400     0.495532520515     1.007825032070
           H          1.661531029871    -0.095892185400     1.135942520515     1.007825032070
           F          1.796614029871    -0.135632185400    -1.419874479485    18.998403224000
           F         -0.340669970129    -0.177128185400    -1.418087479485    18.998403224000
           F          0.691584029871     1.522794814600    -0.648780479485    18.998403224000

  Charge       = 0
  Multiplicity = 1
  Basis Set: 6-31G*
  Basis Set:

    Orbital Energies (a.u.)
    -----------------------

    Doubly Occupied:

       1A    -26.362813     2A    -26.359115     3A    -26.355259
       4A    -20.661077     5A    -11.522183     6A    -11.391764
       7A    -11.336467     8A    -11.126701     9A     -1.757863
      10A     -1.656641    11A     -1.653210    12A     -1.483316
      13A     -1.104153    14A     -1.022826    15A     -0.941188
      16A     -0.853854    17A     -0.847349    18A     -0.837610
      19A     -0.815686    20A     -0.744518    21A     -0.726071
      22A     -0.715726    23A     -0.685796    24A     -0.675553
      25A     -0.666745    26A     -0.658471    27A     -0.653232
      28A     -0.585953    29A     -0.565482    30A     -0.552810
      31A     -0.507650    32A     -0.248767

  @DF-RHF Final Energy:  -527.38074072084112

   => Energetics <=

    Nuclear Repulsion Energy =            413.5035389190600199
    One-Electron Energy =               -1549.6172833637044732
    Two-Electron Energy =                 608.7330037238044724
    DFT Exchange-Correlation Energy =       0.0000000000000000
    Empirical Dispersion Energy =           0.0000000000000000
    PCM Polarization Energy =               0.0000000000000000
    EFP Energy =                            0.0000000000000000
    Total Energy =                       -527.3807407208399809

  Mulliken Charges: (a.u.)
   Center  Symbol    Alpha    Beta     Spin     Total
       1     H     0.40078  0.40078  0.00000  0.19845
       2     C     3.40534  3.40534  0.00000 -0.81068
       3     C     2.79677  2.79677  0.00000  0.40647
       4     H     0.39920  0.39920  0.00000  0.20159
       5     O     4.24927  4.24927  0.00000 -0.49853
       6     H     0.40203  0.40203  0.00000  0.19595
       7     C     3.08195  3.08195  0.00000 -0.16390
       8     C     2.45346  2.45346  0.00000  1.09308
       9     H     0.39829  0.39829  0.00000  0.20341
      10     H     0.38188  0.38188  0.00000  0.23624
      11     F     4.68025  4.68025  0.00000 -0.36050
      12     F     4.67914  4.67914  0.00000 -0.35829
      13     F     4.67164  4.67164  0.00000 -0.34328

   Total alpha = 32.00000, Total beta = 32.00000, Total charge = -0.00000
