  ==> Input File <==

--------------------------------------------------------------------------
set {
	reference rhf
	basis cc-pvtz
}

set_num_threads( 4 )
memory 2 gb

molecule MOL {
0 1

H	 2.261957	 1.817748	 -1.165486
N	 1.452186	 1.236855	 -1.214718
C	 1.263552	 0.494993	 0.021953
H	 1.581319	 0.616257	 -1.986418
C	 -0.016533	 -0.325589	 -0.026925
H	 1.197079	 1.213221	 0.832338
H	 2.102363	 -0.162457	 0.254629
C	 -1.280353	 0.525521	 0.047747
H	 -0.016686	 -0.912532	 -0.939714
H	 -0.014099	 -1.037598	 0.796369
C	 -2.560681	 -0.301323	 -0.007747
H	 -1.279957	 1.241025	 -0.770189
H	 -1.270445	 1.110526	 0.963468
H	 -2.617064	 -0.872870	 -0.928010
H	 -3.439525	 0.331102	 0.043462
H	 -2.609427	 -1.002736	 0.818585

	symmetry c1
}
set optking {
	frozen_dihedral = ("
		6 3 5 9
	")
}

ee = optimize('scf')
oeprop('DIPOLE', 'QUADRUPOLE', 'MULLIKEN_CHARGES')
f=open( 'psi4out.xyz', 'w' )
f.write( "16  " )
f.write( str(ee) + "\n" )
f.write( MOL.save_string_xyz() )
f.close()
--------------------------------------------------------------------------

    Molecular point group: c1
  Charge       = 0
  Multiplicity = 1
  Basis Set: CC-PVTZ
  Basis Set:
  @DF-RHF Final Energy:  -212.39946699018509
    Total Energy =                       -212.3994669901852603
    Molecular point group: c1
  Basis Set: CC-PVTZ
  Basis Set:
  Basis Set: CC-PVTZ
  Basis Set:
  @DF-RHF Final Energy:  -212.39961523086069
    Total Energy =                       -212.3996152308607179
  Basis Set: CC-PVTZ
  Basis Set:
  Basis Set: CC-PVTZ
  Basis Set:
  @DF-RHF Final Energy:  -212.39963895143146
    Total Energy =                       -212.3996389514316547
  Basis Set: CC-PVTZ
  Basis Set:
  Basis Set: CC-PVTZ
  Basis Set:
  @DF-RHF Final Energy:  -212.39964024369510
    Total Energy =                       -212.3996402436951030
  Basis Set: CC-PVTZ
  Basis Set:
  Charge       = 0
  Multiplicity = 1
  Basis Set: CC-PVTZ
  Basis Set:

    Orbital Energies (a.u.)
    -----------------------

    Doubly Occupied:

       1A    -15.527264     2A    -11.238925     3A    -11.208569
       4A    -11.203975     5A    -11.201341     6A     -1.178955
       7A     -1.054576     8A     -0.958671     9A     -0.846069
      10A     -0.784619    11A     -0.666542    12A     -0.632315
      13A     -0.606698    14A     -0.575738    15A     -0.564211
      16A     -0.517512    17A     -0.501545    18A     -0.468166
      19A     -0.462457    20A     -0.460661    21A     -0.382316

  @DF-RHF Final Energy:  -212.39964043887682

   => Energetics <=

    Nuclear Repulsion Energy =            188.9065936535409378
    One-Electron Energy =                -660.5302171060336605
    Two-Electron Energy =                 259.2239830136160208
    DFT Exchange-Correlation Energy =       0.0000000000000000
    Empirical Dispersion Energy =           0.0000000000000000
    PCM Polarization Energy =               0.0000000000000000
    EFP Energy =                            0.0000000000000000
    Total Energy =                       -212.3996404388767019
    Molecular point group: c1
  Basis Set: CC-PVTZ
  Basis Set:

  -Total Gradient:
     Atom            X                  Y                   Z
    ------   -----------------  -----------------  -----------------
       1        0.000004900258     0.000000470043     0.000002597541
       2        0.000002727421     0.000003223727     0.000004072375
       3        0.000537583032    -0.000888395869     0.000907596042
       4        0.000001394930    -0.000000496341     0.000001518795
       5        0.000649433154    -0.001035828683     0.000610318277
       6       -0.000553959729     0.000901644507    -0.000863989865
       7       -0.000003918435     0.000010420421    -0.000011063781
       8        0.000003010353    -0.000007769886    -0.000005599730
       9       -0.000626242523     0.001020000844    -0.000644343693
      10       -0.000004906127    -0.000014366221     0.000006479186
      11        0.000000107124     0.000002848293     0.000012796983
      12        0.000004230292     0.000012045681    -0.000016651666
      13       -0.000001524087    -0.000005873824    -0.000003799469
      14        0.000001400349     0.000005617756     0.000005009971
      15       -0.000015338807    -0.000006400207     0.000001362956
      16        0.000001102795     0.000002859757    -0.000006303922

  **** Optimization is complete! (in 5 steps) ****
    Final optimized geometry and variables:
    Molecular point group: c1

    Geometry (in Angstrom), charge = 0, multiplicity = 1:

    H            2.436685665372     1.508092728167    -0.922250458786
    N            1.653394702640     0.892483437179    -0.974677177023
    C            1.476165317355     0.159456724729     0.271086158576
    H            1.819691324151     0.266570289029    -1.734871476960
    C            0.186336077567    -0.653606312668     0.253098931814
    H            1.428534912508     0.889245748324     1.072458679508
    H            2.313468577845    -0.501861430143     0.491128278140
    C           -1.080393253063     0.196090156831     0.316704833009
    H            0.164695561413    -1.255600951821    -0.653385472112
    H            0.198359902039    -1.350353424278     1.086868067031
    C           -2.357185156521    -0.633911180003     0.234713435181
    H           -1.061713854537     0.921844704909    -0.487028959203
    H           -1.079762259442     0.762664260367     1.244425235309
    H           -2.407876390464    -1.182704334114    -0.700101536977
    H           -3.238304869581    -0.005265634593     0.295208017199
    H           -2.411085785652    -1.356295035962     1.043030800746

  Mulliken Charges: (a.u.)
   Center  Symbol    Alpha    Beta     Spin     Total
       1     H     0.42874  0.42874  0.00000  0.14252
       2     N     3.69129  3.69129  0.00000 -0.38257
       3     C     3.03639  3.03639  0.00000 -0.07278
       4     H     0.43086  0.43086  0.00000  0.13828
       5     C     3.08618  3.08618  0.00000 -0.17236
       6     H     0.45762  0.45762  0.00000  0.08477
       7     H     0.45932  0.45932  0.00000  0.08137
       8     C     3.07960  3.07960  0.00000 -0.15920
       9     H     0.46005  0.46005  0.00000  0.07990
      10     H     0.45222  0.45222  0.00000  0.09555
      11     C     3.15024  3.15024  0.00000 -0.30048
      12     H     0.44661  0.44661  0.00000  0.10679
      13     H     0.45852  0.45852  0.00000  0.08296
      14     H     0.45596  0.45596  0.00000  0.08807
      15     H     0.44907  0.44907  0.00000  0.10187
      16     H     0.45734  0.45734  0.00000  0.08533

   Total alpha = 21.00000, Total beta = 21.00000, Total charge =  0.00000
