  ==> Input File <==

--------------------------------------------------------------------------
set {
	reference rhf
	basis 6-31G*
}

set_num_threads( 4 )
memory 2 gb

molecule MOL {
0 1

H	 -1.848839	 -0.159528	 0.622144
N	 -1.172117	 -0.314371	 -0.100254
C	 -0.024542	 0.565565	 0.069209
H	 -0.890895	 -1.274322	 -0.033287
C	 1.271298	 -0.229563	 -0.014192
H	 -0.049409	 1.297310	 -0.731596
H	 -0.046881	 1.125219	 1.006750
H	 1.332152	 -0.753033	 -0.961461
H	 2.134169	 0.422483	 0.080702
H	 1.326077	 -0.968298	 0.781395

	symmetry c1
}
set optking {
	frozen_dihedral = ("
		1 2 3 6
	")
}

ee = optimize('scf')
oeprop('DIPOLE', 'QUADRUPOLE', 'MULLIKEN_CHARGES')
f=open( 'psi4out.xyz', 'w' )
f.write( "10  " )
f.write( str(ee) + "\n" )
f.write( MOL.save_string_xyz() )
f.close()
--------------------------------------------------------------------------

    Molecular point group: c1
  Charge       = 0
  Multiplicity = 1
  Basis Set: 6-31G*
  Basis Set:
  @DF-RHF Final Energy:  -134.24287183868068
    Total Energy =                       -134.2428718386807134
    Molecular point group: c1
  Basis Set: 6-31G*
  Basis Set:
  Basis Set: 6-31G*
  Basis Set:
  @DF-RHF Final Energy:  -134.24329236839702
    Total Energy =                       -134.2432923683969932
  Basis Set: 6-31G*
  Basis Set:
  Basis Set: 6-31G*
  Basis Set:
  @DF-RHF Final Energy:  -134.24338601487383
    Total Energy =                       -134.2433860148738063
  Basis Set: 6-31G*
  Basis Set:
  Basis Set: 6-31G*
  Basis Set:
  @DF-RHF Final Energy:  -134.24338852073629
    Total Energy =                       -134.2433885207362891
  Basis Set: 6-31G*
  Basis Set:
  Charge       = 0
  Multiplicity = 1
  Basis Set: 6-31G*
  Basis Set:

    Orbital Energies (a.u.)
    -----------------------

    Doubly Occupied:

       1A    -15.530175     2A    -11.242523     3A    -11.213800
       4A     -1.173476     5A     -0.990002     6A     -0.830153
       7A     -0.660500     8A     -0.617663     9A     -0.593191
      10A     -0.528784    11A     -0.504796    12A     -0.492254
      13A     -0.377477

  @DF-RHF Final Energy:  -134.24338906708550

   => Energetics <=

    Nuclear Repulsion Energy =             83.2845059407040509
    One-Electron Energy =                -345.5461999572162313
    Two-Electron Energy =                 128.0183049494266925
    DFT Exchange-Correlation Energy =       0.0000000000000000
    Empirical Dispersion Energy =           0.0000000000000000
    PCM Polarization Energy =               0.0000000000000000
    EFP Energy =                            0.0000000000000000
    Total Energy =                       -134.2433890670855021
    Molecular point group: c1
  Basis Set: 6-31G*
  Basis Set:

  -Total Gradient:
     Atom            X                  Y                   Z
    ------   -----------------  -----------------  -----------------
       1        0.000748062608    -0.001203603514     0.000974437143
       2       -0.000796526268     0.001261910343    -0.001482783348
       3       -0.000808655366     0.000891741038     0.001443847424
       4        0.000010644447    -0.000014403273    -0.000001309759
       5       -0.000008675312     0.000005127244    -0.000015472149
       6        0.000837529809    -0.000989801143    -0.000908725836
       7        0.000025461855     0.000020405539    -0.000000795962
       8       -0.000006171482    -0.000004740684     0.000003889188
       9        0.000013136139     0.000012745271     0.000002428489
      10       -0.000014806431     0.000020619180    -0.000015515190

  **** Optimization is complete! (in 5 steps) ****
    Final optimized geometry and variables:
    Molecular point group: c1

    Geometry (in Angstrom), charge = 0, multiplicity = 1:

    H           -1.874316518509    -0.142390484070     0.624075040871
    N           -1.201247754371    -0.293132772027    -0.099945205652
    C           -0.031935663018     0.570973790268     0.066164722823
    H           -0.943042716750    -1.258953706852    -0.052370627004
    C            1.274346850558    -0.211567617844    -0.013012536894
    H           -0.032896976423     1.319703931358    -0.720350823747
    H           -0.070613566870     1.106206857993     1.012104487890
    H            1.336363239484    -0.756759809440    -0.950459403971
    H            2.129973806851     0.453764861669     0.042423811003
    H            1.351912625766    -0.928069963903     0.800377237913

  Mulliken Charges: (a.u.)
   Center  Symbol    Alpha    Beta     Spin     Total
       1     H     0.33211  0.33211  0.00000  0.33577
       2     N     3.92819  3.92819  0.00000 -0.85637
       3     C     3.05030  3.05030  0.00000 -0.10060
       4     H     0.33233  0.33233  0.00000  0.33535
       5     C     3.25371  3.25371  0.00000 -0.50742
       6     H     0.41894  0.41894  0.00000  0.16211
       7     H     0.42861  0.42861  0.00000  0.14278
       8     H     0.41555  0.41555  0.00000  0.16890
       9     H     0.41727  0.41727  0.00000  0.16547
      10     H     0.42299  0.42299  0.00000  0.15402

   Total alpha = 13.00000, Total beta = 13.00000, Total charge = -0.00000
