  ==> Input File <==

--------------------------------------------------------------------------
set {
	reference rhf
	basis 6-31G*
}

set_num_threads( 1 )
memory 2 gb

molecule MOL {
0 1

H	 -3.892951	 0.981613	 -0.358725
C	 -3.196921	 0.361773	 0.172313
C	 -2.076860	 -0.007332	 -0.404944
H	 -3.439953	 0.057760	 1.173024
O	 -1.012763	 -0.458337	 0.310005
H	 -1.941099	 0.006124	 -1.471989
C	 0.187025	 -0.660106	 -0.354561
C	 1.009763	 0.606786	 -0.420754
H	 0.042091	 -1.021800	 -1.366424
H	 0.752360	 -1.393378	 0.201491
F	 2.158927	 0.354753	 -1.030432
F	 0.393082	 1.557323	 -1.103406
F	 1.281388	 1.083674	 0.776404

	symmetry c1
}
set optking {
	frozen_dihedral = ("
		11 8 7 9,
		3 5 7 9,
		6 3 5 7
	")
}

ee = energy('scf')
oeprop('DIPOLE', 'QUADRUPOLE', 'MULLIKEN_CHARGES')
f=open( 'psi4out.xyz', 'w' )
f.write( "13  " )
f.write( str(ee) + "\n" )
f.write( MOL.save_string_xyz() )
f.close()
--------------------------------------------------------------------------

    Molecular point group: c1

    Geometry (in Angstrom), charge = 0, multiplicity = 1:

       Center              X                  Y                   Z               Mass
    ------------   -----------------  -----------------  -----------------  -----------------
           H         -3.886282257933     0.570466708929    -0.082893697267     1.007825032070
           C         -3.190252257933    -0.049373291071     0.448144302733    12.000000000000
           C         -2.070191257933    -0.418478291071    -0.129112697267    12.000000000000
           H         -3.433284257933    -0.353386291071     1.448855302733     1.007825032070
           O         -1.006094257933    -0.869483291071     0.585836302733    15.994914619560
           H         -1.934430257933    -0.405022291071    -1.196157697267     1.007825032070
           C          0.193693742067    -1.071252291071    -0.078729697267    12.000000000000
           C          1.016431742067     0.195639708929    -0.144922697267    12.000000000000
           H          0.048759742067    -1.432946291071    -1.090592697267     1.007825032070
           H          0.759028742067    -1.804524291071     0.477322302733     1.007825032070
           F          2.165595742067    -0.056393291071    -0.754600697267    18.998403224000
           F          0.399750742067     1.146176708929    -0.827574697267    18.998403224000
           F          1.288056742067     0.672527708929     1.052235302733    18.998403224000

  Charge       = 0
  Multiplicity = 1
  Basis Set: 6-31G*
  Basis Set:

    Orbital Energies (a.u.)
    -----------------------

    Doubly Occupied:

       1A    -26.344789     2A    -26.343244     3A    -26.340375
       4A    -20.608347     5A    -11.503283     6A    -11.319366
       7A    -11.300784     8A    -11.214486     9A     -1.741595
      10A     -1.639784    11A     -1.638011    12A     -1.438472
      13A     -1.084334    14A     -1.016408    15A     -0.925280
      16A     -0.836485    17A     -0.830820    18A     -0.821411
      19A     -0.791623    20A     -0.721737    21A     -0.711120
      22A     -0.696343    23A     -0.675749    24A     -0.659961
      25A     -0.654486    26A     -0.642923    27A     -0.633837
      28A     -0.585415    29A     -0.565725    30A     -0.525399
      31A     -0.512466    32A     -0.344876

  @DF-RHF Final Energy:  -527.52663290804071

   => Energetics <=

    Nuclear Repulsion Energy =            413.5056877464107288
    One-Electron Energy =               -1550.7266363410922168
    Two-Electron Energy =                 609.6943156866419713
    DFT Exchange-Correlation Energy =       0.0000000000000000
    Empirical Dispersion Energy =           0.0000000000000000
    PCM Polarization Energy =               0.0000000000000000
    EFP Energy =                            0.0000000000000000
    Total Energy =                       -527.5266329080394598

  Mulliken Charges: (a.u.)
   Center  Symbol    Alpha    Beta     Spin     Total
       1     H     0.40604  0.40604  0.00000  0.18791
       2     C     3.23825  3.23825  0.00000 -0.47649
       3     C     2.89494  2.89494  0.00000  0.21013
       4     H     0.40266  0.40266  0.00000  0.19468
       5     O     4.30041  4.30041  0.00000 -0.60083
       6     H     0.40648  0.40648  0.00000  0.18705
       7     C     3.06419  3.06419  0.00000 -0.12839
       8     C     2.45509  2.45509  0.00000  1.08982
       9     H     0.40552  0.40552  0.00000  0.18895
      10     H     0.38979  0.38979  0.00000  0.22041
      11     F     4.68278  4.68278  0.00000 -0.36555
      12     F     4.67948  4.67948  0.00000 -0.35896
      13     F     4.67437  4.67437  0.00000 -0.34874

   Total alpha = 32.00000, Total beta = 32.00000, Total charge =  0.00000
