                              Psi4 1.0.54 Driver

  ==> Input File <==

--------------------------------------------------------------------------
set {
	reference rhf
	basis cc-pvtz
}

set_num_threads( 4 )
memory 2 gb

molecule MOL {
0 1

H	 -0.000342	 -0.223902	 -3.352295
C	 -0.027146	 0.371068	 -2.446756
C	 0.024493	 -0.518541	 -1.216015
H	 -0.932586	 0.964979	 -2.449855
H	 0.819708	 1.049865	 -2.473332
N	 -0.042516	 0.263377	 0.000000
H	 -0.822211	 -1.197105	 -1.225584
H	 0.921114	 -1.142847	 -1.255206
C	 0.024493	 -0.518541	 1.216015
H	 0.682568	 0.950412	 0.000000
C	 0.439641	 0.338466	 2.400070
H	 -0.959682	 -0.936562	 1.400693
H	 0.707877	 -1.366802	 1.122949
H	 -0.252826	 1.159541	 2.537503
H	 0.464240	 -0.249621	 3.310156
H	 1.430494	 0.756313	 2.250915

	symmetry c1
}
set optking {
	frozen_dihedral = ("
		12 9 6 3
	")
}

ee,wfn = optimize('scf', return_wfn=True)
oeprop( wfn, 'DIPOLE', 'QUADRUPOLE', 'MULLIKEN_CHARGES')
f=open( 'psi4out.xyz', 'w' )
f.write( "16  " )
f.write( str(ee) + "\n" )
f.write( MOL.save_string_xyz() )
f.close()
--------------------------------------------------------------------------

    Molecular point group: c1
  Charge       = 0
  Multiplicity = 1
  Basis Set: CC-PVTZ
  Basis Set:
  @DF-RHF Final Energy:  -212.39347955921136
    Total Energy =                       -212.3934795592115279
    Molecular point group: c1
  Basis Set: CC-PVTZ
  Basis Set:
  Basis Set: CC-PVTZ
  Basis Set:
  @DF-RHF Final Energy:  -212.39359294968233
    Total Energy =                       -212.3935929496823860
  Basis Set: CC-PVTZ
  Basis Set:
  Basis Set: CC-PVTZ
  Basis Set:
  @DF-RHF Final Energy:  -212.39360393210035
    Total Energy =                       -212.3936039321004046
  Basis Set: CC-PVTZ
  Basis Set:
  Charge       = 0
  Multiplicity = 1
  Basis Set: CC-PVTZ
  Basis Set:

    Orbital Energies (a.u.)
    -----------------------

    Doubly Occupied:

       1A    -15.528749     2A    -11.238887     3A    -11.238858
       4A    -11.208990     5A    -11.206276     6A     -1.207171
       7A     -1.029777     8A     -0.964038     9A     -0.833118
      10A     -0.822692    11A     -0.658631    12A     -0.629637
      13A     -0.606176    14A     -0.590266    15A     -0.552933
      16A     -0.521644    17A     -0.508378    18A     -0.489091
      19A     -0.484699    20A     -0.473130    21A     -0.363296

  @DF-RHF Final Energy:  -212.39360460131093

   => Energetics <=

    Nuclear Repulsion Energy =            189.5222808574697524
    One-Electron Energy =                -661.5189002807386487
    Two-Electron Energy =                 259.6030148219579701
    DFT Exchange-Correlation Energy =       0.0000000000000000
    Empirical Dispersion Energy =           0.0000000000000000
    PCM Polarization Energy =               0.0000000000000000
    EFP Energy =                            0.0000000000000000
    Total Energy =                       -212.3936046013109262
    Molecular point group: c1
  Basis Set: CC-PVTZ
  Basis Set:

  -Total Gradient:
     Atom            X                  Y                   Z
    ------   -----------------  -----------------  -----------------
       1       -0.000002685239     0.000002400634    -0.000003778138
       2       -0.000003610994     0.000000089769    -0.000015748847
       3        0.002477787531     0.000277780541     0.000065017861
       4        0.000001817321     0.000001676135    -0.000004453525
       5        0.000000067897     0.000001635456    -0.000001960411
       6       -0.003669301656     0.000247666675     0.000393488946
       7       -0.000005499911    -0.000007910851    -0.000005781453
       8        0.000005559426    -0.000026279389    -0.000008098345
       9        0.001939374179    -0.003097308461    -0.002189703033
      10       -0.000004852009     0.000005741728    -0.000012938195
      11        0.000036629935    -0.000018393150     0.000014183525
      12       -0.000751974871     0.002586186742     0.001709953547
      13       -0.000004585041     0.000006758859     0.000025877448
      14       -0.000012431038    -0.000000558129     0.000004434712
      15       -0.000004610188     0.000008856889     0.000018784014
      16       -0.000001685341     0.000011656554     0.000010721894

  **** Optimization is complete! (in 4 steps) ****
    Final optimized geometry and variables:
    Molecular point group: c1

    Geometry (in Angstrom), charge = 0, multiplicity = 1:

    H           -0.100995114054    -0.216896321029    -3.345254665261
    C           -0.130630924504     0.377584183777    -2.439412259278
    C           -0.066238988360    -0.511424362124    -1.208979627976
    H           -1.041363437081     0.963220775698    -2.439512757091
    H            0.709706833894     1.064426336378    -2.468109612151
    N           -0.127050016421     0.270174614736     0.008349750893
    H           -0.909569983375    -1.194866641999    -1.213966572093
    H            0.832740399530    -1.131413272281    -1.251770148258
    C           -0.065752977552    -0.515267820766     1.225537818198
    H            0.617105708583     0.936339482864     0.005463417875
    C            0.328941658111     0.347601700602     2.413938634584
    H           -1.050160291697    -0.930408077526     1.417956497311
    H            0.629642385588    -1.351993760255     1.138418326506
    H           -0.357758294930     1.178141136850     2.526515652830
    H            0.316898383531    -0.231459896423     3.329611626633
    H            1.329384634309     0.750993350403     2.290788421031

  Mulliken Charges: (a.u.)
   Center  Symbol    Alpha    Beta     Spin     Total
       1     H     0.45381  0.45381  0.00000  0.09239
       2     C     3.14217  3.14217  0.00000 -0.28434
       3     C     3.02299  3.02299  0.00000 -0.04598
       4     H     0.44939  0.44939  0.00000  0.10122
       5     H     0.45962  0.45962  0.00000  0.08075
       6     N     3.63478  3.63478  0.00000 -0.26957
       7     H     0.45850  0.45850  0.00000  0.08300
       8     H     0.47283  0.47283  0.00000  0.05433
       9     C     3.01790  3.01790  0.00000 -0.03579
      10     H     0.44724  0.44724  0.00000  0.10553
      11     C     3.14618  3.14618  0.00000 -0.29236
      12     H     0.45862  0.45862  0.00000  0.08277
      13     H     0.47542  0.47542  0.00000  0.04915
      14     H     0.44889  0.44889  0.00000  0.10222
      15     H     0.45170  0.45170  0.00000  0.09661
      16     H     0.45996  0.45996  0.00000  0.08008

   Total alpha = 21.00000, Total beta = 21.00000, Total charge = -0.00000

*** Psi4 exiting successfully. Buy a developer a beer!
