  ==> Input File <==

--------------------------------------------------------------------------
set {
	reference rhf
	basis 6-31G*
}

set_num_threads( 4 )
memory 2 gb

molecule MOL {
0 1

H	 -3.420663	 1.227371	 -1.044276
O	 -3.452007	 0.283848	 -0.965577
C	 -3.181085	 -0.079926	 0.364119
C	 -1.765924	 0.277073	 0.805136
H	 -3.327791	 -1.152017	 0.410903
H	 -3.905698	 0.375695	 1.036898
C	 -0.677594	 -0.417312	 -0.014550
H	 -1.637766	 1.358238	 0.744969
H	 -1.659588	 0.017670	 1.857098
C	 0.738335	 -0.034840	 0.421385
H	 -0.814977	 -0.178223	 -1.064632
H	 -0.802730	 -1.495410	 0.071702
C	 1.816273	 -0.579637	 -0.519534
H	 0.809658	 1.048609	 0.480301
H	 0.920420	 -0.407984	 1.428466
C	 3.256605	 -0.297996	 -0.076501
H	 1.662064	 -0.171928	 -1.517376
H	 1.687527	 -1.656266	 -0.609596
C	 3.645431	 1.181599	 -0.080787
H	 3.931496	 -0.837071	 -0.736963
H	 3.413834	 -0.709798	 0.918437
H	 3.486635	 1.623703	 -1.060821
H	 4.694501	 1.305216	 0.170228
H	 3.069915	 1.755256	 0.638145

	symmetry c1
}
set optking {
	frozen_dihedral = ("
		13 10 7 11
	")
}

ee = optimize('scf')
oeprop('DIPOLE', 'QUADRUPOLE', 'MULLIKEN_CHARGES')
f=open( 'psi4out.xyz', 'w' )
f.write( "24  " )
f.write( str(ee) + "\n" )
f.write( MOL.save_string_xyz() )
f.close()
--------------------------------------------------------------------------

    Molecular point group: c1
  Charge       = 0
  Multiplicity = 1
  Basis Set: 6-31G*
  Basis Set:
  @DF-RHF Final Energy:  -349.24738847123564
    Total Energy =                       -349.2473884712360359
    Molecular point group: c1
  Basis Set: 6-31G*
  Basis Set:
  Basis Set: 6-31G*
  Basis Set:
  @DF-RHF Final Energy:  -349.24739698930426
    Total Energy =                       -349.2473969893043204
  Basis Set: 6-31G*
  Basis Set:
  Basis Set: 6-31G*
  Basis Set:
  @DF-RHF Final Energy:  -349.24741743644392
    Total Energy =                       -349.2474174364442092
  Basis Set: 6-31G*
  Basis Set:
  Charge       = 0
  Multiplicity = 1
  Basis Set: 6-31G*
  Basis Set:

    Orbital Energies (a.u.)
    -----------------------

    Doubly Occupied:

       1A    -20.553562     2A    -11.267731     3A    -11.217613
       4A    -11.214029     5A    -11.212456     6A    -11.211611
       7A    -11.211109     8A    -11.207435     9A     -1.360172
      10A     -1.088502    11A     -1.048336    12A     -0.985720
      13A     -0.914954    14A     -0.850553    15A     -0.800983
      16A     -0.776446    17A     -0.679198    18A     -0.652362
      19A     -0.626082    20A     -0.619215    21A     -0.597483
      22A     -0.585697    23A     -0.555254    24A     -0.542902
      25A     -0.514349    26A     -0.507509    27A     -0.501148
      28A     -0.471374    29A     -0.467908    30A     -0.459337
      31A     -0.456375    32A     -0.450625    33A     -0.419019

  @DF-RHF Final Energy:  -349.24741827987498

   => Energetics <=

    Nuclear Repulsion Energy =            384.5828789263131284
    One-Electron Energy =               -1235.6064926948934044
    Two-Electron Energy =                 501.7761954887053548
    DFT Exchange-Correlation Energy =       0.0000000000000000
    Empirical Dispersion Energy =           0.0000000000000000
    PCM Polarization Energy =               0.0000000000000000
    EFP Energy =                            0.0000000000000000
    Total Energy =                       -349.2474182798749212
    Molecular point group: c1
  Basis Set: 6-31G*
  Basis Set:

  -Total Gradient:
     Atom            X                  Y                   Z
    ------   -----------------  -----------------  -----------------
       1        0.000001690553    -0.000017955377    -0.000002840382
       2        0.000042263943     0.000000887246    -0.000030646375
       3       -0.000005130260     0.000008996599     0.000017662267
       4       -0.000057317610    -0.000029089279     0.000032249846
       5        0.000004441972     0.000027362088     0.000014054323
       6        0.000005025127     0.000005312541     0.000003047623
       7       -0.000832833275     0.002443328066     0.000415131356
       8        0.000023092473    -0.000003785368     0.000026310150
       9        0.000025689132    -0.000044315105    -0.000003302715
      10        0.000250726609    -0.001831813756     0.000970333071
      11        0.000564078049    -0.001673728185    -0.000417886181
      12        0.000055686067    -0.000037096641    -0.000195651565
      13       -0.000009429875     0.001057779708    -0.000738805773
      14        0.000114022535     0.000022027649    -0.000066708866
      15       -0.000170224758     0.000110370875     0.000023251025
      16       -0.000035870021     0.000023009934     0.000025098489
      17       -0.000040327547     0.000039667821     0.000062398332
      18        0.000093151456    -0.000063159108    -0.000105360239
      19        0.000028437024    -0.000012521879    -0.000044044718
      20       -0.000003382474    -0.000054827110     0.000034759576
      21       -0.000069442216     0.000057055218     0.000023876190
      22       -0.000034666610     0.000027273546    -0.000006953596
      23        0.000016423002    -0.000013445759    -0.000045148787
      24        0.000033896706    -0.000041333723     0.000009176954

  **** Optimization is complete! (in 4 steps) ****
    Final optimized geometry and variables:
    Molecular point group: c1

    Geometry (in Angstrom), charge = 0, multiplicity = 1:

    H           -3.432260734248     1.135212011573    -1.022701811449
    O           -3.455335899145     0.192418711713    -0.933588733915
    C           -3.173393505323    -0.154710442733     0.398249672046
    C           -1.760025988207     0.222549202621     0.827615706631
    H           -3.307574159589    -1.227726083668     0.456479556618
    H           -3.899371102693     0.299409136859     1.070516333065
    C           -0.668860855900    -0.457275708372     0.000881932142
    H           -1.646814052718     1.305174493146     0.765359226411
    H           -1.641493026177    -0.034307415669     1.879008919692
    C            0.747863947401    -0.077071970936     0.438334791679
    H           -0.805570547264    -0.221452965640    -1.049977393056
    H           -0.787037577077    -1.537248466657     0.077642126774
    C            1.824677211452    -0.628205793310    -0.500422319025
    H            0.825803959729     1.006827725256     0.484741034185
    H            0.924376221638    -0.438593672420     1.450236184100
    C            3.265696949520    -0.366076803979    -0.048329797199
    H            1.678857536960    -0.209451024124    -1.494669598545
    H            1.685245888837    -1.702799782796    -0.601798326311
    C            3.673322873260     1.108438987231    -0.048664734857
    H            3.937552586740    -0.913497453251    -0.704934912148
    H            3.411024204924    -0.780529033451     0.947275571010
    H            3.519020845642     1.555656444452    -1.027124182611
    H            4.724156506266     1.218077384590     0.201472187299
    H            3.105636879794     1.686825316853     0.672698540679

  Mulliken Charges: (a.u.)
   Center  Symbol    Alpha    Beta     Spin     Total
       1     H     0.28338  0.28338  0.00000  0.43323
       2     O     4.36827  4.36827  0.00000 -0.73654
       3     C     2.99614  2.99614  0.00000  0.00771
       4     C     3.16921  3.16921  0.00000 -0.33843
       5     H     0.41628  0.41628  0.00000  0.16745
       6     H     0.42814  0.42814  0.00000  0.14372
       7     C     3.15194  3.15194  0.00000 -0.30387
       8     H     0.42817  0.42817  0.00000  0.14366
       9     H     0.42226  0.42226  0.00000  0.15548
      10     C     3.15353  3.15353  0.00000 -0.30706
      11     H     0.41226  0.41226  0.00000  0.17548
      12     H     0.42349  0.42349  0.00000  0.15303
      13     C     3.15255  3.15255  0.00000 -0.30510
      14     H     0.42342  0.42342  0.00000  0.15316
      15     H     0.42478  0.42478  0.00000  0.15044
      16     C     3.15232  3.15232  0.00000 -0.30464
      17     H     0.42364  0.42364  0.00000  0.15273
      18     H     0.42197  0.42197  0.00000  0.15606
      19     C     3.24107  3.24107  0.00000 -0.48214
      20     H     0.42106  0.42106  0.00000  0.15788
      21     H     0.42368  0.42368  0.00000  0.15263
      22     H     0.42241  0.42241  0.00000  0.15519
      23     H     0.41951  0.41951  0.00000  0.16098
      24     H     0.42053  0.42053  0.00000  0.15894

   Total alpha = 33.00000, Total beta = 33.00000, Total charge =  0.00000
