  ==> Input File <==

--------------------------------------------------------------------------
set {
	reference rhf
	basis 6-31G*
}

set_num_threads( 4 )
memory 2 gb

molecule MOL {
0 1

H	 2.706151	 -0.884637	 -0.437004
N	 2.332695	 -0.069570	 0.000000
C	 0.936681	 -0.007078	 0.000000
H	 2.748948	 0.071400	 0.895342
C	 0.227108	 -0.002120	 -1.198267
C	 0.227108	 -0.002120	 1.198267
H	 0.761569	 -0.014657	 -2.132680
C	 -1.156334	 0.010459	 -1.192360
H	 0.761569	 -0.014657	 2.132680
C	 -1.156334	 0.010459	 1.192360
H	 -1.684791	 0.014915	 -2.129421
C	 -1.862085	 0.017996	 0.000000
H	 -1.684791	 0.014915	 2.129421
H	 -2.936703	 0.028387	 0.000000

	symmetry c1
}
set optking {
	frozen_dihedral = ("
		1 2 3 5
	")
}

ee = optimize('scf')
oeprop('DIPOLE', 'QUADRUPOLE', 'MULLIKEN_CHARGES')
f=open( 'psi4out.xyz', 'w' )
f.write( "14  " )
f.write( str(ee) + "\n" )
f.write( MOL.save_string_xyz() )
f.close()
--------------------------------------------------------------------------

    Molecular point group: c1
  Charge       = 0
  Multiplicity = 1
  Basis Set: 6-31G*
  Basis Set:
  @DF-RHF Final Energy:  -285.72750033376764
    Total Energy =                       -285.7275003337673525
    Molecular point group: c1
  Basis Set: 6-31G*
  Basis Set:
  Basis Set: 6-31G*
  Basis Set:
  @DF-RHF Final Energy:  -285.72859486967155
    Total Energy =                       -285.7285948696717242
  Basis Set: 6-31G*
  Basis Set:
  Basis Set: 6-31G*
  Basis Set:
  @DF-RHF Final Energy:  -285.72877249890820
    Total Energy =                       -285.7287724989084836
  Basis Set: 6-31G*
  Basis Set:
  Basis Set: 6-31G*
  Basis Set:
  @DF-RHF Final Energy:  -285.72878245581984
    Total Energy =                       -285.7287824558197258
  Basis Set: 6-31G*
  Basis Set:
  Charge       = 0
  Multiplicity = 1
  Basis Set: 6-31G*
  Basis Set:

    Orbital Energies (a.u.)
    -----------------------

    Doubly Occupied:

       1A    -15.557574     2A    -11.267459     3A    -11.229224
       4A    -11.228509     5A    -11.220878     6A    -11.218216
       7A    -11.217521     8A     -1.217558     9A     -1.126213
      10A     -1.010257    11A     -0.984756    12A     -0.828262
      13A     -0.808228    14A     -0.702120    15A     -0.675940
      16A     -0.649680    17A     -0.602863    18A     -0.590448
      19A     -0.580227    20A     -0.518529    21A     -0.501911
      22A     -0.486515    23A     -0.437745    24A     -0.331188
      25A     -0.298430

  @DF-RHF Final Energy:  -285.72878341791824

   => Energetics <=

    Nuclear Repulsion Energy =            272.8388402265780428
    One-Electron Energy =                -926.5547429044531782
    Two-Electron Energy =                 367.9871192599566712
    DFT Exchange-Correlation Energy =       0.0000000000000000
    Empirical Dispersion Energy =           0.0000000000000000
    PCM Polarization Energy =               0.0000000000000000
    EFP Energy =                            0.0000000000000000
    Total Energy =                       -285.7287834179185211
    Molecular point group: c1
  Basis Set: 6-31G*
  Basis Set:

  -Total Gradient:
     Atom            X                  Y                   Z
    ------   -----------------  -----------------  -----------------
       1        0.000121852596    -0.001581010993     0.002413185422
       2       -0.000137328101     0.003051307948    -0.003097288846
       3       -0.000009633291    -0.003651798199     0.000353223799
       4        0.000048707451    -0.000010244329     0.000074147523
       5        0.000105014381     0.002192549092     0.000153119454
       6       -0.000147884493     0.000006907704     0.000092064061
       7       -0.000001750827     0.000005367952    -0.000021429916
       8       -0.000124520373    -0.000057074062     0.000097757660
       9        0.000002526683     0.000026425770    -0.000004931639
      10        0.000142822667    -0.000070735974     0.000081511411
      11        0.000020823501     0.000013858225    -0.000000179432
      12       -0.000003915360     0.000066465655    -0.000159213331
      13       -0.000017114236     0.000003496689    -0.000006716518
      14        0.000000399399     0.000004484521     0.000024750354

  **** Optimization is complete! (in 5 steps) ****
    Final optimized geometry and variables:
    Molecular point group: c1

    Geometry (in Angstrom), charge = 0, multiplicity = 1:

    H            2.731085048059    -0.787480570805    -0.508550861459
    N            2.343086757643    -0.005484097440    -0.019882265058
    C            0.933019418258    -0.028027135085     0.005264636354
    H            2.736258492686     0.014753258410     0.898802944083
    C            0.230094280607    -0.008642353653    -1.196673527444
    C            0.221790486341     0.003209579881     1.198185777898
    H            0.776053333315     0.000147051488    -2.123515683669
    C           -1.151813880909     0.009641472895    -1.198407792729
    H            0.751394716078    -0.003261877416     2.135748164842
    C           -1.163949245526     0.043381441246     1.189038334500
    H           -1.678296106627     0.017134216854    -2.136518597318
    C           -1.860816726200     0.039335568588    -0.005971176117
    H           -1.696711255934     0.069747676129     2.123254763177
    H           -2.935448434847     0.063862987270    -0.011002499966

  Mulliken Charges: (a.u.)
   Center  Symbol    Alpha    Beta     Spin     Total
       1     H     0.32186  0.32186  0.00000  0.35628
       2     N     3.93904  3.93904  0.00000 -0.87809
       3     C     2.87049  2.87049  0.00000  0.25902
       4     H     0.32376  0.32376  0.00000  0.35248
       5     C     3.11497  3.11497  0.00000 -0.22993
       6     C     3.12573  3.12573  0.00000 -0.25146
       7     H     0.39919  0.39919  0.00000  0.20162
       8     C     3.09313  3.09313  0.00000 -0.18626
       9     H     0.40494  0.40494  0.00000  0.19012
      10     C     3.09237  3.09237  0.00000 -0.18473
      11     H     0.40036  0.40036  0.00000  0.19928
      12     C     3.11166  3.11166  0.00000 -0.22333
      13     H     0.40053  0.40053  0.00000  0.19894
      14     H     0.40197  0.40197  0.00000  0.19607

   Total alpha = 25.00000, Total beta = 25.00000, Total charge = -0.00000
