  ==> Input File <==

--------------------------------------------------------------------------
set {
	reference rhf
	basis cc-pvtz
}

set_num_threads( 4 )
memory 2 gb

molecule MOL {
0 1

H	 -2.123894	 -0.667238	 -0.609809
O	 -2.041679	 -0.058866	 0.103463
C	 -0.959304	 0.780994	 -0.094939
C	 0.354905	 0.037902	 -0.006215
H	 -0.985899	 1.279578	 -1.057596
H	 -0.969809	 1.529522	 0.682889
F	 1.159063	 0.602604	 0.877093
F	 0.152424	 -1.205202	 0.377569
F	 0.992058	 0.006142	 -1.152077

	symmetry c1
}
set optking {
	frozen_dihedral = ("
		7 4 3 5
	")
}

ee = optimize('scf')
oeprop('DIPOLE', 'QUADRUPOLE', 'MULLIKEN_CHARGES')
f=open( 'psi4out.xyz', 'w' )
f.write( "9  " )
f.write( str(ee) + "\n" )
f.write( MOL.save_string_xyz() )
f.close()
--------------------------------------------------------------------------

    Molecular point group: c1
  Charge       = 0
  Multiplicity = 1
  Basis Set: CC-PVTZ
  Basis Set:
  @DF-RHF Final Energy:  -450.83876631890712
    Total Energy =                       -450.8387663189074601
    Molecular point group: c1
  Basis Set: CC-PVTZ
  Basis Set:
  Basis Set: CC-PVTZ
  Basis Set:
  @DF-RHF Final Energy:  -450.83934581950615
    Total Energy =                       -450.8393458195058656
  Basis Set: CC-PVTZ
  Basis Set:
  Basis Set: CC-PVTZ
  Basis Set:
  @DF-RHF Final Energy:  -450.83990671813837
    Total Energy =                       -450.8399067181381952
  Basis Set: CC-PVTZ
  Basis Set:
  Basis Set: CC-PVTZ
  Basis Set:
  @DF-RHF Final Energy:  -450.83993754040836
    Total Energy =                       -450.8399375404083003
  Basis Set: CC-PVTZ
  Basis Set:
  Basis Set: CC-PVTZ
  Basis Set:
  @DF-RHF Final Energy:  -450.83994055771166
    Total Energy =                       -450.8399405577115431
  Basis Set: CC-PVTZ
  Basis Set:
  Charge       = 0
  Multiplicity = 1
  Basis Set: CC-PVTZ
  Basis Set:

    Orbital Energies (a.u.)
    -----------------------

    Doubly Occupied:

       1A    -26.337694     2A    -26.336360     3A    -26.336308
       4A    -20.582637     5A    -11.495042     6A    -11.310078
       7A     -1.747346     8A     -1.643515     9A     -1.641301
      10A     -1.405630    11A     -1.044477    12A     -0.929779
      13A     -0.836064    14A     -0.834317    15A     -0.812183
      16A     -0.730599    17A     -0.719137    18A     -0.704309
      19A     -0.670061    20A     -0.664990    21A     -0.647390
      22A     -0.630849    23A     -0.614727    24A     -0.529643
      25A     -0.483958

  @DF-RHF Final Energy:  -450.83994084363849

   => Energetics <=

    Nuclear Repulsion Energy =            276.4730379451743829
    One-Electron Energy =               -1175.2491725343274993
    Two-Electron Energy =                 447.9361937455147427
    DFT Exchange-Correlation Energy =       0.0000000000000000
    Empirical Dispersion Energy =           0.0000000000000000
    PCM Polarization Energy =               0.0000000000000000
    EFP Energy =                            0.0000000000000000
    Total Energy =                       -450.8399408436383737
    Molecular point group: c1
  Basis Set: CC-PVTZ
  Basis Set:

  -Total Gradient:
     Atom            X                  Y                   Z
    ------   -----------------  -----------------  -----------------
       1       -0.000014053342     0.000007313792    -0.000000764257
       2        0.000012890976    -0.000027936233     0.000003629982
       3        0.000401813756     0.000813731780     0.000684963799
       4        0.000365208468     0.000406253309    -0.000892919804
       5       -0.000410322403    -0.000811730493    -0.000403031454
       6        0.000011558030     0.000004865599     0.000000516158
       7       -0.000337239193    -0.000479238015     0.000656377372
       8       -0.000019409713     0.000091452440    -0.000007381134
       9       -0.000010446573    -0.000004712184    -0.000041390659

  **** Optimization is complete! (in 6 steps) ****
    Final optimized geometry and variables:
    Molecular point group: c1

    Geometry (in Angstrom), charge = 0, multiplicity = 1:

    H           -2.160399201615    -0.665073866268    -0.603026255412
    O           -2.082607894789    -0.023758419609     0.080683305331
    C           -0.974498884616     0.782421778892    -0.113135942302
    C            0.360254826478     0.028618779348    -0.006317176712
    H           -0.991692123268     1.271385501158    -1.079442645376
    H           -0.989591330322     1.535127414864     0.658361941062
    F            1.160452795504     0.593430061324     0.873871246765
    F            0.199933319713    -1.223662098199     0.349793913558
    F            1.000662604865     0.024356450962    -1.161815989956

  Mulliken Charges: (a.u.)
   Center  Symbol    Alpha    Beta     Spin     Total
       1     H     0.38911  0.38911  0.00000  0.22178
       2     O     4.18394  4.18394  0.00000 -0.36788
       3     C     3.00765  3.00765  0.00000 -0.01530
       4     C     2.67958  2.67958  0.00000  0.64085
       5     H     0.46055  0.46055  0.00000  0.07890
       6     H     0.44742  0.44742  0.00000  0.10516
       7     F     4.61077  4.61077  0.00000 -0.22154
       8     F     4.60732  4.60732  0.00000 -0.21463
       9     F     4.61367  4.61367  0.00000 -0.22733

   Total alpha = 25.00000, Total beta = 25.00000, Total charge = -0.00000
