  ==> Input File <==

--------------------------------------------------------------------------
set {
	reference rhf
	basis 6-31G*
}

set_num_threads( 4 )
memory 2 gb

molecule MOL {
0 1

O	 0.014739	 0.671346	 0.969913
C	 0.486307	 0.169203	 0.000779
C	 1.608116	 -0.841643	 0.000302
O	 0.080860	 0.439100	 -1.232256
C	 2.990107	 -0.200498	 -0.000684
H	 1.468623	 -1.481519	 -0.865924
H	 1.469683	 -1.481289	 0.866878
H	 3.129736	 0.423364	 -0.875135
H	 3.757882	 -0.966877	 -0.001197
H	 3.130964	 0.423383	 0.873533
C	 -0.975989	 1.380832	 -1.385920
C	 -1.251124	 1.516292	 -2.868574
H	 -0.675438	 2.322645	 -0.947467
H	 -1.845081	 1.026301	 -0.848727
H	 -0.369562	 1.866971	 -3.393009
H	 -2.053785	 2.228143	 -3.031829
H	 -1.545680	 0.563583	 -3.293824

	symmetry c1
}
set optking {
	frozen_dihedral = ("
		4 2 3 6
	")
}

ee = optimize('scf')
oeprop('DIPOLE', 'QUADRUPOLE', 'MULLIKEN_CHARGES')
f=open( 'psi4out.xyz', 'w' )
f.write( "17  " )
f.write( str(ee) + "\n" )
f.write( MOL.save_string_xyz() )
f.close()
--------------------------------------------------------------------------

    Molecular point group: c1
  Charge       = 0
  Multiplicity = 1
  Basis Set: 6-31G*
  Basis Set:
  @DF-RHF Final Energy:  -344.90942786073464
    Total Energy =                       -344.9094278607347519
    Molecular point group: c1
  Basis Set: 6-31G*
  Basis Set:
  Basis Set: 6-31G*
  Basis Set:
  @DF-RHF Final Energy:  -344.90964417571735
    Total Energy =                       -344.9096441757172897
  Basis Set: 6-31G*
  Basis Set:
  Basis Set: 6-31G*
  Basis Set:
  @DF-RHF Final Energy:  -344.91009722803528
    Total Energy =                       -344.9100972280352835
  Basis Set: 6-31G*
  Basis Set:
  Basis Set: 6-31G*
  Basis Set:
  @DF-RHF Final Energy:  -344.91015678256048
    Total Energy =                       -344.9101567825604775
  Basis Set: 6-31G*
  Basis Set:
  Basis Set: 6-31G*
  Basis Set:
  @DF-RHF Final Energy:  -344.91015794487936
    Total Energy =                       -344.9101579448794155
  Basis Set: 6-31G*
  Basis Set:
  Charge       = 0
  Multiplicity = 1
  Basis Set: 6-31G*
  Basis Set:

    Orbital Energies (a.u.)
    -----------------------

    Doubly Occupied:

       1A    -20.602156     2A    -20.541526     3A    -11.370095
       4A    -11.284612     5A    -11.235908     6A    -11.226711
       7A    -11.222414     8A     -1.467099     9A     -1.360264
      10A     -1.072250    11A     -1.031650    12A     -0.908406
      13A     -0.853691    14A     -0.777137    15A     -0.693752
      16A     -0.682740    17A     -0.667463    18A     -0.615449
      19A     -0.600077    20A     -0.573848    21A     -0.554170
      22A     -0.538016    23A     -0.526822    24A     -0.508326
      25A     -0.502909    26A     -0.496297    27A     -0.451092
      28A     -0.431420

  @DF-RHF Final Energy:  -344.91015824496787

   => Energetics <=

    Nuclear Repulsion Energy =            316.2801000270022769
    One-Electron Energy =               -1096.7879178913194664
    Two-Electron Energy =                 435.5976596193494288
    DFT Exchange-Correlation Energy =       0.0000000000000000
    Empirical Dispersion Energy =           0.0000000000000000
    PCM Polarization Energy =               0.0000000000000000
    EFP Energy =                            0.0000000000000000
    Total Energy =                       -344.9101582449677608
    Molecular point group: c1
  Basis Set: 6-31G*
  Basis Set:

  -Total Gradient:
     Atom            X                  Y                   Z
    ------   -----------------  -----------------  -----------------
       1       -0.000012756044     0.000029500653     0.000010412390
       2        0.000429029072     0.000431492443    -0.000104055385
       3       -0.000405166035    -0.000503670460     0.000264846164
       4       -0.000196431643    -0.000243198122     0.000065489934
       5        0.000001287248     0.000054675259     0.000044259068
       6        0.000219737022     0.000247508006    -0.000233813888
       7        0.000007014409     0.000019353472    -0.000052580447
       8       -0.000018961967    -0.000011989592     0.000011079071
       9       -0.000020510867    -0.000011926645     0.000002472372
      10        0.000047350882     0.000032063140     0.000005841447
      11       -0.000105338912    -0.000098769401    -0.000003201078
      12        0.000016307376     0.000025495781    -0.000006661662
      13        0.000033075157    -0.000000506088     0.000010078012
      14        0.000002160222     0.000028053163    -0.000012102025
      15       -0.000000714612     0.000000599048    -0.000010496270
      16        0.000002933501     0.000001477610    -0.000000634268
      17        0.000000985190    -0.000000158267     0.000009066563

  **** Optimization is complete! (in 6 steps) ****
    Final optimized geometry and variables:
    Molecular point group: c1

    Geometry (in Angstrom), charge = 0, multiplicity = 1:

    O           -0.394608101773     0.186123075816     1.624291814421
    C            0.061627218002    -0.323603155592     0.650865388957
    C            1.186432494535    -1.329523624407     0.663023152771
    O           -0.341645401171    -0.039289049240    -0.579061810723
    C            2.545526760774    -0.617591581959     0.637017924877
    H            1.093221303691    -1.985166694529    -0.193489140908
    H            1.090653170770    -1.915117826286     1.568242019541
    H            2.658986785598    -0.028521416200    -0.266647981373
    H            3.349463747995    -1.344387745131     0.667401487137
    H            2.651440062313     0.041011750492     1.491566466213
    C           -1.368178210354     0.936770924025    -0.724671802162
    C           -1.646224920215     1.086028156999    -2.205454016803
    H           -1.034927272614     1.866638444523    -0.284310281491
    H           -2.245113311158     0.608440087369    -0.183876044259
    H           -0.756551326655     1.409862618842    -2.733580852412
    H           -2.426246116282     1.824004460847    -2.362279158986
    H           -1.973652241154     0.144806168951    -2.632188104565

  Mulliken Charges: (a.u.)
   Center  Symbol    Alpha    Beta     Spin     Total
       1     O     4.28637  4.28637  0.00000 -0.57274
       2     C     2.61402  2.61402  0.00000  0.77197
       3     C     3.19429  3.19429  0.00000 -0.38859
       4     O     4.30961  4.30961  0.00000 -0.61922
       5     C     3.25126  3.25126  0.00000 -0.50252
       6     H     0.40338  0.40338  0.00000  0.19325
       7     H     0.39984  0.39984  0.00000  0.20033
       8     H     0.41150  0.41150  0.00000  0.17700
       9     H     0.41167  0.41167  0.00000  0.17666
      10     H     0.40663  0.40663  0.00000  0.18674
      11     C     3.00284  3.00284  0.00000 -0.00569
      12     C     3.24854  3.24854  0.00000 -0.49708
      13     H     0.41028  0.41028  0.00000  0.17943
      14     H     0.40964  0.40964  0.00000  0.18072
      15     H     0.41216  0.41216  0.00000  0.17569
      16     H     0.41622  0.41622  0.00000  0.16757
      17     H     0.41175  0.41175  0.00000  0.17650

   Total alpha = 28.00000, Total beta = 28.00000, Total charge = -0.00000
