                              Psi4 1.0.54 Driver

  ==> Input File <==

--------------------------------------------------------------------------
set {
	reference rhf
	basis cc-pvtz
}

set_num_threads( 4 )
memory 2 gb

molecule MOL {
0 1

O	 0.074770	 1.259872	 0.000487
C	 0.029490	 0.077183	 0.000078
C	 -1.232113	 -0.748027	 0.000015
O	 1.106773	 -0.690081	 -0.000204
C	 -2.501422	 0.088592	 -0.000052
H	 -1.188777	 -1.400384	 -0.865133
H	 -1.188857	 -1.400312	 0.865225
H	 -2.548170	 0.725504	 -0.873205
H	 -3.371613	 -0.556398	 -0.000040
H	 -2.548215	 0.725571	 0.873047
C	 1.167194	 -1.724142	 0.961414
H	 1.129585	 -1.317633	 1.961200
H	 2.106621	 -2.227132	 0.799231
H	 0.347139	 -2.414546	 0.830655

	symmetry c1
}
set optking {
	frozen_dihedral = ("
		11 4 2 3
	")
}

ee,wfn = optimize('scf', return_wfn=True)
oeprop( wfn, 'DIPOLE', 'QUADRUPOLE', 'MULLIKEN_CHARGES')
f=open( 'psi4out.xyz', 'w' )
f.write( "14  " )
f.write( str(ee) + "\n" )
f.write( MOL.save_string_xyz() )
f.close()
--------------------------------------------------------------------------

    Molecular point group: c1
  Charge       = 0
  Multiplicity = 1
  Basis Set: CC-PVTZ
  Basis Set:
  @DF-RHF Final Energy:  -305.96305459707196
    Total Energy =                       -305.9630545970719595
    Molecular point group: c1
  Basis Set: CC-PVTZ
  Basis Set:
  Basis Set: CC-PVTZ
  Basis Set:
  @DF-RHF Final Energy:  -305.95990629476495
    Total Energy =                       -305.9599062947650623
  Basis Set: CC-PVTZ
  Basis Set:
  Basis Set: CC-PVTZ
  Basis Set:
  @DF-RHF Final Energy:  -305.96867430471679
    Total Energy =                       -305.9686743047167283
  Basis Set: CC-PVTZ
  Basis Set:
  Basis Set: CC-PVTZ
  Basis Set:
  @DF-RHF Final Energy:  -305.96787928020933
    Total Energy =                       -305.9678792802094449
  Basis Set: CC-PVTZ
  Basis Set:
  Basis Set: CC-PVTZ
  Basis Set:
  @DF-RHF Final Energy:  -305.96958141590886
    Total Energy =                       -305.9695814159087490
  Basis Set: CC-PVTZ
  Basis Set:
  Basis Set: CC-PVTZ
  Basis Set:
  @DF-RHF Final Energy:  -305.96967486459710
    Total Energy =                       -305.9696748645969251
  Basis Set: CC-PVTZ
  Basis Set:
  Basis Set: CC-PVTZ
  Basis Set:
  @DF-RHF Final Energy:  -305.96968411760889
    Total Energy =                       -305.9696841176088924
  Basis Set: CC-PVTZ
  Basis Set:
  Charge       = 0
  Multiplicity = 1
  Basis Set: CC-PVTZ
  Basis Set:

    Orbital Energies (a.u.)
    -----------------------

    Doubly Occupied:

       1A    -20.587115     2A    -20.538310     3A    -11.367429
       4A    -11.293090     5A    -11.244889     6A    -11.218918
       7A     -1.464080     8A     -1.370829     9A     -1.063555
      10A     -0.982383    11A     -0.898360    12A     -0.768781
      13A     -0.704878    14A     -0.684496    15A     -0.676543
      16A     -0.628740    17A     -0.611785    18A     -0.560862
      19A     -0.548888    20A     -0.526060    21A     -0.513744
      22A     -0.495378    23A     -0.458307    24A     -0.438298

  @DF-RHF Final Energy:  -305.96968458495991

   => Energetics <=

    Nuclear Repulsion Energy =            247.5776653920092372
    One-Electron Energy =                -907.8032650434008701
    Two-Electron Energy =                 354.2559150664317258
    DFT Exchange-Correlation Energy =       0.0000000000000000
    Empirical Dispersion Energy =           0.0000000000000000
    PCM Polarization Energy =               0.0000000000000000
    EFP Energy =                            0.0000000000000000
    Total Energy =                       -305.9696845849598503
    Molecular point group: c1
  Basis Set: CC-PVTZ
  Basis Set:

  -Total Gradient:
     Atom            X                  Y                   Z
    ------   -----------------  -----------------  -----------------
       1        0.000019132207     0.000072919104    -0.000011339126
       2        0.001511945126     0.000703269309     0.005589156020
       3       -0.000336426247     0.000150205962    -0.003006421410
       4       -0.002885138858    -0.002921406406    -0.004683440477
       5       -0.000003515295    -0.000000729303     0.000007162202
       6       -0.000009409688    -0.000015863367     0.000002263814
       7       -0.000000918336    -0.000018531580     0.000013916354
       8       -0.000005682788     0.000008012293    -0.000006152611
       9       -0.000001997443     0.000000215501    -0.000000493706
      10       -0.000005902403     0.000005007920    -0.000000096145
      11        0.001725819987     0.002001005768     0.002114170166
      12        0.000000307986    -0.000023811568    -0.000016226799
      13       -0.000025996169     0.000009447174    -0.000006882741
      14        0.000017781922     0.000030259196     0.000004384458

  **** Optimization is complete! (in 8 steps) ****
    Final optimized geometry and variables:
    Molecular point group: c1

    Geometry (in Angstrom), charge = 0, multiplicity = 1:

    O            0.316610982171     1.512659235074    -0.158227808748
    C            0.210355375803     0.341502219402    -0.117748586764
    C           -1.115536791127    -0.379969022863    -0.014197493274
    O            1.293005567552    -0.433331303872    -0.275751180386
    C           -2.310362512682     0.560179570109    -0.055285359639
    H           -1.152306259825    -1.098859468571    -0.825991209798
    H           -1.126030321896    -0.961065541974     0.902094172306
    H           -2.326987542831     1.126525445483    -0.976374368008
    H           -3.230856630332    -0.006309262045     0.016731054762
    H           -2.276602542510     1.266103469021     0.763081787121
    C            1.516746350323    -1.530297389645     0.576468534301
    H            1.465998427211    -1.231927325237     1.616517173463
    H            2.513113506996    -1.880539295271     0.361874283728
    H            0.815180374899    -2.334601219515     0.395049191759

  Mulliken Charges: (a.u.)
   Center  Symbol    Alpha    Beta     Spin     Total
       1     O     4.17033  4.17033  0.00000 -0.34066
       2     C     2.80319  2.80319  0.00000  0.39361
       3     C     3.11762  3.11762  0.00000 -0.23524
       4     O     4.14402  4.14402  0.00000 -0.28803
       5     C     3.13898  3.13898  0.00000 -0.27797
       6     H     0.43683  0.43683  0.00000  0.12634
       7     H     0.44584  0.44584  0.00000  0.10831
       8     H     0.44576  0.44576  0.00000  0.10848
       9     H     0.45120  0.45120  0.00000  0.09759
      10     H     0.44648  0.44648  0.00000  0.10705
      11     C     3.04580  3.04580  0.00000 -0.09160
      12     H     0.45767  0.45767  0.00000  0.08467
      13     H     0.43571  0.43571  0.00000  0.12857
      14     H     0.46057  0.46057  0.00000  0.07887

   Total alpha = 24.00000, Total beta = 24.00000, Total charge =  0.00000

*** Psi4 exiting successfully. Buy a developer a beer!
