  ==> Input File <==

--------------------------------------------------------------------------
set {
	reference rhf
	basis cc-pvtz
}

set_num_threads( 4 )
memory 2 gb

molecule MOL {
0 1

H	 -1.170921	 -1.352473	 0.239774
O	 -1.432053	 -0.565244	 -0.200812
C	 -0.727158	 0.534527	 0.310686
C	 0.680222	 0.664433	 -0.252229
H	 -1.306802	 1.408001	 0.044211
H	 -0.690821	 0.490158	 1.397609
C	 1.605391	 -0.489360	 0.123098
H	 0.615089	 0.745647	 -1.332226
H	 1.101414	 1.597893	 0.110950
H	 1.247627	 -1.432485	 -0.275204
H	 2.601435	 -0.332816	 -0.273062
H	 1.691776	 -0.589902	 1.200774

	symmetry c1
}
set optking {
	frozen_dihedral = ("
		1 2 3 4
	")
}

ee = optimize('scf')
oeprop('DIPOLE', 'QUADRUPOLE', 'MULLIKEN_CHARGES')
f=open( 'psi4out.xyz', 'w' )
f.write( "12  " )
f.write( str(ee) + "\n" )
f.write( MOL.save_string_xyz() )
f.close()
--------------------------------------------------------------------------

    Molecular point group: c1
  Charge       = 0
  Multiplicity = 1
  Basis Set: CC-PVTZ
  Basis Set:
  @DF-RHF Final Energy:  -193.19053863988708
    Total Energy =                       -193.1905386398870519
    Molecular point group: c1
  Basis Set: CC-PVTZ
  Basis Set:
  Basis Set: CC-PVTZ
  Basis Set:
  @DF-RHF Final Energy:  -193.19054481375227
    Total Energy =                       -193.1905448137520693
  Basis Set: CC-PVTZ
  Basis Set:
  Basis Set: CC-PVTZ
  Basis Set:
  @DF-RHF Final Energy:  -193.19054673066356
    Total Energy =                       -193.1905467306636695
  Basis Set: CC-PVTZ
  Basis Set:
  Charge       = 0
  Multiplicity = 1
  Basis Set: CC-PVTZ
  Basis Set:

    Orbital Energies (a.u.)
    -----------------------

    Doubly Occupied:

       1A    -20.546318     2A    -11.266155     3A    -11.215953
       4A    -11.213258     5A     -1.364248     6A     -1.051288
       7A     -0.927558     8A     -0.808694     9A     -0.701309
      10A     -0.637134    11A     -0.600457    12A     -0.590144
      13A     -0.537675    14A     -0.512040    15A     -0.492177
      16A     -0.469585    17A     -0.432607

  @DF-RHF Final Energy:  -193.19054690847193

   => Energetics <=

    Nuclear Repulsion Energy =            133.1904507515280045
    One-Electron Energy =                -526.0287987010744928
    Two-Electron Energy =                 199.6478010410748709
    DFT Exchange-Correlation Energy =       0.0000000000000000
    Empirical Dispersion Energy =           0.0000000000000000
    PCM Polarization Energy =               0.0000000000000000
    EFP Energy =                            0.0000000000000000
    Total Energy =                       -193.1905469084715889
    Molecular point group: c1
  Basis Set: CC-PVTZ
  Basis Set:

  -Total Gradient:
     Atom            X                  Y                   Z
    ------   -----------------  -----------------  -----------------
       1       -0.000382503107     0.000095367648     0.000351401084
       2        0.000428706630    -0.000007875111    -0.000523203048
       3        0.000068116659    -0.000277394313     0.000414435693
       4       -0.000098245179     0.000189292009    -0.000227224893
       5       -0.000018386482    -0.000002711124     0.000001573578
       6       -0.000007004348    -0.000000001024    -0.000013573787
       7        0.000012302752    -0.000011702059    -0.000018694539
       8       -0.000010141330    -0.000000639424     0.000011353271
       9        0.000010329193     0.000014108497    -0.000003957467
      10       -0.000008078599     0.000003910548     0.000003968774
      11        0.000003414957    -0.000002923911     0.000004384597
      12        0.000001488854     0.000000568264    -0.000000463263

  **** Optimization is complete! (in 4 steps) ****
    Final optimized geometry and variables:
    Molecular point group: c1

    Geometry (in Angstrom), charge = 0, multiplicity = 1:

    H           -1.163748149447    -1.354369417422     0.235560443912
    O           -1.425998868511    -0.567634665301    -0.204391264455
    C           -0.726711956815     0.535177123594     0.310145383189
    C            0.680575224811     0.665821717941    -0.252239618580
    H           -1.306037737240     1.408927821788     0.042714634953
    H           -0.692996603720     0.491049067277     1.396761457009
    C            1.603797187737    -0.489416213647     0.121972554994
    H            0.613912047482     0.746528951704    -1.332120892709
    H            1.102068905449     1.599632446341     0.110001380288
    H            1.238667283586    -1.430875262981    -0.272603396914
    H            2.599063223679    -0.337162521457    -0.277913092988
    H            1.693911701592    -0.587649469154     1.199656821018

  Mulliken Charges: (a.u.)
   Center  Symbol    Alpha    Beta     Spin     Total
       1     H     0.39217  0.39217  0.00000  0.21565
       2     O     4.20594  4.20594  0.00000 -0.41188
       3     C     2.97840  2.97840  0.00000  0.04320
       4     C     3.07936  3.07936  0.00000 -0.15871
       5     H     0.45012  0.45012  0.00000  0.09975
       6     H     0.46975  0.46975  0.00000  0.06051
       7     C     3.16048  3.16048  0.00000 -0.32096
       8     H     0.45206  0.45206  0.00000  0.09588
       9     H     0.45676  0.45676  0.00000  0.08647
      10     H     0.45484  0.45484  0.00000  0.09031
      11     H     0.44511  0.44511  0.00000  0.10979
      12     H     0.45500  0.45500  0.00000  0.08999

   Total alpha = 17.00000, Total beta = 17.00000, Total charge =  0.00000
