                              Psi4 1.0.54 Driver

  ==> Input File <==

--------------------------------------------------------------------------
set {
	reference rhf
	basis cc-pvtz
}

set_num_threads( 4 )
memory 2 gb

molecule MOL {
0 1

H	 -3.401682	 -1.036167	 0.000000
O	 -3.113760	 -0.140926	 0.000000
C	 -1.775087	 -0.058754	 0.000000
C	 -1.110569	 1.161431	 0.000000
C	 -1.060975	 -1.245441	 -0.000000
H	 -1.671523	 2.077814	 0.000000
C	 0.263823	 1.188625	 0.000000
H	 -1.592868	 -2.175553	 0.000000
C	 0.314904	 -1.200908	 0.000000
H	 0.788326	 2.123508	 0.000000
C	 0.993734	 0.008074	 -0.000000
H	 0.869931	 -2.120942	 0.000000
C	 2.468300	 0.030852	 -0.000000
O	 3.133231	 1.012698	 -0.000000
H	 2.941795	 -0.956875	 -0.000000

	symmetry c1
}
set optking {
	frozen_dihedral = ("
		5 3 2 1
	")
}

ee,wfn = optimize('scf', return_wfn=True)
oeprop( wfn, 'DIPOLE', 'QUADRUPOLE', 'MULLIKEN_CHARGES')
f=open( 'psi4out.xyz', 'w' )
f.write( "15  " )
f.write( str(ee) + "\n" )
f.write( MOL.save_string_xyz() )
f.close()
--------------------------------------------------------------------------

    Molecular point group: c1
  Charge       = 0
  Multiplicity = 1
  Basis Set: CC-PVTZ
  Basis Set:
  @DF-RHF Final Energy:  -418.44049459130383
    Total Energy =                       -418.4404945913036045
    Molecular point group: c1
  Basis Set: CC-PVTZ
  Basis Set:
  Basis Set: CC-PVTZ
  Basis Set:
  @DF-RHF Final Energy:  -418.44237283502235
    Total Energy =                       -418.4423728350225247
  Basis Set: CC-PVTZ
  Basis Set:
  Basis Set: CC-PVTZ
  Basis Set:
  @DF-RHF Final Energy:  -418.44253928089609
    Total Energy =                       -418.4425392808960851
  Basis Set: CC-PVTZ
  Basis Set:
  Basis Set: CC-PVTZ
  Basis Set:
  @DF-RHF Final Energy:  -418.44255951441738
    Total Energy =                       -418.4425595144174395
  Basis Set: CC-PVTZ
  Basis Set:
  Basis Set: CC-PVTZ
  Basis Set:
  @DF-RHF Final Energy:  -418.44255388101993
    Total Energy =                       -418.4425538810197622
  Basis Set: CC-PVTZ
  Basis Set:
  Basis Set: CC-PVTZ
  Basis Set:
  @DF-RHF Final Energy:  -418.44254337630491
    Total Energy =                       -418.4425433763050250
  Basis Set: CC-PVTZ
  Basis Set:
  Charge       = 0
  Multiplicity = 1
  Basis Set: CC-PVTZ
  Basis Set:

    Orbital Energies (a.u.)
    -----------------------

    Doubly Occupied:

       1A    -20.605249     2A    -20.545383     3A    -11.322935
       4A    -11.322569     5A    -11.260730     6A    -11.251975
       7A    -11.242474     8A    -11.236984     9A    -11.236356
      10A     -1.438467    11A     -1.401663    12A     -1.175282
      13A     -1.046797    14A     -1.040412    15A     -0.897518
      16A     -0.861824    17A     -0.806148    18A     -0.761768
      19A     -0.699209    20A     -0.691193    21A     -0.642644
      22A     -0.629096    23A     -0.615610    24A     -0.611830
      25A     -0.587391    26A     -0.561839    27A     -0.555348
      28A     -0.509421    29A     -0.490297    30A     -0.421360
      31A     -0.362091    32A     -0.332065

  @DF-RHF Final Energy:  -418.44256310646330

   => Energetics <=

    Nuclear Repulsion Energy =            402.2971155744784824
    One-Electron Energy =               -1367.1515000662634520
    Two-Electron Energy =                 546.4118213853219004
    DFT Exchange-Correlation Energy =       0.0000000000000000
    Empirical Dispersion Energy =           0.0000000000000000
    PCM Polarization Energy =               0.0000000000000000
    EFP Energy =                            0.0000000000000000
    Total Energy =                       -418.4425631064630124
    Molecular point group: c1
  Basis Set: CC-PVTZ
  Basis Set:

  -Total Gradient:
     Atom            X                  Y                   Z
    ------   -----------------  -----------------  -----------------
       1       -0.000003838016     0.000014250608     0.000000046383
       2       -0.000032440699    -0.000024459359     0.000000328295
       3       -0.000011355317     0.000011147073    -0.000000332145
       4        0.000071582044     0.000030858504    -0.000001287532
       5       -0.000036863110    -0.000020428901    -0.000001428496
       6       -0.000020874071    -0.000010006282    -0.000000034091
       7       -0.000018363247    -0.000001535704     0.000002263168
       8        0.000011520553     0.000009418480    -0.000000244609
       9        0.000032280455    -0.000000783604     0.000001414718
      10       -0.000004338018     0.000000079465    -0.000000127665
      11       -0.000013572653    -0.000007637828     0.000019206128
      12        0.000016349977     0.000004026404     0.000000861048
      13       -0.000039243057    -0.000030529470    -0.000068909832
      14        0.000041839683     0.000029262804     0.000024533483
      15        0.000007315472    -0.000003662190     0.000023711148

  **** Optimization is complete! (in 7 steps) ****
    Final optimized geometry and variables:
    Molecular point group: c1

    Geometry (in Angstrom), charge = 0, multiplicity = 1:

    H           -3.462749930494    -1.028601584912     0.000051624996
    O           -3.108291648035    -0.157413386351     0.000042146098
    C           -1.767555524225    -0.176019877504     0.000009848511
    C           -1.114301354914     1.053311756577    -0.000000021920
    C           -1.042787380135    -1.353518860939    -0.000007814505
    H           -1.699888066498     1.950897003070     0.000017839760
    C            0.255088008500     1.091348408935    -0.000027166742
    H           -1.549350673780    -2.300789623691     0.000001935209
    C            0.337767801833    -1.297749449933    -0.000035363785
    H            0.771954031044     2.030522862164    -0.000039144987
    C            1.000579479066    -0.086173436195    -0.000050367157
    H            0.900173652574    -2.213277251963    -0.000044913328
    C            2.474885872923    -0.050871878447    -0.000098083289
    O            3.131818366711     0.935976332268     0.000107209386
    H            2.955738618435    -1.035400339307     0.000130435173

  Mulliken Charges: (a.u.)
   Center  Symbol    Alpha    Beta     Spin     Total
       1     H     0.38568  0.38568  0.00000  0.22864
       2     O     4.16566  4.16566  0.00000 -0.33132
       3     C     2.84329  2.84329  0.00000  0.31343
       4     C     3.10720  3.10720  0.00000 -0.21439
       5     C     3.13480  3.13480  0.00000 -0.26961
       6     H     0.41546  0.41546  0.00000  0.16908
       7     C     3.05977  3.05977  0.00000 -0.11954
       8     H     0.43233  0.43233  0.00000  0.13534
       9     C     3.07389  3.07389  0.00000 -0.14778
      10     H     0.40727  0.40727  0.00000  0.18546
      11     C     3.00263  3.00263  0.00000 -0.00526
      12     H     0.42121  0.42121  0.00000  0.15758
      13     C     2.91136  2.91136  0.00000  0.17728
      14     O     4.17837  4.17837  0.00000 -0.35673
      15     H     0.46109  0.46109  0.00000  0.07783

   Total alpha = 32.00000, Total beta = 32.00000, Total charge =  0.00000

*** Psi4 exiting successfully. Buy a developer a beer!
