  ==> Input File <==

--------------------------------------------------------------------------
set {
	reference rhf
	basis 6-31G*
}

set_num_threads( 4 )
memory 2 gb

molecule MOL {
0 1

H	 -0.000158	 1.970498	 0.756846
O	 -0.000074	 1.880206	 -0.189275
C	 -0.000015	 0.544847	 -0.545111
C	 -1.278788	 -0.123820	 -0.051541
C	 1.278802	 -0.123718	 -0.051505
H	 -0.000001	 0.490777	 -1.623619
F	 -2.280418	 0.200584	 -0.840872
F	 -1.181290	 -1.436296	 -0.035457
F	 -1.580313	 0.282642	 1.171353
F	 2.323327	 0.466644	 -0.591854
F	 1.326242	 -1.401483	 -0.363667
F	 1.388946	 -0.015632	 1.262939

	symmetry c1
}
set optking {
	frozen_dihedral = ("
		7 4 3 6
	")
}

ee = optimize('scf')
oeprop('DIPOLE', 'QUADRUPOLE', 'MULLIKEN_CHARGES')
f=open( 'psi4out.xyz', 'w' )
f.write( "12  " )
f.write( str(ee) + "\n" )
f.write( MOL.save_string_xyz() )
f.close()
--------------------------------------------------------------------------

    Molecular point group: c1
  Charge       = 0
  Multiplicity = 1
  Basis Set: 6-31G*
  Basis Set:
  @DF-RHF Final Energy:  -786.27645931399559
    Total Energy =                       -786.2764593139960425
    Molecular point group: c1
  Basis Set: 6-31G*
  Basis Set:
  Basis Set: 6-31G*
  Basis Set:
  @DF-RHF Final Energy:  -786.27698004735078
    Total Energy =                       -786.2769800473508894
  Basis Set: 6-31G*
  Basis Set:
  Basis Set: 6-31G*
  Basis Set:
  @DF-RHF Final Energy:  -786.27711962514945
    Total Energy =                       -786.2771196251496804
  Basis Set: 6-31G*
  Basis Set:
  Basis Set: 6-31G*
  Basis Set:
  @DF-RHF Final Energy:  -786.27714239851662
    Total Energy =                       -786.2771423985169577
  Basis Set: 6-31G*
  Basis Set:
  Basis Set: 6-31G*
  Basis Set:
  @DF-RHF Final Energy:  -786.27714457596358
    Total Energy =                       -786.2771445759635753
  Basis Set: 6-31G*
  Basis Set:
  Charge       = 0
  Multiplicity = 1
  Basis Set: 6-31G*
  Basis Set:

    Orbital Energies (a.u.)
    -----------------------

    Doubly Occupied:

       1A    -26.365338     2A    -26.362361     3A    -26.362096
       4A    -26.360168     5A    -26.359622     6A    -26.357355
       7A    -20.616026     8A    -11.527590     9A    -11.524799
      10A    -11.349113    11A     -1.765190    12A     -1.758697
      13A     -1.662230    14A     -1.658634    15A     -1.657374
      16A     -1.654704    17A     -1.434366    18A     -1.101079
      19A     -0.997137    20A     -0.938090    21A     -0.864821
      22A     -0.862574    23A     -0.851638    24A     -0.845256
      25A     -0.832490    26A     -0.816438    27A     -0.741211
      28A     -0.728185    29A     -0.724856    30A     -0.719451
      31A     -0.688652    32A     -0.686004    33A     -0.682736
      34A     -0.675406    35A     -0.670060    36A     -0.661860
      37A     -0.657786    38A     -0.651557    39A     -0.620354
      40A     -0.551839    41A     -0.505511

  @DF-RHF Final Energy:  -786.27714517913375

   => Energetics <=

    Nuclear Repulsion Energy =            670.4021227807332934
    One-Electron Energy =               -2427.6572219815470817
    Two-Electron Energy =                 970.9779540216800342
    DFT Exchange-Correlation Energy =       0.0000000000000000
    Empirical Dispersion Energy =           0.0000000000000000
    PCM Polarization Energy =               0.0000000000000000
    EFP Energy =                            0.0000000000000000
    Total Energy =                       -786.2771451791336403
    Molecular point group: c1
  Basis Set: 6-31G*
  Basis Set:

  -Total Gradient:
     Atom            X                  Y                   Z
    ------   -----------------  -----------------  -----------------
       1       -0.000002505154    -0.000007278770    -0.000005478276
       2        0.000002017296    -0.000023194801    -0.000038557698
       3        0.002021544504    -0.004192512106    -0.000213802788
       4       -0.000931381107     0.003561836474     0.001989567084
       5       -0.000051340924     0.000020450054    -0.000060290560
       6       -0.001553419607     0.002967702672    -0.000170149930
       7        0.000481877223    -0.002248539964    -0.001552127041
       8       -0.000021773154    -0.000004594496     0.000004496841
       9       -0.000000734082    -0.000029580962    -0.000026260731
      10       -0.000035420046    -0.000051299953     0.000036864814
      11        0.000043137252     0.000016787258     0.000018527327
      12        0.000047997793    -0.000009775397     0.000017210959

  **** Optimization is complete! (in 6 steps) ****
    Final optimized geometry and variables:
    Molecular point group: c1

    Geometry (in Angstrom), charge = 0, multiplicity = 1:

    H           -0.045192829146     2.002305584417     0.687086655665
    O            0.009795689418     1.878019361086    -0.253161569422
    C            0.004870369725     0.530370337185    -0.564272293438
    C           -1.278047867635    -0.112401329667    -0.034836030647
    C            1.279608918988    -0.134747470499    -0.058946273401
    H           -0.012755771023     0.461552333388    -1.641352605044
    F           -2.293273429256     0.212700049610    -0.807704065371
    F           -1.206750189086    -1.427493456792    -0.002775006384
    F           -1.540872778814     0.309644516299     1.190161125819
    F            2.330471657069     0.527434064854    -0.490957411125
    F            1.386229526569    -1.379193087025    -0.474208224802
    F            1.314959899531    -0.133806534901     1.264892573057

  Mulliken Charges: (a.u.)
   Center  Symbol    Alpha    Beta     Spin     Total
       1     H     0.26548  0.26548  0.00000  0.46904
       2     O     4.36317  4.36317  0.00000 -0.72635
       3     C     3.05300  3.05300  0.00000 -0.10601
       4     C     2.44107  2.44107  0.00000  1.11785
       5     C     2.44482  2.44482  0.00000  1.11036
       6     H     0.37386  0.37386  0.00000  0.25227
       7     F     4.67565  4.67565  0.00000 -0.35131
       8     F     4.67382  4.67382  0.00000 -0.34765
       9     F     4.67997  4.67997  0.00000 -0.35994
      10     F     4.67410  4.67410  0.00000 -0.34820
      11     F     4.67400  4.67400  0.00000 -0.34799
      12     F     4.68104  4.68104  0.00000 -0.36207

   Total alpha = 41.00000, Total beta = 41.00000, Total charge = -0.00000
