                              Psi4 1.0.54 Driver

  ==> Input File <==

--------------------------------------------------------------------------
set {
	reference rhf
	basis cc-pvtz
}

set_num_threads( 4 )
memory 2 gb

molecule MOL {
0 1

O	 -2.071633	 -1.227563	 -0.223463
C	 -1.652164	 -0.152425	 0.058082
C	 -0.327811	 0.006324	 0.778296
C	 -2.402515	 1.108629	 -0.298924
C	 0.843231	 -0.001575	 -0.211665
H	 -0.319484	 0.928173	 1.350354
H	 -0.227804	 -0.823091	 1.466705
C	 2.199310	 0.108624	 0.479084
H	 0.734036	 0.818164	 -0.917213
H	 0.801570	 -0.917329	 -0.791341
C	 3.367564	 0.088498	 -0.500682
H	 2.233082	 1.024342	 1.062902
H	 2.306515	 -0.708876	 1.186007
H	 3.307177	 0.915906	 -1.199812
H	 3.378446	 -0.830245	 -1.077016
H	 4.315210	 0.164114	 0.019558
H	 -3.240910	 0.874416	 -0.936711
H	 -1.747554	 1.818823	 -0.790984
H	 -2.760419	 1.579708	 0.610998

	symmetry c1
}
set optking {
	frozen_dihedral = ("
		9 5 3 2
	")
}

ee,wfn = optimize('scf', return_wfn=True)
oeprop( wfn, 'DIPOLE', 'QUADRUPOLE', 'MULLIKEN_CHARGES')
f=open( 'psi4out.xyz', 'w' )
f.write( "19  " )
f.write( str(ee) + "\n" )
f.write( MOL.save_string_xyz() )
f.close()
--------------------------------------------------------------------------

    Molecular point group: c1
  Charge       = 0
  Multiplicity = 1
  Basis Set: CC-PVTZ
  Basis Set:
  @DF-RHF Final Energy:  -309.17735829539998
    Total Energy =                       -309.1773582954000972
    Molecular point group: c1
  Basis Set: CC-PVTZ
  Basis Set:
  Charge       = 0
  Multiplicity = 1
  Basis Set: CC-PVTZ
  Basis Set:

    Orbital Energies (a.u.)
    -----------------------

    Doubly Occupied:

       1A    -20.536956     2A    -11.319513     3A    -11.228798
       4A    -11.227884     5A    -11.227036     6A    -11.222997
       7A    -11.213174     8A     -1.397103     9A     -1.092945
      10A     -1.030518    11A     -0.984717    12A     -0.890960
      13A     -0.807302    14A     -0.734592    15A     -0.665287
      16A     -0.647900    17A     -0.625234    18A     -0.615134
      19A     -0.583022    20A     -0.574728    21A     -0.553972
      22A     -0.537873    23A     -0.514355    24A     -0.501267
      25A     -0.482890    26A     -0.476755    27A     -0.470354
      28A     -0.399260

  @DF-RHF Final Energy:  -309.17735883331778

   => Energetics <=

    Nuclear Repulsion Energy =            301.8540292822675042
    One-Electron Energy =               -1016.9377255131172433
    Two-Electron Energy =                 405.9063373975322975
    DFT Exchange-Correlation Energy =       0.0000000000000000
    Empirical Dispersion Energy =           0.0000000000000000
    PCM Polarization Energy =               0.0000000000000000
    EFP Energy =                            0.0000000000000000
    Total Energy =                       -309.1773588333173848
    Molecular point group: c1
  Basis Set: CC-PVTZ
  Basis Set:

  -Total Gradient:
     Atom            X                  Y                   Z
    ------   -----------------  -----------------  -----------------
       1       -0.000018267815    -0.000009726222    -0.000010383565
       2        0.000037209518    -0.000208767004     0.000003111338
       3       -0.000000124235     0.000424467399     0.000019567745
       4       -0.000009271221     0.000002361565     0.000018214973
       5       -0.000109307797    -0.000391327976    -0.000136975720
       6       -0.000009323173     0.000011770926     0.000067599173
       7        0.000007789096     0.000011046117    -0.000042514073
       8       -0.000054499825     0.000005453294    -0.000039497012
       9        0.000136303009     0.000161534971     0.000174279099
      10        0.000024429069    -0.000050246934    -0.000036953644
      11        0.000001438096     0.000034596213    -0.000011625528
      12        0.000004423206     0.000004384095     0.000021709182
      13       -0.000019562151    -0.000012414388    -0.000017168437
      14        0.000005010034     0.000005752042    -0.000015169946
      15       -0.000005862068    -0.000004840340     0.000011404682
      16        0.000001272847     0.000011644020     0.000002290143
      17        0.000001198484    -0.000001532928    -0.000002136777
      18        0.000006125067     0.000002462578    -0.000004951873
      19        0.000001019860     0.000003382573    -0.000000799759

  **** Optimization is complete! (in 2 steps) ****
    Final optimized geometry and variables:
    Molecular point group: c1

    Geometry (in Angstrom), charge = 0, multiplicity = 1:

    O           -2.075376630693    -1.217654030784    -0.219878110757
    C           -1.652893657674    -0.142821793562     0.058326551938
    C           -0.327724908219     0.014319707325     0.777427961951
    C           -2.400201930207     1.119133767924    -0.301840116955
    C            0.843077208452     0.001337207924    -0.212857721723
    H           -0.316389948451     0.936376144396     1.349123515030
    H           -0.229883313006    -0.815098439235     1.466124309777
    C            2.199004955568     0.113984043254     0.477781983885
    H            0.735122715499     0.819910837565    -0.919916804763
    H            0.801624641547    -0.916404108572    -0.789475246397
    C            3.366923380379     0.101585306117    -0.502531224580
    H            2.229754448797     1.027828711671     1.064752783141
    H            2.309317152654    -0.705577192585     1.181791926719
    H            3.302323142367     0.930156758699    -1.199928905874
    H            3.381940350445    -0.815929805393    -1.080742379249
    H            4.314409573648     0.180653842603     0.017489852140
    H           -3.239440960128     0.885306011641    -0.938661050608
    H           -1.743654799917     1.826404541113    -0.795994068914
    H           -2.756641719587     1.593474855813     0.606979387850

  Mulliken Charges: (a.u.)
   Center  Symbol    Alpha    Beta     Spin     Total
       1     O     4.17776  4.17776  0.00000 -0.35552
       2     C     2.85804  2.85804  0.00000  0.28393
       3     C     3.09805  3.09805  0.00000 -0.19609
       4     C     3.15514  3.15514  0.00000 -0.31028
       5     C     3.09733  3.09733  0.00000 -0.19465
       6     H     0.44933  0.44933  0.00000  0.10133
       7     H     0.43920  0.43920  0.00000  0.12160
       8     C     3.08563  3.08563  0.00000 -0.17126
       9     H     0.45307  0.45307  0.00000  0.09386
      10     H     0.44114  0.44114  0.00000  0.11773
      11     C     3.14936  3.14936  0.00000 -0.29872
      12     H     0.45415  0.45415  0.00000  0.09171
      13     H     0.45125  0.45125  0.00000  0.09750
      14     H     0.45521  0.45521  0.00000  0.08959
      15     H     0.45276  0.45276  0.00000  0.09448
      16     H     0.44733  0.44733  0.00000  0.10535
      17     H     0.43602  0.43602  0.00000  0.12796
      18     H     0.45089  0.45089  0.00000  0.09823
      19     H     0.44836  0.44836  0.00000  0.10328

   Total alpha = 28.00000, Total beta = 28.00000, Total charge = -0.00000

*** Psi4 exiting successfully. Buy a developer a beer!
