  ==> Input File <==

--------------------------------------------------------------------------
set {
	reference rhf
	basis cc-pvtz
}

set_num_threads( 4 )
memory 2 gb

molecule MOL {
0 1

H	 -2.498963	 -0.741158	 -0.729149
O	 -2.346257	 -0.289210	 0.080372
C	 -1.183935	 0.486039	 -0.009831
C	 0.062853	 -0.375310	 0.027457
H	 -1.178881	 1.094526	 -0.908634
H	 -1.184406	 1.155156	 0.838676
O	 1.172093	 0.457955	 -0.054438
H	 0.052476	 -1.081302	 -0.804627
H	 0.076323	 -0.955658	 0.947560
C	 1.357089	 1.056020	 -1.295130
H	 0.509781	 1.682736	 -1.564517
H	 2.241597	 1.673194	 -1.236574
H	 1.498321	 0.313522	 -2.076968

	symmetry c1
}
set optking {
	frozen_dihedral = ("
		10 7 4 8
	")
}

ee = optimize('scf')
oeprop('DIPOLE', 'QUADRUPOLE', 'MULLIKEN_CHARGES')
f=open( 'psi4out.xyz', 'w' )
f.write( "13  " )
f.write( str(ee) + "\n" )
f.write( MOL.save_string_xyz() )
f.close()
--------------------------------------------------------------------------

    Molecular point group: c1
  Charge       = 0
  Multiplicity = 1
  Basis Set: CC-PVTZ
  Basis Set:
  @DF-RHF Final Energy:  -268.05457734968019
    Total Energy =                       -268.0545773496805850
    Molecular point group: c1
  Basis Set: CC-PVTZ
  Basis Set:
  Basis Set: CC-PVTZ
  Basis Set:
  @DF-RHF Final Energy:  -268.05621278920330
    Total Energy =                       -268.0562127892031867
  Basis Set: CC-PVTZ
  Basis Set:
  Basis Set: CC-PVTZ
  Basis Set:
  @DF-RHF Final Energy:  -268.05838424936087
    Total Energy =                       -268.0583842493608699
  Basis Set: CC-PVTZ
  Basis Set:
  Basis Set: CC-PVTZ
  Basis Set:
  @DF-RHF Final Energy:  -268.05862559958200
    Total Energy =                       -268.0586255995820579
  Basis Set: CC-PVTZ
  Basis Set:
  Basis Set: CC-PVTZ
  Basis Set:
  @DF-RHF Final Energy:  -268.05865065120906
    Total Energy =                       -268.0586506512091205
  Basis Set: CC-PVTZ
  Basis Set:
  Basis Set: CC-PVTZ
  Basis Set:
  @DF-RHF Final Energy:  -268.05865252252227
    Total Energy =                       -268.0586525225220953
  Basis Set: CC-PVTZ
  Basis Set:
  Charge       = 0
  Multiplicity = 1
  Basis Set: CC-PVTZ
  Basis Set:

    Orbital Energies (a.u.)
    -----------------------

    Doubly Occupied:

       1A    -20.555557     2A    -20.555269     3A    -11.270292
       4A    -11.269445     5A    -11.268686     6A     -1.389366
       7A     -1.371161     8A     -1.015231     9A     -0.930391
      10A     -0.836563    11A     -0.712893    12A     -0.675133
      13A     -0.665598    14A     -0.638085    15A     -0.600265
      16A     -0.576445    17A     -0.537514    18A     -0.495132
      19A     -0.491107    20A     -0.458834    21A     -0.409320

  @DF-RHF Final Energy:  -268.05865285654795

   => Energetics <=

    Nuclear Repulsion Energy =            192.3225663959848077
    One-Electron Energy =                -747.3178676759553127
    Two-Electron Energy =                 286.9366484234225823
    DFT Exchange-Correlation Energy =       0.0000000000000000
    Empirical Dispersion Energy =           0.0000000000000000
    PCM Polarization Energy =               0.0000000000000000
    EFP Energy =                            0.0000000000000000
    Total Energy =                       -268.0586528565478943
    Molecular point group: c1
  Basis Set: CC-PVTZ
  Basis Set:

  -Total Gradient:
     Atom            X                  Y                   Z
    ------   -----------------  -----------------  -----------------
       1       -0.000011952560    -0.000003186521    -0.000000986242
       2        0.000007985469    -0.000019297531    -0.000024584739
       3       -0.000011367411     0.000053072228     0.000041299978
       4       -0.000983310023     0.001270352569    -0.000751563178
       5       -0.000000409910    -0.000019551859    -0.000001141992
       6        0.000002111871     0.000015813772    -0.000002244652
       7        0.000937750069    -0.001311136349    -0.000163554734
       8        0.000581774937    -0.000759990798     0.000666396910
       9        0.000018981046     0.000021723968    -0.000009937307
      10       -0.000544085714     0.000758155888     0.000223971231
      11        0.000003348967     0.000001229055     0.000005264537
      12       -0.000003762115    -0.000006237242     0.000016786823
      13        0.000002935371    -0.000000947182     0.000000293364

  **** Optimization is complete! (in 7 steps) ****
    Final optimized geometry and variables:
    Molecular point group: c1

    Geometry (in Angstrom), charge = 0, multiplicity = 1:

    H           -2.297451199359    -1.143804619906    -0.339118738342
    O           -2.146107193056    -0.633149709991     0.435192263352
    C           -1.046794566060     0.215068942221     0.250571256698
    C            0.253645676382    -0.575806963415     0.241134510296
    H           -1.160532627281     0.798672517803    -0.657710943559
    H           -1.037805277976     0.904220944517     1.083566794633
    O            1.393212138364     0.223187936557     0.189310506482
    H            0.253234317590    -1.292457364376    -0.581664253370
    H            0.312905348490    -1.142814622092     1.159814459811
    C            1.679514851309     0.817600706321    -1.036301180004
    H            0.967632198467     1.594496338269    -1.296814028707
    H            2.659022920224     1.266183839088    -0.957245354986
    H            1.698177544082     0.082108089239    -1.837735798582

  Mulliken Charges: (a.u.)
   Center  Symbol    Alpha    Beta     Spin     Total
       1     H     0.39399  0.39399  0.00000  0.21201
       2     O     4.20219  4.20219  0.00000 -0.40438
       3     C     2.97522  2.97522  0.00000  0.04956
       4     C     2.98636  2.98636  0.00000  0.02729
       5     H     0.47164  0.47164  0.00000  0.05673
       6     H     0.45082  0.45082  0.00000  0.09836
       7     O     4.17715  4.17715  0.00000 -0.35430
       8     H     0.47795  0.47795  0.00000  0.04409
       9     H     0.44533  0.44533  0.00000  0.10935
      10     C     3.03419  3.03419  0.00000 -0.06839
      11     H     0.47002  0.47002  0.00000  0.05997
      12     H     0.44320  0.44320  0.00000  0.11360
      13     H     0.47194  0.47194  0.00000  0.05611

   Total alpha = 21.00000, Total beta = 21.00000, Total charge = -0.00000
