  ==> Input File <==

--------------------------------------------------------------------------
set {
	reference rhf
	basis 6-31G*
}

set_num_threads( 1 )
memory 2 gb

molecule MOL {
0 1

H	 1.143950	 -1.992219	 -3.619581
O	 2.053787	 -1.735964	 -3.659603
C	 2.147214	 -0.365269	 -3.953746
C	 1.752433	 0.528923	 -2.783576
H	 3.183115	 -0.190126	 -4.214336
H	 1.547926	 -0.121935	 -4.830343
C	 0.286747	 0.393548	 -2.363688
H	 2.396788	 0.296897	 -1.939575
H	 1.954753	 1.561645	 -3.062717
C	 -0.091721	 1.342687	 -1.223199
H	 0.095358	 -0.632111	 -2.060772
H	 -0.355560	 0.592293	 -3.221757
C	 -1.570727	 1.308579	 -0.821057
H	 0.523020	 1.119738	 -0.353007
H	 0.160948	 2.358439	 -1.520027
C	 -2.037799	 -0.007733	 -0.193645
H	 -1.750617	 2.113728	 -0.111698
H	 -2.185234	 1.531086	 -1.692096
C	 -3.489788	 0.042957	 0.286558
H	 -1.390820	 -0.254184	 0.647064
H	 -1.932436	 -0.820881	 -0.907782
C	 -4.216917	 1.317354	 -0.141063
H	 -4.025645	 -0.823308	 -0.095450
H	 -3.513059	 -0.038752	 1.371301
H	 -4.239342	 1.411634	 -1.223113
H	 -5.243387	 1.322503	 0.212445
H	 -3.726170	 2.201406	 0.256408

	symmetry c1
}
set optking {
	frozen_dihedral = ("
		14 10 7 4,
		14 10 13 16,
		10 7 4 8,
		8 4 3 2,
		10 13 16 20,
		4 3 2 1
	")
}

ee = energy('scf')
oeprop('DIPOLE', 'QUADRUPOLE', 'MULLIKEN_CHARGES')
f=open( 'psi4out.xyz', 'w' )
f.write( "27  " )
f.write( str(ee) + "\n" )
f.write( MOL.save_string_xyz() )
f.close()
--------------------------------------------------------------------------

    Molecular point group: c1

    Geometry (in Angstrom), charge = 0, multiplicity = 1:

       Center              X                  Y                   Z               Mass
    ------------   -----------------  -----------------  -----------------  -----------------
           H          1.691753093646    -2.274057046909    -1.933439050884     1.007825032070
           O          2.601590093646    -2.017802046909    -1.973461050884    15.994914619560
           C          2.695017093646    -0.647107046909    -2.267604050884    12.000000000000
           C          2.300236093646     0.247084953091    -1.097434050884    12.000000000000
           H          3.730918093646    -0.471964046909    -2.528194050884     1.007825032070
           H          2.095729093646    -0.403773046909    -3.144201050884     1.007825032070
           C          0.834550093646     0.111709953091    -0.677546050884    12.000000000000
           H          2.944591093646     0.015058953091    -0.253433050884     1.007825032070
           H          2.502556093646     1.279806953091    -1.376575050884     1.007825032070
           C          0.456082093646     1.060848953091     0.462942949116    12.000000000000
           H          0.643161093646    -0.913949046909    -0.374630050884     1.007825032070
           H          0.192243093646     0.310454953091    -1.535615050884     1.007825032070
           C         -1.022923906354     1.026740953091     0.865084949116    12.000000000000
           H          1.070823093646     0.837899953091     1.333134949116     1.007825032070
           H          0.708751093646     2.076600953091     0.166114949116     1.007825032070
           C         -1.489995906354    -0.289571046909     1.492496949116    12.000000000000
           H         -1.202813906354     1.831889953091     1.574443949116     1.007825032070
           H         -1.637430906354     1.249247953091    -0.005954050884     1.007825032070
           C         -2.941984906354    -0.238881046909     1.972699949116    12.000000000000
           H         -0.843016906354    -0.536022046909     2.333205949116     1.007825032070
           H         -1.384632906354    -1.102719046909     0.778359949116     1.007825032070
           C         -3.669113906354     1.035515953091     1.545078949116    12.000000000000
           H         -3.477841906354    -1.105146046909     1.590691949116     1.007825032070
           H         -2.965255906354    -0.320590046909     3.057442949116     1.007825032070
           H         -3.691538906354     1.129795953091     0.463028949116     1.007825032070
           H         -4.695583906354     1.040664953091     1.898586949116     1.007825032070
           H         -3.178366906354     1.919567953091     1.942549949116     1.007825032070

  Charge       = 0
  Multiplicity = 1
  Basis Set: 6-31G*
  Basis Set:

    Orbital Energies (a.u.)
    -----------------------

    Doubly Occupied:

       1A    -20.552040     2A    -11.266753     3A    -11.219160
       4A    -11.216023     5A    -11.214766     6A    -11.214636
       7A    -11.213932     8A    -11.212789     9A    -11.207541
      10A     -1.358780    11A     -1.096915    12A     -1.062663
      13A     -1.006556    14A     -0.943005    15A     -0.897501
      16A     -0.833203    17A     -0.797831    18A     -0.759396
      19A     -0.693271    20A     -0.652880    21A     -0.639752
      22A     -0.615591    23A     -0.607423    24A     -0.587185
      25A     -0.574528    26A     -0.557466    27A     -0.537027
      28A     -0.523772    29A     -0.515154    30A     -0.498239
      31A     -0.483196    32A     -0.476344    33A     -0.469786
      34A     -0.450213    35A     -0.444843    36A     -0.438755
      37A     -0.422514

  @DF-RHF Final Energy:  -388.26727021455008

   => Energetics <=

    Nuclear Repulsion Energy =            465.7389718311154638
    One-Electron Energy =               -1449.4900336989317111
    Two-Electron Energy =                 595.4837916532658255
    DFT Exchange-Correlation Energy =       0.0000000000000000
    Empirical Dispersion Energy =           0.0000000000000000
    PCM Polarization Energy =               0.0000000000000000
    EFP Energy =                            0.0000000000000000
    Total Energy =                       -388.2672702145504218

  Mulliken Charges: (a.u.)
   Center  Symbol    Alpha    Beta     Spin     Total
       1     H     0.27994  0.27994  0.00000  0.44012
       2     O     4.37097  4.37097  0.00000 -0.74194
       3     C     2.99733  2.99733  0.00000  0.00534
       4     C     3.16088  3.16088  0.00000 -0.32176
       5     H     0.41452  0.41452  0.00000  0.17095
       6     H     0.43215  0.43215  0.00000  0.13569
       7     C     3.16334  3.16334  0.00000 -0.32668
       8     H     0.41503  0.41503  0.00000  0.16994
       9     H     0.42444  0.42444  0.00000  0.15112
      10     C     3.14906  3.14906  0.00000 -0.29811
      11     H     0.42300  0.42300  0.00000  0.15401
      12     H     0.42589  0.42589  0.00000  0.14822
      13     C     3.16030  3.16030  0.00000 -0.32060
      14     H     0.42226  0.42226  0.00000  0.15548
      15     H     0.42214  0.42214  0.00000  0.15572
      16     C     3.15608  3.15608  0.00000 -0.31217
      17     H     0.41959  0.41959  0.00000  0.16082
      18     H     0.42180  0.42180  0.00000  0.15640
      19     C     3.15477  3.15477  0.00000 -0.30955
      20     H     0.42059  0.42059  0.00000  0.15882
      21     H     0.42141  0.42141  0.00000  0.15718
      22     C     3.24541  3.24541  0.00000 -0.49083
      23     H     0.42031  0.42031  0.00000  0.15938
      24     H     0.42019  0.42019  0.00000  0.15962
      25     H     0.42096  0.42096  0.00000  0.15808
      26     H     0.41799  0.41799  0.00000  0.16402
      27     H     0.41965  0.41965  0.00000  0.16070

   Total alpha = 37.00000, Total beta = 37.00000, Total charge = -0.00000
