  ==> Input File <==

--------------------------------------------------------------------------
set {
	reference rhf
	basis 6-31G*
}

set_num_threads( 4 )
memory 2 gb

molecule MOL {
0 1

H	 2.866480	 -0.465706	 0.876907
C	 2.405773	 -0.024801	 0.000000
N	 0.988830	 -0.304158	 0.000000
H	 2.866480	 -0.465706	 -0.876907
H	 2.629928	 1.045948	 0.000000
C	 0.190393	 0.885042	 0.232960
C	 0.631548	 -1.352567	 0.937633
H	 0.403597	 1.327919	 1.211174
H	 0.428550	 1.626063	 -0.523621
C	 -1.286598	 0.535319	 0.154330
H	 1.192738	 -2.250024	 0.697046
H	 0.876898	 -1.072743	 1.967197
C	 -0.857142	 -1.642951	 0.840316
H	 -1.897071	 1.390505	 0.413163
H	 -1.534738	 0.225503	 -0.859283
O	 -1.608939	 -0.482543	 1.059872
H	 -1.157851	 -2.358935	 1.593946
H	 -1.085076	 -2.055251	 -0.141022

	symmetry c1
}
set optking {
	frozen_dihedral = ("
		6 3 2 5
	")
}

ee = optimize('scf')
oeprop('DIPOLE', 'QUADRUPOLE', 'MULLIKEN_CHARGES')
f=open( 'psi4out.xyz', 'w' )
f.write( "18  " )
f.write( str(ee) + "\n" )
f.write( MOL.save_string_xyz() )
f.close()
--------------------------------------------------------------------------

    Molecular point group: c1
  Charge       = 0
  Multiplicity = 1
  Basis Set: 6-31G*
  Basis Set:
  @DF-RHF Final Energy:  -325.02213678212581
    Total Energy =                       -325.0221367821259264
    Molecular point group: c1
  Basis Set: 6-31G*
  Basis Set:
  Basis Set: 6-31G*
  Basis Set:
  @DF-RHF Final Energy:  -325.02307928666676
    Total Energy =                       -325.0230792866665297
  Basis Set: 6-31G*
  Basis Set:
  Basis Set: 6-31G*
  Basis Set:
  @DF-RHF Final Energy:  -325.02325128207303
    Total Energy =                       -325.0232512820731472
  Basis Set: 6-31G*
  Basis Set:
  Basis Set: 6-31G*
  Basis Set:
  @DF-RHF Final Energy:  -325.02326482812919
    Total Energy =                       -325.0232648281295269
  Basis Set: 6-31G*
  Basis Set:
  Charge       = 0
  Multiplicity = 1
  Basis Set: 6-31G*
  Basis Set:

    Orbital Energies (a.u.)
    -----------------------

    Doubly Occupied:

       1A    -20.553314     2A    -15.545053     3A    -11.265328
       4A    -11.265258     5A    -11.244050     6A    -11.243800
       7A    -11.240952     8A     -1.382557     9A     -1.227235
      10A     -1.038180    11A     -0.980271    12A     -0.882580
      13A     -0.869590    14A     -0.773025    15A     -0.682719
      16A     -0.643857    17A     -0.643034    18A     -0.631331
      19A     -0.626001    20A     -0.569755    21A     -0.557960
      22A     -0.547085    23A     -0.526738    24A     -0.499985
      25A     -0.484685    26A     -0.451742    27A     -0.407272
      28A     -0.344443

  @DF-RHF Final Energy:  -325.02326602309972

   => Energetics <=

    Nuclear Repulsion Energy =            340.9317446818636199
    One-Electron Energy =               -1117.6544208690847881
    Two-Electron Energy =                 451.6994101641212751
    DFT Exchange-Correlation Energy =       0.0000000000000000
    Empirical Dispersion Energy =           0.0000000000000000
    PCM Polarization Energy =               0.0000000000000000
    EFP Energy =                            0.0000000000000000
    Total Energy =                       -325.0232660230998931
    Molecular point group: c1
  Basis Set: 6-31G*
  Basis Set:

  -Total Gradient:
     Atom            X                  Y                   Z
    ------   -----------------  -----------------  -----------------
       1        0.000015398605     0.000003772600     0.000001887694
       2       -0.000167351818    -0.000026064850    -0.005523394940
       3        0.000223470318    -0.000427027597     0.004627781486
       4       -0.000040226879    -0.000002671876     0.000051566341
       5        0.000146529092     0.000169911740     0.003472246944
       6       -0.000157592751     0.000360339237    -0.002603031322
       7       -0.000014272273    -0.000011889777    -0.000049680999
       8        0.000024132044    -0.000008875968    -0.000001236749
       9       -0.000003399892    -0.000007399601    -0.000000281188
      10       -0.000020513184    -0.000050014082    -0.000039256564
      11       -0.000001782795     0.000002608089     0.000003669192
      12       -0.000010159207    -0.000004900001    -0.000007416486
      13       -0.000013769848    -0.000031458153     0.000066933125
      14        0.000000930344    -0.000010132202     0.000008132922
      15       -0.000001920816     0.000013697735    -0.000017565199
      16        0.000030416866     0.000030189296    -0.000002033861
      17       -0.000032716761    -0.000009354002     0.000003115966
      18        0.000022828958     0.000009269415     0.000008563635

  **** Optimization is complete! (in 5 steps) ****
    Final optimized geometry and variables:
    Molecular point group: c1

    Geometry (in Angstrom), charge = 0, multiplicity = 1:

    H            2.871128086804    -0.065031019954     0.396311363354
    C            2.355673399497     0.297450497197    -0.492767222431
    N            0.925996138359     0.054088232279    -0.423849726912
    H            2.795876425254    -0.190274568222    -1.356640700172
    H            2.561014316784     1.360292166882    -0.549166595959
    C            0.117629570596     1.238787118784    -0.215788244186
    C            0.559911690272    -1.018188883677     0.477587207336
    H            0.303667307569     1.698155523527     0.760650259835
    H            0.359542170029     1.971976369550    -0.977835006927
    C           -1.354222125667     0.873814921752    -0.320178513077
    H            1.123526663964    -1.908839834892     0.217483764667
    H            0.794981881259    -0.769496309066     1.517633874396
    C           -0.926918753622    -1.308464658978     0.355935555653
    H           -1.978517264214     1.721863955070    -0.070461805893
    H           -1.580508074244     0.563162480899    -1.338658235944
    O           -1.681851858903    -0.150232527248     0.576571702055
    H           -1.238919855717    -2.032975894156     1.096913342291
    H           -1.140510529119    -1.709072032623    -0.633378497731

  Mulliken Charges: (a.u.)
   Center  Symbol    Alpha    Beta     Spin     Total
       1     H     0.42619  0.42619  0.00000  0.14762
       2     C     3.13828  3.13828  0.00000 -0.27656
       3     N     3.79506  3.79506  0.00000 -0.59012
       4     H     0.41514  0.41514  0.00000  0.16972
       5     H     0.41946  0.41946  0.00000  0.16108
       6     C     3.06490  3.06490  0.00000 -0.12980
       7     C     3.06533  3.06533  0.00000 -0.13067
       8     H     0.42924  0.42924  0.00000  0.14152
       9     H     0.41683  0.41683  0.00000  0.16634
      10     C     2.99792  2.99792  0.00000  0.00415
      11     H     0.41675  0.41675  0.00000  0.16649
      12     H     0.42882  0.42882  0.00000  0.14236
      13     C     2.99768  2.99768  0.00000  0.00464
      14     H     0.41366  0.41366  0.00000  0.17269
      15     H     0.42446  0.42446  0.00000  0.15108
      16     O     4.31222  4.31222  0.00000 -0.62444
      17     H     0.41361  0.41361  0.00000  0.17278
      18     H     0.42445  0.42445  0.00000  0.15109

   Total alpha = 28.00000, Total beta = 28.00000, Total charge = -0.00000
