  ==> Input File <==

--------------------------------------------------------------------------
set {
	reference rhf
	basis 6-31G*
}

set_num_threads( 1 )
memory 2 gb

molecule MOL {
0 1

H	 -1.453691	 -0.333124	 -0.438706
N	 -0.626943	 -0.667432	 -0.000092
C	 -0.656325	 -1.980295	 0.603434
C	 0.469286	 0.129090	 0.000148
H	 -1.403361	 -2.030242	 1.388576
H	 0.313698	 -2.176658	 1.030312
H	 -0.876751	 -2.743260	 -0.135707
C	 1.788933	 -0.616240	 -0.000037
O	 0.411098	 1.327768	 -0.000049
H	 1.872803	 -1.245775	 -0.880381
H	 2.595421	 0.101576	 0.003713
H	 1.870096	 -1.252171	 0.875943

	symmetry c1
}
set optking {
	frozen_dihedral = ("
		4 2 3 5
	")
}

ee = energy('scf')
oeprop('DIPOLE', 'QUADRUPOLE', 'MULLIKEN_CHARGES')
f=open( 'psi4out.xyz', 'w' )
f.write( "12  " )
f.write( str(ee) + "\n" )
f.write( MOL.save_string_xyz() )
f.close()
--------------------------------------------------------------------------

    Molecular point group: c1

    Geometry (in Angstrom), charge = 0, multiplicity = 1:

       Center              X                  Y                   Z               Mass
    ------------   -----------------  -----------------  -----------------  -----------------
           H         -1.726919900028     0.042950771851    -0.563254954617     1.007825032070
           N         -0.900171900028    -0.291357228149    -0.124640954617    14.003074004780
           C         -0.929553900028    -1.604220228149     0.478885045383    12.000000000000
           C          0.196057099972     0.505164771851    -0.124400954617    12.000000000000
           H         -1.676589900028    -1.654167228149     1.264027045383     1.007825032070
           H          0.040469099972    -1.800583228149     0.905763045383     1.007825032070
           H         -1.149979900028    -2.367185228149    -0.260255954617     1.007825032070
           C          1.515704099972    -0.240165228149    -0.124585954617    12.000000000000
           O          0.137869099972     1.703842771851    -0.124597954617    15.994914619560
           H          1.599574099972    -0.869700228149    -1.004929954617     1.007825032070
           H          2.322192099972     0.477650771851    -0.120835954617     1.007825032070
           H          1.596867099972    -0.876096228149     0.751394045383     1.007825032070

  Charge       = 0
  Multiplicity = 1
  Basis Set: 6-31G*
  Basis Set:

    Orbital Energies (a.u.)
    -----------------------

    Doubly Occupied:

       1A    -20.520682     2A    -15.574269     3A    -11.344232
       4A    -11.267891     5A    -11.227895     6A     -1.384818
       7A     -1.231449     8A     -1.004099     9A     -0.954868
      10A     -0.788434    11A     -0.676156    12A     -0.663595
      13A     -0.639145    14A     -0.595493    15A     -0.576625
      16A     -0.568180    17A     -0.552585    18A     -0.501081
      19A     -0.413423    20A     -0.380931

  @DF-RHF Final Energy:  -246.98775317513841

   => Energetics <=

    Nuclear Repulsion Energy =            182.1539667304625993
    One-Electron Energy =                -696.5517514122647071
    Two-Electron Energy =                 267.4100315066634721
    DFT Exchange-Correlation Energy =       0.0000000000000000
    Empirical Dispersion Energy =           0.0000000000000000
    PCM Polarization Energy =               0.0000000000000000
    EFP Energy =                            0.0000000000000000
    Total Energy =                       -246.9877531751386641

  Mulliken Charges: (a.u.)
   Center  Symbol    Alpha    Beta     Spin     Total
       1     H     0.30541  0.30541  0.00000  0.38917
       2     N     3.88866  3.88866  0.00000 -0.77731
       3     C     3.13795  3.13795  0.00000 -0.27590
       4     C     2.63748  2.63748  0.00000  0.72505
       5     H     0.40898  0.40898  0.00000  0.18203
       6     H     0.41207  0.41207  0.00000  0.17586
       7     H     0.41525  0.41525  0.00000  0.16951
       8     C     3.29797  3.29797  0.00000 -0.59593
       9     O     4.28984  4.28984  0.00000 -0.57968
      10     H     0.40446  0.40446  0.00000  0.19108
      11     H     0.39303  0.39303  0.00000  0.21394
      12     H     0.40891  0.40891  0.00000  0.18217

   Total alpha = 20.00000, Total beta = 20.00000, Total charge =  0.00000
