  ==> Input File <==

--------------------------------------------------------------------------
set {
	reference rhf
	basis 6-31G*
}

set_num_threads( 1 )
memory 2 gb

molecule MOL {
0 1

H	 -4.203148	 -0.270057	 0.880558
O	 -3.497019	 -0.509843	 0.297644
C	 -2.285512	 0.006169	 0.786084
C	 -1.177863	 -0.397191	 -0.171080
H	 -2.334794	 1.091486	 0.863316
H	 -2.077383	 -0.382436	 1.782080
C	 0.198102	 0.111031	 0.262842
H	 -1.423588	 -0.015869	 -1.158471
H	 -1.170322	 -1.480934	 -0.248023
C	 1.331804	 -0.827780	 -0.158768
H	 0.361943	 1.100838	 -0.156218
H	 0.217265	 0.229072	 1.345532
C	 2.723619	 -0.410569	 0.329459
H	 1.342964	 -0.912588	 -1.244120
H	 1.116806	 -1.824343	 0.220779
C	 3.243875	 0.895854	 -0.272975
H	 3.424222	 -1.207124	 0.091250
H	 2.714788	 -0.329854	 1.414619
H	 3.251977	 0.848779	 -1.358681
H	 2.637085	 1.747371	 0.016682
H	 4.259473	 1.094070	 0.055697

	symmetry c1
}
set optking {
	frozen_dihedral = ("
		2 3 4 8,
		4 7 10 14,
		16 13 10 14,
		1 2 3 5
	")
}

ee = energy('scf')
oeprop('DIPOLE', 'QUADRUPOLE', 'MULLIKEN_CHARGES')
f=open( 'psi4out.xyz', 'w' )
f.write( "21  " )
f.write( str(ee) + "\n" )
f.write( MOL.save_string_xyz() )
f.close()
--------------------------------------------------------------------------

    Molecular point group: c1

    Geometry (in Angstrom), charge = 0, multiplicity = 1:

       Center              X                  Y                   Z               Mass
    ------------   -----------------  -----------------  -----------------  -----------------
           H         -4.209558941094    -0.113954576491     0.718056428093     1.007825032070
           O         -3.503429941094    -0.353740576491     0.135142428093    15.994914619560
           C         -2.291922941094     0.162271423509     0.623582428093    12.000000000000
           C         -1.184273941094    -0.241088576491    -0.333581571907    12.000000000000
           H         -2.341204941094     1.247588423509     0.700814428093     1.007825032070
           H         -2.083793941094    -0.226333576491     1.619578428093     1.007825032070
           C          0.191691058906     0.267133423509     0.100340428093    12.000000000000
           H         -1.429998941094     0.140233423509    -1.320972571907     1.007825032070
           H         -1.176732941094    -1.324831576491    -0.410524571907     1.007825032070
           C          1.325393058906    -0.671677576491    -0.321269571907    12.000000000000
           H          0.355532058906     1.256940423509    -0.318719571907     1.007825032070
           H          0.210854058906     0.385174423509     1.183030428093     1.007825032070
           C          2.717208058906    -0.254466576491     0.166957428093    12.000000000000
           H          1.336553058906    -0.756485576491    -1.406621571907     1.007825032070
           H          1.110395058906    -1.668240576491     0.058277428093     1.007825032070
           C          3.237464058906     1.051956423509    -0.435476571907    12.000000000000
           H          3.417811058906    -1.051021576491    -0.071251571907     1.007825032070
           H          2.708377058906    -0.173751576491     1.252117428093     1.007825032070
           H          3.245566058906     1.004881423509    -1.521182571907     1.007825032070
           H          2.630674058906     1.903473423509    -0.145819571907     1.007825032070
           H          4.253062058906     1.250172423509    -0.106804571907     1.007825032070

  Charge       = 0
  Multiplicity = 1
  Basis Set: 6-31G*
  Basis Set:

    Orbital Energies (a.u.)
    -----------------------

    Doubly Occupied:

       1A    -20.551763     2A    -11.267398     3A    -11.215094
       4A    -11.214943     5A    -11.213702     6A    -11.209765
       7A    -11.208034     8A     -1.358640     9A     -1.086315
      10A     -1.033052    11A     -0.954020    12A     -0.876089
      13A     -0.807176    14A     -0.779357    15A     -0.692759
      16A     -0.659794    17A     -0.621015    18A     -0.608385
      19A     -0.590942    20A     -0.560253    21A     -0.545530
      22A     -0.517373    23A     -0.506642    24A     -0.492798
      25A     -0.476433    26A     -0.458546    27A     -0.455894
      28A     -0.444100    29A     -0.432837

  @DF-RHF Final Energy:  -310.21008363386818

   => Energetics <=

    Nuclear Repulsion Energy =            312.6279161517412604
    One-Electron Energy =               -1039.9988469395902939
    Two-Electron Energy =                 417.1608471539809671
    DFT Exchange-Correlation Energy =       0.0000000000000000
    Empirical Dispersion Energy =           0.0000000000000000
    PCM Polarization Energy =               0.0000000000000000
    EFP Energy =                            0.0000000000000000
    Total Energy =                       -310.2100836338680665

  Mulliken Charges: (a.u.)
   Center  Symbol    Alpha    Beta     Spin     Total
       1     H     0.28124  0.28124  0.00000  0.43752
       2     O     4.37171  4.37171  0.00000 -0.74342
       3     C     2.99200  2.99200  0.00000  0.01601
       4     C     3.15936  3.15936  0.00000 -0.31872
       5     H     0.43274  0.43274  0.00000  0.13451
       6     H     0.43254  0.43254  0.00000  0.13491
       7     C     3.16302  3.16302  0.00000 -0.32604
       8     H     0.41333  0.41333  0.00000  0.17334
       9     H     0.41392  0.41392  0.00000  0.17215
      10     C     3.15319  3.15319  0.00000 -0.30639
      11     H     0.41826  0.41826  0.00000  0.16349
      12     H     0.42495  0.42495  0.00000  0.15011
      13     C     3.15275  3.15275  0.00000 -0.30550
      14     H     0.42251  0.42251  0.00000  0.15497
      15     H     0.42105  0.42105  0.00000  0.15790
      16     C     3.24119  3.24119  0.00000 -0.48238
      17     H     0.42076  0.42076  0.00000  0.15849
      18     H     0.42376  0.42376  0.00000  0.15248
      19     H     0.42189  0.42189  0.00000  0.15622
      20     H     0.42050  0.42050  0.00000  0.15899
      21     H     0.41932  0.41932  0.00000  0.16136

   Total alpha = 29.00000, Total beta = 29.00000, Total charge = -0.00000
