  ==> Input File <==

--------------------------------------------------------------------------
set {
	reference rhf
	basis 6-31G*
}

set_num_threads( 4 )
memory 2 gb

molecule MOL {
0 1

H	 -3.135461	 -1.215070	 0.001379
O	 -2.310168	 -0.871793	 -0.309793
C	 -2.026376	 0.340750	 0.341611
C	 -0.673256	 0.843270	 -0.132153
H	 -2.792215	 1.080697	 0.115987
H	 -2.013526	 0.200402	 1.421792
C	 0.486613	 -0.083066	 0.235839
H	 -0.715586	 0.970948	 -1.210718
H	 -0.508072	 1.829858	 0.297090
C	 1.845169	 0.453966	 -0.217745
H	 0.315038	 -1.059899	 -0.204471
H	 0.500862	 -0.228002	 1.315483
C	 3.004869	 -0.468915	 0.155159
H	 1.832597	 0.598420	 -1.296027
H	 2.011817	 1.436604	 0.219401
H	 2.884665	 -1.449684	 -0.295988
H	 3.954719	 -0.064095	 -0.180773
H	 3.066074	 -0.606567	 1.231178

	symmetry c1
}
set optking {
	frozen_dihedral = ("
		10 7 4 8
	")
}

ee = optimize('scf')
oeprop('DIPOLE', 'QUADRUPOLE', 'MULLIKEN_CHARGES')
f=open( 'psi4out.xyz', 'w' )
f.write( "18  " )
f.write( str(ee) + "\n" )
f.write( MOL.save_string_xyz() )
f.close()
--------------------------------------------------------------------------

    Molecular point group: c1
  Charge       = 0
  Multiplicity = 1
  Basis Set: 6-31G*
  Basis Set:
  @DF-RHF Final Energy:  -271.17994507882270
    Total Energy =                       -271.1799450788229251
    Molecular point group: c1
  Basis Set: 6-31G*
  Basis Set:
  Charge       = 0
  Multiplicity = 1
  Basis Set: 6-31G*
  Basis Set:

    Orbital Energies (a.u.)
    -----------------------

    Doubly Occupied:

       1A    -20.553063     2A    -11.268004     3A    -11.211985
       4A    -11.210714     5A    -11.206357     6A    -11.204498
       7A     -1.359769     8A     -1.074721     9A     -1.008723
      10A     -0.913036    11A     -0.817602    12A     -0.783682
      13A     -0.704960    14A     -0.642196    15A     -0.625174
      16A     -0.578931    17A     -0.570857    18A     -0.558335
      19A     -0.522209    20A     -0.500872    21A     -0.487833
      22A     -0.467265    23A     -0.458221    24A     -0.447961
      25A     -0.428734

  @DF-RHF Final Energy:  -271.17994429197682

   => Energetics <=

    Nuclear Repulsion Energy =            249.0649387410697386
    One-Electron Energy =                -861.2783596566534925
    Two-Electron Energy =                 341.0334766236068731
    DFT Exchange-Correlation Energy =       0.0000000000000000
    Empirical Dispersion Energy =           0.0000000000000000
    PCM Polarization Energy =               0.0000000000000000
    EFP Energy =                            0.0000000000000000
    Total Energy =                       -271.1799442919769376
    Molecular point group: c1
  Basis Set: 6-31G*
  Basis Set:

  -Total Gradient:
     Atom            X                  Y                   Z
    ------   -----------------  -----------------  -----------------
       1        0.000000054498    -0.000014638301     0.000003638916
       2        0.000032696717    -0.000038194793     0.000020010412
       3        0.000012827759     0.000047333593    -0.000161272602
       4        0.000245597585     0.000380157356     0.000247055036
       5       -0.000003205748     0.000007297163     0.000003689400
       6        0.000036555030     0.000015709153    -0.000019628240
       7       -0.000104274270    -0.000256011394    -0.000376470712
       8       -0.000259172736    -0.000286919710    -0.000006352639
       9        0.000001261071     0.000046134397     0.000021891656
      10        0.000037827391     0.000158502755     0.000294210192
      11        0.000022757427    -0.000102907283     0.000040682819
      12       -0.000014600254     0.000068307447    -0.000036257547
      13       -0.000009875881    -0.000032028946    -0.000057834890
      14       -0.000035835529     0.000025618603     0.000021401123
      15        0.000040299650    -0.000004590617     0.000028771689
      16        0.000009879719    -0.000025486873     0.000008422185
      17       -0.000005678960    -0.000010537234    -0.000017811118
      18       -0.000007113465     0.000022254685    -0.000014145682

  **** Optimization is complete! (in 2 steps) ****
    Final optimized geometry and variables:
    Molecular point group: c1

    Geometry (in Angstrom), charge = 0, multiplicity = 1:

    H           -3.129433426353    -1.229696735597    -0.008356140119
    O           -2.303819821742    -0.885358887330    -0.317562954976
    C           -2.029911804726     0.334768387836     0.323860715614
    C           -0.676142658062     0.838882513481    -0.146102180220
    H           -2.797762812941     1.068955649671     0.086438322438
    H           -2.023039306983     0.204800574744     1.405363871947
    C            0.483800197633    -0.084258595009     0.229701163246
    H           -0.715780050019     0.959963421344    -1.225501866068
    H           -0.515167316976     1.827777711701     0.279373432152
    C            1.842852796440     0.451450478119    -0.224044518245
    H            0.313517523130    -1.064650194924    -0.203207056422
    H            0.496759618299    -0.221276921308     1.310409814426
    C            3.000007531757    -0.480082603645     0.134963838893
    H            1.826825938699     0.606586519025    -1.300800863241
    H            2.015359506137     1.429025178412     0.222090833087
    H            2.873006050763    -1.456408237617    -0.323974661362
    H            3.950058474167    -0.076807936486    -0.202184049833
    H            3.065840773896    -0.627270744998     1.209418469074

  Mulliken Charges: (a.u.)
   Center  Symbol    Alpha    Beta     Spin     Total
       1     H     0.28056  0.28056  0.00000  0.43888
       2     O     4.36968  4.36968  0.00000 -0.73935
       3     C     2.99731  2.99731  0.00000  0.00537
       4     C     3.16032  3.16032  0.00000 -0.32064
       5     H     0.42928  0.42928  0.00000  0.14145
       6     H     0.43263  0.43263  0.00000  0.13474
       7     C     3.15277  3.15277  0.00000 -0.30553
       8     H     0.41512  0.41512  0.00000  0.16975
       9     H     0.42414  0.42414  0.00000  0.15172
      10     C     3.15180  3.15180  0.00000 -0.30359
      11     H     0.40796  0.40796  0.00000  0.18408
      12     H     0.42770  0.42770  0.00000  0.14460
      13     C     3.23889  3.23889  0.00000 -0.47779
      14     H     0.42265  0.42265  0.00000  0.15470
      15     H     0.42529  0.42529  0.00000  0.14942
      16     H     0.42086  0.42086  0.00000  0.15827
      17     H     0.42038  0.42038  0.00000  0.15923
      18     H     0.42267  0.42267  0.00000  0.15466

   Total alpha = 25.00000, Total beta = 25.00000, Total charge =  0.00000
