                              Psi4 1.0.54 Driver

  ==> Input File <==

--------------------------------------------------------------------------
set {
	reference rhf
	basis cc-pvtz
}

set_num_threads( 4 )
memory 2 gb

molecule MOL {
0 1

H	 1.830346	 -1.485262	 1.035497
C	 0.987200	 -0.849358	 1.246595
O	 0.462329	 -0.453336	 -0.000137
H	 1.321923	 0.006899	 1.818437
H	 0.255824	 -1.406582	 1.818283
C	 -0.590565	 0.341382	 0.000062
O	 -1.693898	 -0.053880	 0.000252
H	 -0.340426	 1.403822	 0.000200

	symmetry c1
}
set optking {
	frozen_dihedral = ("
		2 3 6 7
	")
}

ee,wfn = optimize('scf', return_wfn=True)
oeprop( wfn, 'DIPOLE', 'QUADRUPOLE', 'MULLIKEN_CHARGES')
f=open( 'psi4out.xyz', 'w' )
f.write( "8  " )
f.write( str(ee) + "\n" )
f.write( MOL.save_string_xyz() )
f.close()
--------------------------------------------------------------------------

    Molecular point group: c1
  Charge       = 0
  Multiplicity = 1
  Basis Set: CC-PVTZ
  Basis Set:
  @DF-RHF Final Energy:  -227.85879928677267
    Total Energy =                       -227.8587992867726655
    Molecular point group: c1
  Basis Set: CC-PVTZ
  Basis Set:
  Basis Set: CC-PVTZ
  Basis Set:
  @DF-RHF Final Energy:  -227.85774734388929
    Total Energy =                       -227.8577473438892298
  Basis Set: CC-PVTZ
  Basis Set:
  Basis Set: CC-PVTZ
  Basis Set:
  @DF-RHF Final Energy:  -227.85880565507540
    Total Energy =                       -227.8588056550754857
  Basis Set: CC-PVTZ
  Basis Set:
  Basis Set: CC-PVTZ
  Basis Set:
  @DF-RHF Final Energy:  -227.85930561989065
    Total Energy =                       -227.8593056198906481
  Basis Set: CC-PVTZ
  Basis Set:
  Basis Set: CC-PVTZ
  Basis Set:
  @DF-RHF Final Energy:  -227.85932087657773
    Total Energy =                       -227.8593208765777831
  Basis Set: CC-PVTZ
  Basis Set:
  Charge       = 0
  Multiplicity = 1
  Basis Set: CC-PVTZ
  Basis Set:

    Orbital Energies (a.u.)
    -----------------------

    Doubly Occupied:

       1A    -20.589739     2A    -20.563477     3A    -11.376415
       4A    -11.296879     5A     -1.473156     6A     -1.384895
       7A     -0.986586     8A     -0.834872     9A     -0.740758
      10A     -0.690849    11A     -0.668574    12A     -0.628384
      13A     -0.564377    14A     -0.514989    15A     -0.476270
      16A     -0.460798

  @DF-RHF Final Energy:  -227.85932225129241

   => Energetics <=

    Nuclear Repulsion Energy =            122.0650349294821524
    One-Electron Energy =                -553.3466849999238093
    Two-Electron Energy =                 203.4223278191492739
    DFT Exchange-Correlation Energy =       0.0000000000000000
    Empirical Dispersion Energy =           0.0000000000000000
    PCM Polarization Energy =               0.0000000000000000
    EFP Energy =                            0.0000000000000000
    Total Energy =                       -227.8593222512923546
    Molecular point group: c1
  Basis Set: CC-PVTZ
  Basis Set:

  -Total Gradient:
     Atom            X                  Y                   Z
    ------   -----------------  -----------------  -----------------
       1       -0.000009150709     0.000013340474    -0.000019527400
       2        0.000340023817     0.000416179793     0.000033512693
       3       -0.000504144505    -0.000620429886    -0.000351125062
       4       -0.000001007075     0.000000205714    -0.000006880334
       5        0.000002357834     0.000005440816     0.000000236292
       6        0.000210889532     0.000197736792     0.001070338163
       7       -0.000037934760     0.000001318875    -0.000726444386
       8       -0.000001034135    -0.000013792578    -0.000000109969

  **** Optimization is complete! (in 6 steps) ****
    Final optimized geometry and variables:
    Molecular point group: c1

    Geometry (in Angstrom), charge = 0, multiplicity = 1:

    H            2.045558406613    -1.208101671454     0.725239145130
    C            1.184249454998    -0.590567433184     0.917917803488
    O            0.670825033606    -0.207467141187    -0.341996924098
    H            1.488686716334     0.277423389171     1.492821077262
    H            0.446242974498    -1.154703950832     1.472294151624
    C           -0.395866737371     0.600772067015    -0.324929881900
    O           -1.505001048759     0.226851337397    -0.312930626015
    H           -0.128647346301     1.656236145692    -0.356784478368

  Mulliken Charges: (a.u.)
   Center  Symbol    Alpha    Beta     Spin     Total
       1     H     0.44398  0.44398  0.00000  0.11204
       2     C     3.02223  3.02223  0.00000 -0.04446
       3     O     4.15495  4.15495  0.00000 -0.30990
       4     H     0.46663  0.46663  0.00000  0.06674
       5     H     0.45421  0.45421  0.00000  0.09159
       6     C     2.83085  2.83085  0.00000  0.33829
       7     O     4.16210  4.16210  0.00000 -0.32419
       8     H     0.46505  0.46505  0.00000  0.06989

   Total alpha = 16.00000, Total beta = 16.00000, Total charge =  0.00000

*** Psi4 exiting successfully. Buy a developer a beer!
