  ==> Input File <==

--------------------------------------------------------------------------
set {
	reference rhf
	basis 6-31G*
}

set_num_threads( 4 )
memory 2 gb

molecule MOL {
0 1

H	 -3.420663	 1.227371	 -1.044276
O	 -3.452007	 0.283848	 -0.965577
C	 -3.181085	 -0.079926	 0.364119
C	 -1.765924	 0.277073	 0.805136
H	 -3.327791	 -1.152017	 0.410903
H	 -3.905698	 0.375695	 1.036898
C	 -0.677594	 -0.417312	 -0.014550
H	 -1.637766	 1.358238	 0.744969
H	 -1.659588	 0.017670	 1.857098
C	 0.738335	 -0.034840	 0.421385
H	 -0.814977	 -0.178223	 -1.064632
H	 -0.802730	 -1.495410	 0.071702
C	 1.274242	 -0.926126	 1.544994
H	 1.399493	 -0.085558	 -0.440425
H	 0.747432	 1.002895	 0.752486
C	 2.655244	 -0.526700	 2.077392
H	 1.307987	 -1.958390	 1.200046
H	 0.567137	 -0.906557	 2.371696
C	 3.795073	 -0.682925	 1.069033
H	 2.876960	 -1.135864	 2.950348
H	 2.621567	 0.503058	 2.427633
H	 3.845119	 -1.700880	 0.691671
H	 4.751393	 -0.455129	 1.529901
H	 3.678767	 -0.019961	 0.218083

	symmetry c1
}
set optking {
	frozen_dihedral = ("
		13 10 7 11
	")
}

ee = optimize('scf')
oeprop('DIPOLE', 'QUADRUPOLE', 'MULLIKEN_CHARGES')
f=open( 'psi4out.xyz', 'w' )
f.write( "24  " )
f.write( str(ee) + "\n" )
f.write( MOL.save_string_xyz() )
f.close()
--------------------------------------------------------------------------

    Molecular point group: c1
  Charge       = 0
  Multiplicity = 1
  Basis Set: 6-31G*
  Basis Set:
  @DF-RHF Final Energy:  -349.24447241094538
    Total Energy =                       -349.2444724109450362
    Molecular point group: c1
  Basis Set: 6-31G*
  Basis Set:
  Basis Set: 6-31G*
  Basis Set:
  @DF-RHF Final Energy:  -349.24467691906676
    Total Energy =                       -349.2446769190667055
  Basis Set: 6-31G*
  Basis Set:
  Basis Set: 6-31G*
  Basis Set:
  @DF-RHF Final Energy:  -349.24469943358679
    Total Energy =                       -349.2446994335873001
  Basis Set: 6-31G*
  Basis Set:
  Basis Set: 6-31G*
  Basis Set:
  @DF-RHF Final Energy:  -349.24473401208792
    Total Energy =                       -349.2447340120876333
  Basis Set: 6-31G*
  Basis Set:
  Basis Set: 6-31G*
  Basis Set:
  @DF-RHF Final Energy:  -349.24473653736584
    Total Energy =                       -349.2447365373658954
  Basis Set: 6-31G*
  Basis Set:
  Basis Set: 6-31G*
  Basis Set:
  @DF-RHF Final Energy:  -349.24473792545035
    Total Energy =                       -349.2447379254505222
  Basis Set: 6-31G*
  Basis Set:
  Charge       = 0
  Multiplicity = 1
  Basis Set: 6-31G*
  Basis Set:

    Orbital Energies (a.u.)
    -----------------------

    Doubly Occupied:

       1A    -20.553501     2A    -11.267654     3A    -11.217602
       4A    -11.214726     5A    -11.212958     6A    -11.212203
       7A    -11.211146     8A    -11.207493     9A     -1.360098
      10A     -1.088456    11A     -1.047379    12A     -0.984504
      13A     -0.915674    14A     -0.853045    15A     -0.803498
      16A     -0.773955    17A     -0.679707    18A     -0.644921
      19A     -0.627899    20A     -0.619334    21A     -0.594652
      22A     -0.586577    23A     -0.565843    24A     -0.537838
      25A     -0.519588    26A     -0.509312    27A     -0.493137
      28A     -0.483669    29A     -0.466461    30A     -0.457863
      31A     -0.456997    32A     -0.438147    33A     -0.423078

  @DF-RHF Final Energy:  -349.24473830566041

   => Energetics <=

    Nuclear Repulsion Energy =            386.4188595209001846
    One-Electron Energy =               -1239.2693675917421388
    Two-Electron Energy =                 503.6057697651816625
    DFT Exchange-Correlation Energy =       0.0000000000000000
    Empirical Dispersion Energy =           0.0000000000000000
    PCM Polarization Energy =               0.0000000000000000
    EFP Energy =                            0.0000000000000000
    Total Energy =                       -349.2447383056602348
    Molecular point group: c1
  Basis Set: 6-31G*
  Basis Set:

  -Total Gradient:
     Atom            X                  Y                   Z
    ------   -----------------  -----------------  -----------------
       1       -0.000000972997     0.000002636122    -0.000003951976
       2       -0.000003450014     0.000013686631     0.000004761017
       3        0.000003212550    -0.000023091309     0.000000458220
       4       -0.000004377991     0.000013457655    -0.000003067833
       5       -0.000000842077    -0.000004049641     0.000004844289
       6        0.000004966459     0.000000418050    -0.000002485006
       7       -0.000772042908     0.002786461792     0.000315139071
       8       -0.000000610588     0.000001240113    -0.000001492656
       9       -0.000004693294     0.000002069066     0.000002350733
      10       -0.000846768304     0.001241261305     0.001832690927
      11        0.000858787856    -0.002688609333    -0.000719310236
      12       -0.000006957621     0.000005728392    -0.000001577264
      13        0.000766172310    -0.001355445911    -0.001429066628
      14        0.000001880071     0.000002501808     0.000000781452
      15        0.000008208064    -0.000000367158     0.000000328511
      16        0.000002206009     0.000000463561    -0.000001463834
      17        0.000002274183    -0.000004417261     0.000003331107
      18       -0.000003425356     0.000003449999    -0.000005261146
      19       -0.000004690720    -0.000005715424     0.000004375654
      20        0.000006037085     0.000002228901    -0.000002688744
      21       -0.000002670298     0.000002864472     0.000001916263
      22       -0.000002896526     0.000003087072    -0.000002748925
      23        0.000000600997    -0.000002605026     0.000002121132
      24        0.000000053117     0.000002746124     0.000000015872

  **** Optimization is complete! (in 7 steps) ****
    Final optimized geometry and variables:
    Molecular point group: c1

    Geometry (in Angstrom), charge = 0, multiplicity = 1:

    H           -3.312912178841     1.437686748246    -1.695314552995
    O           -3.341979117825     0.497043151980    -1.587061891797
    C           -3.052774245430     0.174825134988    -0.250524434446
    C           -1.635166163683     0.554144986251     0.162798145402
    H           -3.191322401355    -0.896268546645    -0.170333648751
    H           -3.772526667212     0.645385217495     0.417174823638
    C           -0.552622887766    -0.143121916631    -0.662963975262
    H           -1.517565172718     1.634782192151     0.078145737207
    H           -1.514830912029     0.318507450085     1.218393831135
    C            0.881617668534     0.200492489341    -0.227262001991
    H           -0.689391463141     0.094112109829    -1.712196833884
    H           -0.695452486315    -1.220487201282    -0.592546766210
    C            1.406679885626    -0.695218865476     0.900033607410
    H            1.539410785708     0.106758230520    -1.086224455324
    H            0.933158435703     1.244199602441     0.079109599693
    C            2.779368698285    -0.292964363438     1.451198139972
    H            1.450798173476    -1.722387881878     0.542075155559
    H            0.694341827876    -0.692451380158     1.722628984102
    C            3.927370067366    -0.412193226057     0.447001434646
    H            3.002376812627    -0.919654295617     2.311355671095
    H            2.731338228120     0.728000584279     1.824795864337
    H            3.988888982286    -1.418981267358     0.042422615964
    H            4.878367885000    -0.189017885418     0.920927705463
    H            3.811086883587     0.272599418207    -0.386362825599

  Mulliken Charges: (a.u.)
   Center  Symbol    Alpha    Beta     Spin     Total
       1     H     0.28337  0.28337  0.00000  0.43327
       2     O     4.36830  4.36830  0.00000 -0.73660
       3     C     2.99611  2.99611  0.00000  0.00778
       4     C     3.16998  3.16998  0.00000 -0.33996
       5     H     0.41618  0.41618  0.00000  0.16764
       6     H     0.42821  0.42821  0.00000  0.14357
       7     C     3.15497  3.15497  0.00000 -0.30993
       8     H     0.42799  0.42799  0.00000  0.14402
       9     H     0.42155  0.42155  0.00000  0.15689
      10     C     3.15676  3.15676  0.00000 -0.31353
      11     H     0.41017  0.41017  0.00000  0.17965
      12     H     0.42282  0.42282  0.00000  0.15437
      13     C     3.15348  3.15348  0.00000 -0.30695
      14     H     0.41842  0.41842  0.00000  0.16315
      15     H     0.42493  0.42493  0.00000  0.15013
      16     C     3.15211  3.15211  0.00000 -0.30422
      17     H     0.42331  0.42331  0.00000  0.15339
      18     H     0.42328  0.42328  0.00000  0.15344
      19     C     3.24133  3.24133  0.00000 -0.48267
      20     H     0.42141  0.42141  0.00000  0.15719
      21     H     0.42385  0.42385  0.00000  0.15231
      22     H     0.42211  0.42211  0.00000  0.15579
      23     H     0.41950  0.41950  0.00000  0.16099
      24     H     0.41985  0.41985  0.00000  0.16030

   Total alpha = 33.00000, Total beta = 33.00000, Total charge = -0.00000
