  ==> Input File <==

--------------------------------------------------------------------------
set {
	reference rhf
	basis 6-31G*
}

set_num_threads( 4 )
memory 2 gb

molecule MOL {
0 1

H	 -0.628205	 1.406961	 -0.810801
O	 0.055946	 1.300438	 -0.164479
C	 0.004957	 -0.004114	 0.366649
C	 1.201664	 -0.828089	 -0.095740
C	 -1.317755	 -0.601827	 -0.081511
H	 0.013527	 0.048298	 1.454924
H	 1.216388	 -0.895289	 -1.178704
H	 2.135132	 -0.372895	 0.226467
H	 1.166770	 -1.832878	 0.313827
H	 -1.355732	 -0.658248	 -1.164429
H	 -2.141614	 0.017037	 0.254547
H	 -1.447303	 -1.600817	 0.322594

	symmetry c1
}
set optking {
	frozen_dihedral = ("
		1 2 3 4
	")
}

ee = optimize('scf')
oeprop('DIPOLE', 'QUADRUPOLE', 'MULLIKEN_CHARGES')
f=open( 'psi4out.xyz', 'w' )
f.write( "12  " )
f.write( str(ee) + "\n" )
f.write( MOL.save_string_xyz() )
f.close()
--------------------------------------------------------------------------

    Molecular point group: c1
  Charge       = 0
  Multiplicity = 1
  Basis Set: 6-31G*
  Basis Set:
  @DF-RHF Final Energy:  -193.11092695134334
    Total Energy =                       -193.1109269513432594
    Molecular point group: c1
  Basis Set: 6-31G*
  Basis Set:
  Basis Set: 6-31G*
  Basis Set:
  @DF-RHF Final Energy:  -193.11248648778903
    Total Energy =                       -193.1124864877889991
  Basis Set: 6-31G*
  Basis Set:
  Basis Set: 6-31G*
  Basis Set:
  @DF-RHF Final Energy:  -193.11293901234012
    Total Energy =                       -193.1129390123400356
  Basis Set: 6-31G*
  Basis Set:
  Basis Set: 6-31G*
  Basis Set:
  @DF-RHF Final Energy:  -193.11294419339393
    Total Energy =                       -193.1129441933937869
  Basis Set: 6-31G*
  Basis Set:
  Charge       = 0
  Multiplicity = 1
  Basis Set: 6-31G*
  Basis Set:

    Orbital Energies (a.u.)
    -----------------------

    Doubly Occupied:

       1A    -20.548789     2A    -11.275425     3A    -11.220381
       4A    -11.206480     5A     -1.358240     6A     -1.042662
       7A     -0.943112     8A     -0.814230     9A     -0.663371
      10A     -0.649431    11A     -0.606230    12A     -0.559827
      13A     -0.546521    14A     -0.515963    15A     -0.513920
      16A     -0.466109    17A     -0.427506

  @DF-RHF Final Energy:  -193.11294482081172

   => Energetics <=

    Nuclear Repulsion Energy =            135.3701709665016324
    One-Electron Energy =                -530.2498381746215728
    Two-Electron Energy =                 201.7667223873081923
    DFT Exchange-Correlation Energy =       0.0000000000000000
    Empirical Dispersion Energy =           0.0000000000000000
    PCM Polarization Energy =               0.0000000000000000
    EFP Energy =                            0.0000000000000000
    Total Energy =                       -193.1129448208117481
    Molecular point group: c1
  Basis Set: 6-31G*
  Basis Set:

  -Total Gradient:
     Atom            X                  Y                   Z
    ------   -----------------  -----------------  -----------------
       1       -0.000806708228     0.000337008583     0.000867799375
       2        0.001154339882    -0.000418237643    -0.000806757025
       3       -0.000738475085    -0.000117936262    -0.000759284130
       4        0.000373380818     0.000212784852     0.000670192497
       5       -0.000024898582     0.000039371467    -0.000015543089
       6        0.000009601717    -0.000042903405    -0.000004077353
       7       -0.000032594991     0.000010385194     0.000021716245
       8        0.000037895411    -0.000003723690    -0.000012310189
       9        0.000011185884     0.000008364253     0.000004384039
      10        0.000011724556     0.000021869927     0.000038237623
      11        0.000011711504    -0.000009629396    -0.000025997767
      12       -0.000007162886    -0.000037353882     0.000021639775

  **** Optimization is complete! (in 5 steps) ****
    Final optimized geometry and variables:
    Molecular point group: c1

    Geometry (in Angstrom), charge = 0, multiplicity = 1:

    H           -0.507468279978     1.490653478035    -0.792190085251
    O            0.132102558885     1.322909297897    -0.115858101277
    C            0.005978714383    -0.001119304819     0.359623264644
    C            1.210246750384    -0.816551692145    -0.092122034238
    C           -1.316854512555    -0.623157885477    -0.070127309334
    H            0.019585822234     0.063367214028     1.443079717289
    H            1.223159649966    -0.912564800586    -1.174112675316
    H            2.126742140118    -0.324295281195     0.212250448393
    H            1.194056101420    -1.812726808468     0.340724426598
    H           -1.369316724230    -0.706447126469    -1.153691346859
    H           -2.153057841588    -0.018815337337     0.268446856170
    H           -1.432091509292    -1.618999241530     0.344147337547

  Mulliken Charges: (a.u.)
   Center  Symbol    Alpha    Beta     Spin     Total
       1     H     0.28037  0.28037  0.00000  0.43927
       2     O     4.37866  4.37866  0.00000 -0.75732
       3     C     2.90624  2.90624  0.00000  0.18752
       4     C     3.23896  3.23896  0.00000 -0.47792
       5     C     3.26556  3.26556  0.00000 -0.53113
       6     H     0.42103  0.42103  0.00000  0.15795
       7     H     0.42338  0.42338  0.00000  0.15323
       8     H     0.41083  0.41083  0.00000  0.17835
       9     H     0.42543  0.42543  0.00000  0.14913
      10     H     0.42192  0.42192  0.00000  0.15615
      11     H     0.41366  0.41366  0.00000  0.17269
      12     H     0.41396  0.41396  0.00000  0.17207

   Total alpha = 17.00000, Total beta = 17.00000, Total charge = -0.00000
