                              Psi4 1.0.54 Driver

  ==> Input File <==

--------------------------------------------------------------------------
set {
	reference rhf
	basis cc-pvtz
}

set_num_threads( 4 )
memory 2 gb

molecule MOL {
0 1

H	 -0.000105	 1.988529	 0.748933
O	 -0.000098	 1.879786	 -0.188206
C	 -0.000014	 0.545691	 -0.532416
C	 -1.286000	 -0.125171	 -0.046657
C	 1.286016	 -0.125031	 -0.046584
H	 0.000021	 0.481103	 -1.610604
F	 -1.858783	 -0.741937	 -1.050838
F	 -1.062111	 -1.008842	 0.892870
F	 -2.141445	 0.759837	 0.418478
F	 2.317750	 0.468717	 -0.594166
F	 1.336617	 -1.393765	 -0.365123
F	 1.414467	 -0.024806	 1.259108

	symmetry c1
}
set optking {
	frozen_dihedral = ("
		7 4 3 6
	")
}

ee,wfn = optimize('scf', return_wfn=True)
oeprop( wfn, 'DIPOLE', 'QUADRUPOLE', 'MULLIKEN_CHARGES')
f=open( 'psi4out.xyz', 'w' )
f.write( "12  " )
f.write( str(ee) + "\n" )
f.write( MOL.save_string_xyz() )
f.close()
--------------------------------------------------------------------------

    Molecular point group: c1
  Charge       = 0
  Multiplicity = 1
  Basis Set: CC-PVTZ
  Basis Set:
  @DF-RHF Final Energy:  -786.58261470100911
    Total Energy =                       -786.5826147010091063
    Molecular point group: c1
  Basis Set: CC-PVTZ
  Basis Set:
  Basis Set: CC-PVTZ
  Basis Set:
  @DF-RHF Final Energy:  -786.58341775867598
    Total Energy =                       -786.5834177586759779
  Basis Set: CC-PVTZ
  Basis Set:
  Basis Set: CC-PVTZ
  Basis Set:
  @DF-RHF Final Energy:  -786.58397587331001
    Total Energy =                       -786.5839758733093277
  Basis Set: CC-PVTZ
  Basis Set:
  Basis Set: CC-PVTZ
  Basis Set:
  @DF-RHF Final Energy:  -786.58400852346995
    Total Energy =                       -786.5840085234699472
  Basis Set: CC-PVTZ
  Basis Set:
  Basis Set: CC-PVTZ
  Basis Set:
  @DF-RHF Final Energy:  -786.58401386482456
    Total Energy =                       -786.5840138648247830
  Basis Set: CC-PVTZ
  Basis Set:
  Charge       = 0
  Multiplicity = 1
  Basis Set: CC-PVTZ
  Basis Set:

    Orbital Energies (a.u.)
    -----------------------

    Doubly Occupied:

       1A    -26.357221     2A    -26.356685     3A    -26.356366
       4A    -26.355876     5A    -26.355159     6A    -26.352582
       7A    -20.609815     8A    -11.521331     9A    -11.517625
      10A    -11.351709    11A     -1.771612    12A     -1.765453
      13A     -1.664987    14A     -1.664522    15A     -1.662627
      16A     -1.659526    17A     -1.439813    18A     -1.101123
      19A     -1.000212    20A     -0.943979    21A     -0.871703
      22A     -0.866192    23A     -0.857283    24A     -0.853335
      25A     -0.840881    26A     -0.819515    27A     -0.740247
      28A     -0.736919    29A     -0.735029    30A     -0.729861
      31A     -0.694912    32A     -0.690939    33A     -0.689572
      34A     -0.683633    35A     -0.675169    36A     -0.668185
      37A     -0.662633    38A     -0.655572    39A     -0.622480
      40A     -0.551520    41A     -0.509380

  @DF-RHF Final Energy:  -786.58401461427331

   => Energetics <=

    Nuclear Repulsion Energy =            670.0389147499701039
    One-Electron Energy =               -2427.3194912179892526
    Two-Electron Energy =                 970.6965618537458340
    DFT Exchange-Correlation Energy =       0.0000000000000000
    Empirical Dispersion Energy =           0.0000000000000000
    PCM Polarization Energy =               0.0000000000000000
    EFP Energy =                            0.0000000000000000
    Total Energy =                       -786.5840146142734284
    Molecular point group: c1
  Basis Set: CC-PVTZ
  Basis Set:

  -Total Gradient:
     Atom            X                  Y                   Z
    ------   -----------------  -----------------  -----------------
       1        0.000001124904     0.000033941152     0.000005652471
       2       -0.000031253539    -0.000160926813    -0.000017359036
       3       -0.001985124390     0.003419500441    -0.000334545452
       4        0.001797620903    -0.002802227994     0.000786835939
       5       -0.000023374775     0.000062515944    -0.000048539424
       6        0.001385402066    -0.002327175447     0.000155585392
       7       -0.001213239607     0.001856617584    -0.000528450059
       8        0.000095541666    -0.000039381967    -0.000004270383
       9       -0.000024696624     0.000034017100    -0.000051097847
      10        0.000009616172    -0.000022023792     0.000019325691
      11        0.000002349584     0.000000954235     0.000040183793
      12       -0.000013966361    -0.000055810442    -0.000023321085

  **** Optimization is complete! (in 6 steps) ****
    Final optimized geometry and variables:
    Molecular point group: c1

    Geometry (in Angstrom), charge = 0, multiplicity = 1:

    H           -0.040670061108     2.044840333704     0.757965078887
    O            0.017506351499     1.920361695798    -0.174752792368
    C            0.004073876103     0.588354441670    -0.511503656030
    C           -1.283618848820    -0.144369015510    -0.050647547667
    C            1.282931853529    -0.096085386065    -0.030594834046
    H            0.027417762364     0.518725790997    -1.587893582609
    F           -1.819258818369    -0.792218732135    -1.059111042984
    F           -1.074827630949    -1.007902430663     0.914899355365
    F           -2.170608835540     0.717178575913     0.383371526004
    F            2.320881516316     0.461128502958    -0.604105559305
    F            1.289314753774    -1.370572328982    -0.339286044526
    F            1.438324014942     0.019881275814     1.269780935056

  Mulliken Charges: (a.u.)
   Center  Symbol    Alpha    Beta     Spin     Total
       1     H     0.38338  0.38338  0.00000  0.23324
       2     O     4.18242  4.18242  0.00000 -0.36484
       3     C     3.01868  3.01868  0.00000 -0.03735
       4     C     2.67579  2.67579  0.00000  0.64842
       5     C     2.67904  2.67904  0.00000  0.64192
       6     H     0.42874  0.42874  0.00000  0.14253
       7     F     4.60579  4.60579  0.00000 -0.21158
       8     F     4.60327  4.60327  0.00000 -0.20653
       9     F     4.60359  4.60359  0.00000 -0.20718
      10     F     4.60202  4.60202  0.00000 -0.20403
      11     F     4.60617  4.60617  0.00000 -0.21234
      12     F     4.61113  4.61113  0.00000 -0.22225

   Total alpha = 41.00000, Total beta = 41.00000, Total charge = -0.00000

*** Psi4 exiting successfully. Buy a developer a beer!
