  ==> Input File <==

--------------------------------------------------------------------------
set {
	reference rhf
	basis cc-pvtz
}

set_num_threads( 4 )
memory 2 gb

molecule MOL {
0 1

H	 -0.694138	 -1.497124	 0.975101
C	 -0.264926	 -0.516272	 1.145003
N	 0.526300	 -0.128137	 0.000000
H	 0.366049	 -0.581507	 2.022302
H	 -1.085328	 0.170320	 1.364328
C	 -0.247113	 0.037112	 -1.209233
H	 1.026633	 0.710301	 0.200868
H	 -0.996493	 -0.743733	 -1.271440
H	 0.397975	 -0.057351	 -2.073512
H	 -0.763794	 0.997171	 -1.271673

	symmetry c1
}
set optking {
	frozen_dihedral = ("
		2 3 6 8
	")
}

ee = optimize('scf')
oeprop('DIPOLE', 'QUADRUPOLE', 'MULLIKEN_CHARGES')
f=open( 'psi4out.xyz', 'w' )
f.write( "10  " )
f.write( str(ee) + "\n" )
f.write( MOL.save_string_xyz() )
f.close()
--------------------------------------------------------------------------

    Molecular point group: c1
  Charge       = 0
  Multiplicity = 1
  Basis Set: CC-PVTZ
  Basis Set:
  @DF-RHF Final Energy:  -134.29125333940672
    Total Energy =                       -134.2912533394067509
    Molecular point group: c1
  Basis Set: CC-PVTZ
  Basis Set:
  Basis Set: CC-PVTZ
  Basis Set:
  @DF-RHF Final Energy:  -134.29142032709495
    Total Energy =                       -134.2914203270949542
  Basis Set: CC-PVTZ
  Basis Set:
  Basis Set: CC-PVTZ
  Basis Set:
  @DF-RHF Final Energy:  -134.29144243604435
    Total Energy =                       -134.2914424360442922
  Basis Set: CC-PVTZ
  Basis Set:
  Charge       = 0
  Multiplicity = 1
  Basis Set: CC-PVTZ
  Basis Set:

    Orbital Energies (a.u.)
    -----------------------

    Doubly Occupied:

       1A    -15.530542     2A    -11.234433     3A    -11.234069
       4A     -1.198833     5A     -0.947994     6A     -0.855440
       7A     -0.662577     8A     -0.610340     9A     -0.591602
      10A     -0.539569    11A     -0.513363    12A     -0.508633
      13A     -0.359892

  @DF-RHF Final Energy:  -134.29144385151750

   => Energetics <=

    Nuclear Repulsion Energy =             84.6665936435429813
    One-Electron Energy =                -348.3415045503792271
    Two-Electron Energy =                 129.3834670553188460
    DFT Exchange-Correlation Energy =       0.0000000000000000
    Empirical Dispersion Energy =           0.0000000000000000
    PCM Polarization Energy =               0.0000000000000000
    EFP Energy =                            0.0000000000000000
    Total Energy =                       -134.2914438515174140
    Molecular point group: c1
  Basis Set: CC-PVTZ
  Basis Set:

  -Total Gradient:
     Atom            X                  Y                   Z
    ------   -----------------  -----------------  -----------------
       1        0.000036251025     0.000040730632    -0.000045621044
       2        0.000340983099    -0.002654044265    -0.000480879477
       3       -0.001073471902     0.004191969635     0.001284609755
       4        0.000000675575    -0.000007534061     0.000031676529
       5        0.000036895887    -0.000007293586    -0.000037608188
       6        0.002986385830    -0.003658576901    -0.002569383338
       7       -0.000034899079     0.000000498894    -0.000011684379
       8       -0.002302598731     0.002082899960     0.001760280059
       9        0.000020338629     0.000019484671     0.000056508136
      10       -0.000010560334    -0.000008134980     0.000012101949

  **** Optimization is complete! (in 4 steps) ****
    Final optimized geometry and variables:
    Molecular point group: c1

    Geometry (in Angstrom), charge = 0, multiplicity = 1:

    H           -0.679977265241    -1.306736374498     1.005021338373
    C           -0.255482805556    -0.323382911040     1.168656701718
    N            0.532139890717     0.060341046322     0.020496555432
    H            0.379958761265    -0.381620479626     2.043418929942
    H           -1.077331940630     0.360306830213     1.393149253663
    C           -0.228059792586     0.225573095502    -1.199160175448
    H            1.065556276734     0.878377734345     0.215745007878
    H           -0.976677625827    -0.554501611964    -1.264014627225
    H            0.418793695074     0.156632691519    -2.064491141256
    H           -0.766601057407     1.173746294059    -1.250415445885

  Mulliken Charges: (a.u.)
   Center  Symbol    Alpha    Beta     Spin     Total
       1     H     0.45679  0.45679  0.00000  0.08642
       2     C     3.08026  3.08026  0.00000 -0.16053
       3     N     3.63221  3.63221  0.00000 -0.26442
       4     H     0.45270  0.45270  0.00000  0.09459
       5     H     0.47583  0.47583  0.00000  0.04835
       6     C     3.08182  3.08182  0.00000 -0.16365
       7     H     0.43953  0.43953  0.00000  0.12094
       8     H     0.45858  0.45858  0.00000  0.08284
       9     H     0.45189  0.45189  0.00000  0.09621
      10     H     0.47038  0.47038  0.00000  0.05924

   Total alpha = 13.00000, Total beta = 13.00000, Total charge =  0.00000
