  ==> Input File <==

--------------------------------------------------------------------------
set {
	reference rhf
	basis cc-pvtz
}

set_num_threads( 4 )
memory 2 gb

molecule MOL {
0 1

H	 -2.816458	 -0.841657	 -0.064679
N	 -1.878861	 -0.711874	 0.250184
C	 -1.341419	 0.551458	 -0.220231
H	 -1.333674	 -1.468530	 -0.105118
C	 0.082190	 0.731516	 0.254705
H	 -1.357065	 0.652078	 -1.304747
H	 -1.939897	 1.357530	 0.189797
O	 0.881195	 -0.248324	 -0.336237
H	 0.440901	 1.722476	 -0.020063
H	 0.119896	 0.643586	 1.338114
C	 0.175928	 -1.241389	 -1.003800
H	 0.891791	 -1.938920	 -1.414136
H	 -0.488367	 -1.778659	 -0.330192
H	 -0.417954	 -0.829783	 -1.816479

	symmetry c1
}
set optking {
	frozen_dihedral = ("
		11 8 5 3
	")
}

ee = optimize('scf')
oeprop('DIPOLE', 'QUADRUPOLE', 'MULLIKEN_CHARGES')
f=open( 'psi4out.xyz', 'w' )
f.write( "14  " )
f.write( str(ee) + "\n" )
f.write( MOL.save_string_xyz() )
f.close()
--------------------------------------------------------------------------

    Molecular point group: c1
  Charge       = 0
  Multiplicity = 1
  Basis Set: CC-PVTZ
  Basis Set:
  @DF-RHF Final Energy:  -248.12420422425313
    Total Energy =                       -248.1242042242532193
    Molecular point group: c1
  Basis Set: CC-PVTZ
  Basis Set:
  Basis Set: CC-PVTZ
  Basis Set:
  @DF-RHF Final Energy:  -248.18951288611635
    Total Energy =                       -248.1895128861164039
  Basis Set: CC-PVTZ
  Basis Set:
  Basis Set: CC-PVTZ
  Basis Set:
  @DF-RHF Final Energy:  -248.20277582208359
    Total Energy =                       -248.2027758220835381
  Basis Set: CC-PVTZ
  Basis Set:
  Basis Set: CC-PVTZ
  Basis Set:
  @DF-RHF Final Energy:  -248.20713937797410
    Total Energy =                       -248.2071393779740447
  Basis Set: CC-PVTZ
  Basis Set:
  @DF-RHF Final Energy:  -248.20984650946841
    Total Energy =                       -248.2098465094686617
  @DF-RHF Final Energy:  -248.21069848637046
    Total Energy =                       -248.2106984863705748
  @DF-RHF Final Energy:  -248.21099376202758
    Total Energy =                       -248.2109937620274422
  @DF-RHF Final Energy:  -248.21108217193230
    Total Energy =                       -248.2110821719322189
  Basis Set: CC-PVTZ
  Basis Set:
  @DF-RHF Final Energy:  -248.21110934367553
    Total Energy =                       -248.2111093436757301
  Basis Set: CC-PVTZ
  Basis Set:
  Basis Set: CC-PVTZ
  Basis Set:
  @DF-RHF Final Energy:  -248.21112208965658
    Total Energy =                       -248.2111220896564987
  Basis Set: CC-PVTZ
  Basis Set:
  Basis Set: CC-PVTZ
  Basis Set:
  @DF-RHF Final Energy:  -248.21112553227493
    Total Energy =                       -248.2111255322744796
  Basis Set: CC-PVTZ
  Basis Set:
  Charge       = 0
  Multiplicity = 1
  Basis Set: CC-PVTZ
  Basis Set:

    Orbital Energies (a.u.)
    -----------------------

    Doubly Occupied:

       1A    -20.541034     2A    -15.535172     3A    -11.263831
       4A    -11.262548     5A    -11.249397     6A     -1.370565
       7A     -1.185189     8A     -1.003736     9A     -0.922559
      10A     -0.805118    11A     -0.689724    12A     -0.675219
      13A     -0.641937    14A     -0.617914    15A     -0.608901
      16A     -0.547301    17A     -0.536281    18A     -0.520136
      19A     -0.454783    20A     -0.407947    21A     -0.392365

  @DF-RHF Final Energy:  -248.21112623393543

   => Energetics <=

    Nuclear Repulsion Energy =            196.9187683002834319
    One-Electron Energy =                -727.7964774767856397
    Two-Electron Energy =                 282.6665829425667198
    DFT Exchange-Correlation Energy =       0.0000000000000000
    Empirical Dispersion Energy =           0.0000000000000000
    PCM Polarization Energy =               0.0000000000000000
    EFP Energy =                            0.0000000000000000
    Total Energy =                       -248.2111262339354880
    Molecular point group: c1
  Basis Set: CC-PVTZ
  Basis Set:

  -Total Gradient:
     Atom            X                  Y                   Z
    ------   -----------------  -----------------  -----------------
       1       -0.000010520838     0.000002021116    -0.000002425812
       2        0.000075668302    -0.000008734224    -0.000043994317
       3       -0.000332735235    -0.001149419948     0.001331888696
       4       -0.000024194849     0.000012049058     0.000006192215
       5        0.000571179659     0.002340370017    -0.002885198312
       6        0.000003911912    -0.000003914155    -0.000001702655
       7        0.000002313196     0.000002308335     0.000007483409
       8       -0.000360171948    -0.002346691369     0.003202736174
       9       -0.000014082180     0.000000515293    -0.000001616566
      10       -0.000007246287    -0.000000944348     0.000003844957
      11        0.000045156585     0.001149311106    -0.001565125579
      12        0.000005888323    -0.000012427907    -0.000023011897
      13        0.000043131585     0.000012287451    -0.000018792372
      14        0.000001701778     0.000003269573    -0.000010277940

  **** Optimization is complete! (in 12 steps) ****
    Final optimized geometry and variables:
    Molecular point group: c1

    Geometry (in Angstrom), charge = 0, multiplicity = 1:

    H           -2.709906759627    -0.183674895220     0.537294452239
    N           -1.725654782963    -0.331581969635     0.601383927217
    C           -1.000961552852     0.787977874679     0.021668736189
    H           -1.527702521967    -1.189603751808     0.135962730326
    C            0.459234054094     0.856406544170     0.443286644311
    H           -1.085122188896     0.846483764067    -1.062233390544
    H           -1.449525985222     1.695508232099     0.409360180968
    O            1.373372582196    -0.054390061652    -0.116981606482
    H            0.829927949668     1.845085198478     0.196429481521
    H            0.494648703469     0.745744625907     1.521560600448
    C            0.961524834899    -1.137286613839    -0.880675374443
    H            1.850198663553    -1.558199521647    -1.329343102998
    H            0.494683148548    -1.911345331325    -0.276887695689
    H            0.284776512527    -0.857599233605    -1.681492452161

  Mulliken Charges: (a.u.)
   Center  Symbol    Alpha    Beta     Spin     Total
       1     H     0.42744  0.42744  0.00000  0.14513
       2     N     3.68756  3.68756  0.00000 -0.37511
       3     C     3.06613  3.06613  0.00000 -0.13227
       4     H     0.42833  0.42833  0.00000  0.14334
       5     C     2.95562  2.95562  0.00000  0.08875
       6     H     0.45589  0.45589  0.00000  0.08822
       7     H     0.44662  0.44662  0.00000  0.10675
       8     O     4.18309  4.18309  0.00000 -0.36617
       9     H     0.46386  0.46386  0.00000  0.07227
      10     H     0.46488  0.46488  0.00000  0.07023
      11     C     3.03776  3.03776  0.00000 -0.07551
      12     H     0.44108  0.44108  0.00000  0.11784
      13     H     0.47084  0.47084  0.00000  0.05832
      14     H     0.47089  0.47089  0.00000  0.05823

   Total alpha = 21.00000, Total beta = 21.00000, Total charge = -0.00000
