  ==> Input File <==

--------------------------------------------------------------------------
set {
	reference rhf
	basis cc-pvtz
}

set_num_threads( 4 )
memory 2 gb

molecule MOL {
0 1

O	 -1.510770	 1.240811	 -0.054933
C	 -1.081510	 0.147522	 0.122720
C	 0.327029	 -0.064006	 0.641890
C	 -1.903028	 -1.084121	 -0.174656
C	 1.349460	 -0.017068	 -0.500215
H	 0.399029	 -1.014606	 1.159950
H	 0.538021	 0.726928	 1.350471
C	 1.306823	 1.300434	 -1.265796
H	 2.349058	 -0.170851	 -0.103992
H	 1.152328	 -0.841538	 -1.175283
H	 2.029782	 1.302922	 -2.072862
H	 1.531358	 2.140066	 -0.616679
H	 0.326432	 1.468227	 -1.697710
H	 -1.341891	 -1.779207	 -0.789259
H	 -2.820449	 -0.808163	 -0.671328
H	 -2.133314	 -1.593056	 0.755831

	symmetry c1
}
set optking {
	frozen_dihedral = ("
		9 5 3 2
	")
}

ee = optimize('scf')
oeprop('DIPOLE', 'QUADRUPOLE', 'MULLIKEN_CHARGES')
f=open( 'psi4out.xyz', 'w' )
f.write( "16  " )
f.write( str(ee) + "\n" )
f.write( MOL.save_string_xyz() )
f.close()
--------------------------------------------------------------------------

    Molecular point group: c1
  Charge       = 0
  Multiplicity = 1
  Basis Set: CC-PVTZ
  Basis Set:
  @DF-RHF Final Energy:  -270.12656237589727
    Total Energy =                       -270.1265623758971515
    Molecular point group: c1
  Basis Set: CC-PVTZ
  Basis Set:
  Basis Set: CC-PVTZ
  Basis Set:
  @DF-RHF Final Energy:  -270.12759233658653
    Total Energy =                       -270.1275923365863036
  Basis Set: CC-PVTZ
  Basis Set:
  Basis Set: CC-PVTZ
  Basis Set:
  @DF-RHF Final Energy:  -270.12711857512113
    Total Energy =                       -270.1271185751213011
  Basis Set: CC-PVTZ
  Basis Set:
  Basis Set: CC-PVTZ
  Basis Set:
  @DF-RHF Final Energy:  -270.12798813731303
    Total Energy =                       -270.1279881373126841
  Basis Set: CC-PVTZ
  Basis Set:
  @DF-RHF Final Energy:  -270.12814177333541
    Total Energy =                       -270.1281417733355283
  @DF-RHF Final Energy:  -270.12819736740744
    Total Energy =                       -270.1281973674074948
  @DF-RHF Final Energy:  -270.12820425961525
    Total Energy =                       -270.1282042596150745
  @DF-RHF Final Energy:  -270.12820596143399
    Total Energy =                       -270.1282059614340483
  Basis Set: CC-PVTZ
  Basis Set:
  @DF-RHF Final Energy:  -270.12820764518597
    Total Energy =                       -270.1282076451857961
  Basis Set: CC-PVTZ
  Basis Set:
  Basis Set: CC-PVTZ
  Basis Set:
  @DF-RHF Final Energy:  -270.12820964914607
    Total Energy =                       -270.1282096491461289
  Basis Set: CC-PVTZ
  Basis Set:
  Basis Set: CC-PVTZ
  Basis Set:
  @DF-RHF Final Energy:  -270.12821108658363
    Total Energy =                       -270.1282110865836898
  Basis Set: CC-PVTZ
  Basis Set:
  Charge       = 0
  Multiplicity = 1
  Basis Set: CC-PVTZ
  Basis Set:

    Orbital Energies (a.u.)
    -----------------------

    Doubly Occupied:

       1A    -20.538150     2A    -11.319654     3A    -11.233197
       4A    -11.228824     5A    -11.226742     6A    -11.213964
       7A     -1.397744     8A     -1.084079     9A     -1.010566
      10A     -0.950582    11A     -0.835295    12A     -0.731290
      13A     -0.658090    14A     -0.647238    15A     -0.624834
      16A     -0.600686    17A     -0.582856    18A     -0.562676
      19A     -0.536219    20A     -0.511446    21A     -0.503960
      22A     -0.486925    23A     -0.475734    24A     -0.400596

  @DF-RHF Final Energy:  -270.12821188494695

   => Energetics <=

    Nuclear Repulsion Energy =            242.3876581705657429
    One-Electron Energy =                -846.3090426847079470
    Two-Electron Energy =                 333.7931726291955101
    DFT Exchange-Correlation Energy =       0.0000000000000000
    Empirical Dispersion Energy =           0.0000000000000000
    PCM Polarization Energy =               0.0000000000000000
    EFP Energy =                            0.0000000000000000
    Total Energy =                       -270.1282118849467224
    Molecular point group: c1
  Basis Set: CC-PVTZ
  Basis Set:

  -Total Gradient:
     Atom            X                  Y                   Z
    ------   -----------------  -----------------  -----------------
       1        0.000005336036     0.000011775905     0.000001193103
       2        0.000027984211     0.000497558134     0.000004529865
       3       -0.000044431482    -0.000582819338    -0.000003060734
       4       -0.000002778600     0.000018299614     0.000006460857
       5       -0.000064784339    -0.000630246465    -0.000014992873
       6        0.000003493368    -0.000001948936    -0.000004509587
       7       -0.000005450358    -0.000000718821    -0.000003866264
       8        0.000000537993    -0.000001292321     0.000000638552
       9        0.000070252609     0.000691484780     0.000017424606
      10        0.000006995103     0.000004598077     0.000001053858
      11       -0.000001691257     0.000000908784    -0.000002035006
      12       -0.000001510310    -0.000001044030    -0.000000381814
      13       -0.000000602059     0.000000711299    -0.000001965765
      14        0.000000172322    -0.000008628036     0.000004074488
      15        0.000003864678     0.000001133733    -0.000003693885
      16        0.000002612085     0.000000227623    -0.000000869402

  **** Optimization is complete! (in 12 steps) ****
    Final optimized geometry and variables:
    Molecular point group: c1

    Geometry (in Angstrom), charge = 0, multiplicity = 1:

    O           -1.410073887326     0.950033521896     0.564204092348
    C           -0.833851039706    -0.078879959526     0.419683654634
    C            0.612545513849    -0.239213737974     0.846506342932
    C           -1.519981513855    -1.282292188587    -0.186178094462
    C            1.601696387609    -0.312032910986    -0.326278478453
    H            0.702460819185    -1.142779073628     1.441774206353
    H            0.852673199928     0.605849676581     1.477904744294
    C            1.578523588761     0.916901159563    -1.230753094165
    H            2.595974907076    -0.425361427194     0.091113225315
    H            1.416681429753    -1.204536938860    -0.914721620194
    H            2.330004955050     0.832343703524    -2.006851351088
    H            1.780379442869     1.819443644842    -0.665354693797
    H            0.616865302049     1.045452687897    -1.713433068300
    H           -0.963739956850    -1.657156754723    -1.037106527181
    H           -2.519383290082    -1.015540056543    -0.493397000050
    H           -1.566148915815    -2.081978915285     0.545535189915

  Mulliken Charges: (a.u.)
   Center  Symbol    Alpha    Beta     Spin     Total
       1     O     4.17468  4.17468  0.00000 -0.34936
       2     C     2.85633  2.85633  0.00000  0.28734
       3     C     3.10531  3.10531  0.00000 -0.21062
       4     C     3.15523  3.15523  0.00000 -0.31046
       5     C     3.10687  3.10687  0.00000 -0.21373
       6     H     0.44275  0.44275  0.00000  0.11450
       7     H     0.43872  0.43872  0.00000  0.12256
       8     C     3.14137  3.14137  0.00000 -0.28274
       9     H     0.44258  0.44258  0.00000  0.11483
      10     H     0.45066  0.45066  0.00000  0.09867
      11     H     0.44852  0.44852  0.00000  0.10296
      12     H     0.44977  0.44977  0.00000  0.10046
      13     H     0.45207  0.45207  0.00000  0.09586
      14     H     0.45063  0.45063  0.00000  0.09874
      15     H     0.43498  0.43498  0.00000  0.13004
      16     H     0.44952  0.44952  0.00000  0.10095

   Total alpha = 24.00000, Total beta = 24.00000, Total charge = -0.00000
