                              Psi4 1.0.54 Driver

  ==> Input File <==

--------------------------------------------------------------------------
set {
	reference rhf
	basis cc-pvtz
}

set_num_threads( 4 )
memory 2 gb

molecule MOL {
0 1

H	 2.867672	 -0.456275	 0.875795
C	 2.403497	 -0.020426	 0.000000
N	 0.989899	 -0.304564	 0.000000
H	 2.867672	 -0.456275	 -0.875795
H	 2.620366	 1.051270	 0.000000
C	 0.649415	 -1.418791	 0.860313
C	 0.467080	 -0.511667	 -1.334667
H	 1.143476	 -2.339857	 0.535837
H	 0.983330	 -1.205397	 1.869120
C	 -0.851800	 -1.634639	 0.862604
H	 0.667210	 0.367313	 -1.936389
H	 0.947427	 -1.364504	 -1.824239
C	 -1.029450	 -0.750823	 -1.275978
H	 -1.106870	 -2.519878	 1.428216
H	 -1.341535	 -0.778503	 1.322267
O	 -1.336674	 -1.822106	 -0.433891
H	 -1.412932	 -0.997206	 -2.256215
H	 -1.528378	 0.151048	 -0.926980

	symmetry c1
}
set optking {
	frozen_dihedral = ("
		6 3 2 5
	")
}

ee,wfn = optimize('scf', return_wfn=True)
oeprop( wfn, 'DIPOLE', 'QUADRUPOLE', 'MULLIKEN_CHARGES')
f=open( 'psi4out.xyz', 'w' )
f.write( "18  " )
f.write( str(ee) + "\n" )
f.write( MOL.save_string_xyz() )
f.close()
--------------------------------------------------------------------------

    Molecular point group: c1
  Charge       = 0
  Multiplicity = 1
  Basis Set: CC-PVTZ
  Basis Set:
  @DF-RHF Final Energy:  -325.14102038195381
    Total Energy =                       -325.1410203819536946
    Molecular point group: c1
  Basis Set: CC-PVTZ
  Basis Set:
  Basis Set: CC-PVTZ
  Basis Set:
  @DF-RHF Final Energy:  -325.14195341292009
    Total Energy =                       -325.1419534129200883
  Basis Set: CC-PVTZ
  Basis Set:
  Basis Set: CC-PVTZ
  Basis Set:
  @DF-RHF Final Energy:  -325.14207579677560
    Total Energy =                       -325.1420757967756003
  Basis Set: CC-PVTZ
  Basis Set:
  Charge       = 0
  Multiplicity = 1
  Basis Set: CC-PVTZ
  Basis Set:

    Orbital Energies (a.u.)
    -----------------------

    Doubly Occupied:

       1A    -20.547210     2A    -15.541099     3A    -11.263847
       4A    -11.263780     5A    -11.242629     6A    -11.242350
       7A    -11.238950     8A     -1.386032     9A     -1.230464
      10A     -1.039156    11A     -0.981537    12A     -0.884137
      13A     -0.869997    14A     -0.773147    15A     -0.684618
      16A     -0.646332    17A     -0.644847    18A     -0.633011
      19A     -0.629180    20A     -0.572958    21A     -0.556940
      22A     -0.546925    23A     -0.526495    24A     -0.500324
      25A     -0.485748    26A     -0.453756    27A     -0.410453
      28A     -0.348626

  @DF-RHF Final Energy:  -325.14208340623702

   => Energetics <=

    Nuclear Repulsion Energy =            341.4864208695258867
    One-Electron Energy =               -1118.9679135111680353
    Two-Electron Energy =                 452.3394092354049008
    DFT Exchange-Correlation Energy =       0.0000000000000000
    Empirical Dispersion Energy =           0.0000000000000000
    PCM Polarization Energy =               0.0000000000000000
    EFP Energy =                            0.0000000000000000
    Total Energy =                       -325.1420834062372478
    Molecular point group: c1
  Basis Set: CC-PVTZ
  Basis Set:

  -Total Gradient:
     Atom            X                  Y                   Z
    ------   -----------------  -----------------  -----------------
       1        0.000000242221    -0.000004234731     0.000013952048
       2        0.000242807765     0.001169117853    -0.004665645048
       3        0.000805624550    -0.003009617261    -0.002553258044
       4       -0.000112543925    -0.000092295076    -0.000003755409
       5       -0.000106762559    -0.000034073122     0.004590372360
       6       -0.000637572321     0.001977729583     0.002765180517
       7       -0.000083906174    -0.000119686265    -0.000185179776
       8       -0.000037223964     0.000101627798    -0.000006392768
       9       -0.000004114429     0.000044482549    -0.000034615507
      10        0.000012256965    -0.000080374596     0.000004763102
      11        0.000009340812     0.000003234843     0.000049302076
      12       -0.000006004509     0.000053612422     0.000067392353
      13       -0.000028310742     0.000005087035    -0.000008910717
      14       -0.000072220040    -0.000034344906     0.000024062441
      15        0.000036793116    -0.000016318023    -0.000030962401
      16        0.000028952652     0.000067913541    -0.000000797044
      17       -0.000056753353    -0.000020320331    -0.000020225622
      18        0.000009393930    -0.000011541313    -0.000005282562

  **** Optimization is complete! (in 4 steps) ****
    Final optimized geometry and variables:
    Molecular point group: c1

    Geometry (in Angstrom), charge = 0, multiplicity = 1:

    H            2.686097920476     0.506839810833     1.138798182416
    C            2.242516611182     0.876951965252     0.222875709668
    N            0.830599176628     0.562107197538     0.198371928105
    H            2.789657627727     0.430854197725    -0.606853720789
    H            2.398303591318     1.949937426329     0.217591686973
    C            0.445141674805    -0.545824149895     1.045033083925
    C            0.293650425668     0.435156364242    -1.137218729353
    H            0.901058464044    -1.486841073548     0.720908091474
    H            0.775292466520    -0.352129828390     2.058340446576
    C           -1.064220306433    -0.699568353893     1.034335212300
    H            0.521932675793     1.333075084699    -1.700724476632
    H            0.741529574889    -0.410037939549    -1.669246531315
    C           -1.210240149258     0.246666343653    -1.079968107104
    H           -1.359700761638    -1.585143005815     1.579737921864
    H           -1.519506824497     0.166842501981     1.510138228924
    O           -1.550601002162    -0.837489153554    -0.267785480551
    H           -1.605580557599     0.042280771059    -2.065315567158
    H           -1.676878011071     1.154380578456    -0.702434556133

  Mulliken Charges: (a.u.)
   Center  Symbol    Alpha    Beta     Spin     Total
       1     H     0.45616  0.45616  0.00000  0.08767
       2     C     3.09240  3.09240  0.00000 -0.18479
       3     N     3.61880  3.61880  0.00000 -0.23761
       4     H     0.46500  0.46500  0.00000  0.07000
       5     H     0.44949  0.44949  0.00000  0.10103
       6     C     3.03908  3.03908  0.00000 -0.07816
       7     C     3.04076  3.04076  0.00000 -0.08152
       8     H     0.46992  0.46992  0.00000  0.06017
       9     H     0.45420  0.45420  0.00000  0.09159
      10     C     2.98412  2.98412  0.00000  0.03176
      11     H     0.45416  0.45416  0.00000  0.09167
      12     H     0.46885  0.46885  0.00000  0.06230
      13     C     2.98383  2.98383  0.00000  0.03234
      14     H     0.45001  0.45001  0.00000  0.09998
      15     H     0.46840  0.46840  0.00000  0.06320
      16     O     4.18646  4.18646  0.00000 -0.37292
      17     H     0.45012  0.45012  0.00000  0.09975
      18     H     0.46823  0.46823  0.00000  0.06354

   Total alpha = 28.00000, Total beta = 28.00000, Total charge = -0.00000

*** Psi4 exiting successfully. Buy a developer a beer!
