  ==> Input File <==

--------------------------------------------------------------------------
set {
	reference rhf
	basis 6-31G*
}

set_num_threads( 1 )
memory 2 gb

molecule MOL {
0 1

H	 -3.261111	 -0.295142	 1.469456
C	 -3.306842	 -0.277400	 0.373456
C	 -2.660244	 0.921717	 -0.272021
O	 -3.838538	 -1.161155	 -0.216482
C	 -1.929012	 1.812967	 0.741501
H	 -1.992036	 0.572379	 -1.050590
H	 -3.454497	 1.496527	 -0.746797
C	 -0.703822	 1.144249	 1.370011
H	 -1.623665	 2.726021	 0.239126
H	 -2.623634	 2.115750	 1.523536
C	 0.021443	 2.047860	 2.369158
H	 -0.015328	 0.849268	 0.580829
H	 -1.001094	 0.223940	 1.869210
C	 1.255396	 1.381843	 2.983758
H	 0.306634	 2.969337	 1.867883
H	 -0.666890	 2.331706	 3.164151
C	 1.967998	 2.218372	 4.052630
H	 1.961628	 1.132893	 2.193218
H	 0.954456	 0.436210	 3.429769
C	 2.613919	 3.502173	 3.528930
H	 2.738217	 1.603794	 4.511985
H	 1.264573	 2.464816	 4.845334
H	 3.311022	 3.287618	 2.723149
H	 1.877093	 4.203139	 3.151164
H	 3.165970	 4.004704	 4.317408

	symmetry c1
}
set optking {
	frozen_dihedral = ("
		6 3 5 8,
		3 5 8 12,
		12 8 11 14,
		8 11 14 18,
		20 17 14 18
	")
}

ee = energy('scf')
oeprop('DIPOLE', 'QUADRUPOLE', 'MULLIKEN_CHARGES')
f=open( 'psi4out.xyz', 'w' )
f.write( "25  " )
f.write( str(ee) + "\n" )
f.write( MOL.save_string_xyz() )
f.close()
--------------------------------------------------------------------------

    Molecular point group: c1

    Geometry (in Angstrom), charge = 0, multiplicity = 1:

       Center              X                  Y                   Z               Mass
    ------------   -----------------  -----------------  -----------------  -----------------
           H         -2.532557552501    -1.581493248376    -0.190408587765     1.007825032070
           C         -2.578288552501    -1.563751248376    -1.286408587765    12.000000000000
           C         -1.931690552501    -0.364634248376    -1.931885587765    12.000000000000
           O         -3.109984552501    -2.447506248376    -1.876346587765    15.994914619560
           C         -1.200458552501     0.526615751624    -0.918363587765    12.000000000000
           H         -1.263482552501    -0.713972248376    -2.710454587765     1.007825032070
           H         -2.725943552501     0.210175751624    -2.406661587765     1.007825032070
           C          0.024731447499    -0.142102248376    -0.289853587765    12.000000000000
           H         -0.895111552501     1.439669751624    -1.420738587765     1.007825032070
           H         -1.895080552501     0.829398751624    -0.136328587765     1.007825032070
           C          0.749996447499     0.761508751624     0.709293412235    12.000000000000
           H          0.713225447499    -0.437083248376    -1.079035587765     1.007825032070
           H         -0.272540552501    -1.062411248376     0.209345412235     1.007825032070
           C          1.983949447499     0.095491751624     1.323893412235    12.000000000000
           H          1.035187447499     1.682985751624     0.208018412235     1.007825032070
           H          0.061663447499     1.045354751624     1.504286412235     1.007825032070
           C          2.696551447499     0.932020751624     2.392765412235    12.000000000000
           H          2.690181447499    -0.153458248376     0.533353412235     1.007825032070
           H          1.683009447499    -0.850141248376     1.769904412235     1.007825032070
           C          3.342472447499     2.215821751624     1.869065412235    12.000000000000
           H          3.466770447499     0.317442751624     2.852120412235     1.007825032070
           H          1.993126447499     1.178464751624     3.185469412235     1.007825032070
           H          4.039575447499     2.001266751624     1.063284412235     1.007825032070
           H          2.605646447499     2.916787751624     1.491299412235     1.007825032070
           H          3.894523447499     2.718352751624     2.657543412235     1.007825032070

  Charge       = 0
  Multiplicity = 1
  Basis Set: 6-31G*
  Basis Set:

    Orbital Energies (a.u.)
    -----------------------

    Doubly Occupied:

       1A    -20.560815     2A    -11.326388     3A    -11.235386
       4A    -11.233419     5A    -11.227225     6A    -11.222103
       7A    -11.219841     8A    -11.219175     9A    -11.212148
      10A     -1.401350    11A     -1.106172    12A     -1.071401
      13A     -1.014630    14A     -0.942935    15A     -0.875374
      16A     -0.825041    17A     -0.788638    18A     -0.784006
      19A     -0.664813    20A     -0.656056    21A     -0.634218
      22A     -0.629409    23A     -0.611849    24A     -0.597069
      25A     -0.567708    26A     -0.553345    27A     -0.541685
      28A     -0.524204    29A     -0.506092    30A     -0.500779
      31A     -0.490134    32A     -0.481003    33A     -0.466936
      34A     -0.461235    35A     -0.442949    36A     -0.408396

  @DF-RHF Final Energy:  -387.12005668629189

   => Energetics <=

    Nuclear Repulsion Energy =            437.1402081834496016
    One-Electron Energy =               -1390.5124815521428445
    Two-Electron Energy =                 566.2522166823999896
    DFT Exchange-Correlation Energy =       0.0000000000000000
    Empirical Dispersion Energy =           0.0000000000000000
    PCM Polarization Energy =               0.0000000000000000
    EFP Energy =                            0.0000000000000000
    Total Energy =                       -387.1200566862931964

  Mulliken Charges: (a.u.)
   Center  Symbol    Alpha    Beta     Spin     Total
       1     H     0.43007  0.43007  0.00000  0.13985
       2     C     2.83456  2.83456  0.00000  0.33088
       3     C     3.20623  3.20623  0.00000 -0.41246
       4     O     4.24164  4.24164  0.00000 -0.48328
       5     C     3.16917  3.16917  0.00000 -0.33834
       6     H     0.39821  0.39821  0.00000  0.20359
       7     H     0.39796  0.39796  0.00000  0.20407
       8     C     3.15651  3.15651  0.00000 -0.31302
       9     H     0.41323  0.41323  0.00000  0.17355
      10     H     0.41905  0.41905  0.00000  0.16189
      11     C     3.15358  3.15358  0.00000 -0.30716
      12     H     0.41927  0.41927  0.00000  0.16146
      13     H     0.42181  0.42181  0.00000  0.15638
      14     C     3.15310  3.15310  0.00000 -0.30619
      15     H     0.42006  0.42006  0.00000  0.15989
      16     H     0.42310  0.42310  0.00000  0.15380
      17     C     3.15281  3.15281  0.00000 -0.30562
      18     H     0.42321  0.42321  0.00000  0.15359
      19     H     0.42145  0.42145  0.00000  0.15710
      20     C     3.24145  3.24145  0.00000 -0.48289
      21     H     0.41989  0.41989  0.00000  0.16022
      22     H     0.42296  0.42296  0.00000  0.15407
      23     H     0.42189  0.42189  0.00000  0.15622
      24     H     0.42046  0.42046  0.00000  0.15908
      25     H     0.41835  0.41835  0.00000  0.16331

   Total alpha = 36.00000, Total beta = 36.00000, Total charge = -0.00000
