  ==> Input File <==

--------------------------------------------------------------------------
set {
	reference rhf
	basis 6-31G*
}

set_num_threads( 4 )
memory 2 gb

molecule MOL {
0 1

H	 0.960607	 0.877345	 2.045983
C	 0.018505	 0.965493	 1.522554
O	 0.000000	 0.000000	 0.521119
H	 -0.793958	 0.819172	 2.232613
H	 -0.062423	 1.969840	 1.109726
C	 -1.165642	 0.000000	 -0.238270
H	 -1.228672	 0.883184	 -0.872070
H	 -2.003012	 0.000000	 0.445920
H	 -1.228672	 -0.883184	 -0.872070

	symmetry c1
}
set optking {
	frozen_dihedral = ("
		2 3 6 7
	")
}

ee = optimize('scf')
oeprop('DIPOLE', 'QUADRUPOLE', 'MULLIKEN_CHARGES')
f=open( 'psi4out.xyz', 'w' )
f.write( "9  " )
f.write( str(ee) + "\n" )
f.write( MOL.save_string_xyz() )
f.close()
--------------------------------------------------------------------------

    Molecular point group: c1
  Charge       = 0
  Multiplicity = 1
  Basis Set: 6-31G*
  Basis Set:
  @DF-RHF Final Energy:  -154.06315748701354
    Total Energy =                       -154.0631574870135125
    Molecular point group: c1
  Basis Set: 6-31G*
  Basis Set:
  Basis Set: 6-31G*
  Basis Set:
  @DF-RHF Final Energy:  -154.06412629292402
    Total Energy =                       -154.0641262929241293
  Basis Set: 6-31G*
  Basis Set:
  Basis Set: 6-31G*
  Basis Set:
  @DF-RHF Final Energy:  -154.06440206086762
    Total Energy =                       -154.0644020608675930
  Basis Set: 6-31G*
  Basis Set:
  Charge       = 0
  Multiplicity = 1
  Basis Set: 6-31G*
  Basis Set:

    Orbital Energies (a.u.)
    -----------------------

    Doubly Occupied:

       1A    -20.556162     2A    -11.265274     3A    -11.265166
       4A     -1.379257     5A     -0.974949     6A     -0.872862
       7A     -0.661758     8A     -0.653957     9A     -0.645069
      10A     -0.552684    11A     -0.529123    12A     -0.474618
      13A     -0.417226

  @DF-RHF Final Energy:  -154.06440349044709

   => Energetics <=

    Nuclear Repulsion Energy =             84.7506598250064371
    One-Electron Energy =                -377.1339137620952329
    Two-Electron Energy =                 138.3188504466417044
    DFT Exchange-Correlation Energy =       0.0000000000000000
    Empirical Dispersion Energy =           0.0000000000000000
    PCM Polarization Energy =               0.0000000000000000
    EFP Energy =                            0.0000000000000000
    Total Energy =                       -154.0644034904470914
    Molecular point group: c1
  Basis Set: 6-31G*
  Basis Set:

  -Total Gradient:
     Atom            X                  Y                   Z
    ------   -----------------  -----------------  -----------------
       1       -0.000003052442    -0.000085379423    -0.000073374558
       2       -0.000665398317    -0.000673693343     0.000646319324
       3        0.000898119452     0.000822549465    -0.001434148079
       4        0.000001778500    -0.000031321136     0.000006500469
       5        0.000021990962     0.000030129409     0.000027779015
       6       -0.001109358288     0.000677591793     0.001804208105
       7        0.000780030301    -0.000733354039    -0.001041528335
       8        0.000007646173     0.000006575282     0.000038586336
       9        0.000068243657    -0.000013098008     0.000025657725

  **** Optimization is complete! (in 4 steps) ****
    Final optimized geometry and variables:
    Molecular point group: c1

    Geometry (in Angstrom), charge = 0, multiplicity = 1:

    H            1.372873793467     0.535453640132     1.427605223688
    C            0.427252083536     0.634068561117     0.912518025856
    O            0.388587966188    -0.335785253285    -0.084340039344
    H           -0.380710942748     0.499343810014     1.629649701293
    H            0.355794799727     1.638640697465     0.498190624976
    C           -0.782950510387    -0.326284464078    -0.835121126373
    H           -0.839380978068     0.554673535832    -1.472379731979
    H           -1.666979835899    -0.358176333412    -0.201008400458
    H           -0.773529619649    -1.205512222045    -1.465071411864

  Mulliken Charges: (a.u.)
   Center  Symbol    Alpha    Beta     Spin     Total
       1     H     0.41180  0.41180  0.00000  0.17640
       2     C     3.08028  3.08028  0.00000 -0.16055
       3     O     4.29528  4.29528  0.00000 -0.59056
       4     H     0.42998  0.42998  0.00000  0.14005
       5     H     0.43043  0.43043  0.00000  0.13915
       6     C     3.08022  3.08022  0.00000 -0.16044
       7     H     0.42916  0.42916  0.00000  0.14168
       8     H     0.43076  0.43076  0.00000  0.13848
       9     H     0.41210  0.41210  0.00000  0.17581

   Total alpha = 13.00000, Total beta = 13.00000, Total charge = -0.00000
