  ==> Input File <==

--------------------------------------------------------------------------
set {
	reference rhf
	basis 6-31G*
}

set_num_threads( 4 )
memory 2 gb

molecule MOL {
0 1

H	 2.254297	 -1.873688	 0.385747
O	 2.826016	 -1.159218	 0.122261
C	 2.077727	 -0.067559	 -0.035091
C	 0.624473	 -0.343591	 0.253101
O	 2.542965	 0.974826	 -0.363729
C	 -0.265902	 0.883932	 0.072916
H	 0.324016	 -1.163849	 -0.390541
H	 0.565024	 -0.726111	 1.268924
C	 -1.728698	 0.646073	 0.462102
H	 -0.209144	 1.219470	 -0.958188
H	 0.135059	 1.692851	 0.673903
C	 -2.482460	 -0.343073	 -0.431425
H	 -2.245265	 1.602650	 0.432430
H	 -1.779332	 0.308348	 1.496285
C	 -3.960546	 -0.461025	 -0.060175
H	 -2.395034	 -0.026811	 -1.468912
H	 -2.024850	 -1.327147	 -0.371646
H	 -4.472726	 -1.168004	 -0.705284
H	 -4.465146	 0.496508	 -0.151489
H	 -4.081218	 -0.800940	 0.964585

	symmetry c1
}
set optking {
	frozen_dihedral = ("
		1 2 3 5
	")
}

ee = optimize('scf')
oeprop('DIPOLE', 'QUADRUPOLE', 'MULLIKEN_CHARGES')
f=open( 'psi4out.xyz', 'w' )
f.write( "20  " )
f.write( str(ee) + "\n" )
f.write( MOL.save_string_xyz() )
f.close()
--------------------------------------------------------------------------

    Molecular point group: c1
  Charge       = 0
  Multiplicity = 1
  Basis Set: 6-31G*
  Basis Set:
  @DF-RHF Final Energy:  -383.93612041432777
    Total Energy =                       -383.9361204143276609
    Molecular point group: c1
  Basis Set: 6-31G*
  Basis Set:
  Basis Set: 6-31G*
  Basis Set:
  @DF-RHF Final Energy:  -383.93753192793059
    Total Energy =                       -383.9375319279305359
  Basis Set: 6-31G*
  Basis Set:
  Basis Set: 6-31G*
  Basis Set:
  @DF-RHF Final Energy:  -383.93773594193493
    Total Energy =                       -383.9377359419349887
  Basis Set: 6-31G*
  Basis Set:
  Basis Set: 6-31G*
  Basis Set:
  @DF-RHF Final Energy:  -383.93770494821877
    Total Energy =                       -383.9377049482188227
  Basis Set: 6-31G*
  Basis Set:
  Basis Set: 6-31G*
  Basis Set:
  @DF-RHF Final Energy:  -383.93774139267026
    Total Energy =                       -383.9377413926703184
  Basis Set: 6-31G*
  Basis Set:
  Charge       = 0
  Multiplicity = 1
  Basis Set: 6-31G*
  Basis Set:

    Orbital Energies (a.u.)
    -----------------------

    Doubly Occupied:

       1A    -20.612649     2A    -20.546732     3A    -11.380203
       4A    -11.252380     5A    -11.228911     6A    -11.226161
       7A    -11.225536     8A    -11.216847     9A     -1.468114
      10A     -1.369560    11A     -1.101720    12A     -1.044645
      13A     -0.961134    14A     -0.866527    15A     -0.831335
      16A     -0.793774    17A     -0.720868    18A     -0.669071
      19A     -0.658207    20A     -0.636939    21A     -0.606187
      22A     -0.603839    23A     -0.574449    24A     -0.564344
      25A     -0.545726    26A     -0.517766    27A     -0.501391
      28A     -0.476180    29A     -0.475621    30A     -0.471628
      31A     -0.462794    32A     -0.439262

  @DF-RHF Final Energy:  -383.93774188723194

   => Energetics <=

    Nuclear Repulsion Energy =            375.9488306135893936
    One-Electron Energy =               -1267.6721450254331103
    Two-Electron Energy =                 507.7855725246113821
    DFT Exchange-Correlation Energy =       0.0000000000000000
    Empirical Dispersion Energy =           0.0000000000000000
    PCM Polarization Energy =               0.0000000000000000
    EFP Energy =                            0.0000000000000000
    Total Energy =                       -383.9377418872323346
    Molecular point group: c1
  Basis Set: 6-31G*
  Basis Set:

  -Total Gradient:
     Atom            X                  Y                   Z
    ------   -----------------  -----------------  -----------------
       1       -0.000005980299    -0.000024869708    -0.000006956349
       2       -0.000013622328    -0.000010480542     0.000039097574
       3        0.000013841309    -0.000018069994    -0.000059718950
       4        0.000021357673    -0.000000014112     0.000012155833
       5       -0.000006060927     0.000056394190     0.000008840757
       6       -0.000015448365     0.000001549206    -0.000016584908
       7        0.000015099119     0.000012495387     0.000012008590
       8       -0.000003209930     0.000000417990     0.000002451738
       9       -0.000002887983    -0.000008466125     0.000010251037
      10        0.000004184914    -0.000010290675    -0.000004737929
      11       -0.000006198490    -0.000001927522    -0.000002388485
      12        0.000001064879    -0.000005064699     0.000004319965
      13        0.000000559786     0.000002587052     0.000007044640
      14        0.000007388838    -0.000009382032     0.000001388029
      15       -0.000000038274     0.000015147712    -0.000006479871
      16        0.000003938730    -0.000006435173    -0.000003995946
      17       -0.000013947972     0.000003890639     0.000004147188
      18        0.000001183340     0.000004130847    -0.000003273898
      19       -0.000003600629     0.000001303689     0.000004438690
      20        0.000002376602    -0.000002916131    -0.000002007705

  **** Optimization is complete! (in 6 steps) ****
    Final optimized geometry and variables:
    Molecular point group: c1

    Geometry (in Angstrom), charge = 0, multiplicity = 1:

    H            2.432317337799    -1.900303496714     0.383148723645
    O            2.903645012943    -1.123686127331     0.112844213596
    C            2.090884069200    -0.070965185917    -0.036102738546
    C            0.628511913038    -0.346189648849     0.253736619053
    O            2.527623655657     0.974682346933    -0.370407060842
    C           -0.260074214437     0.882605870812     0.071626272352
    H            0.313802986140    -1.161502810091    -0.393247721171
    H            0.555926690348    -0.720975501137     1.273966406730
    C           -1.723886186203     0.650630778779     0.459722270694
    H           -0.198176385140     1.214476986718    -0.959765174925
    H            0.146028445307     1.689038898627     0.671497708549
    C           -2.482537970402    -0.334738551453    -0.433935036772
    H           -2.234964692968     1.609873299328     0.428566250465
    H           -1.777932769022     0.314816712939     1.494459037935
    C           -3.962712265503    -0.440052772716    -0.067374665444
    H           -2.388884852965    -0.022117262887    -1.471853552708
    H           -2.033501622761    -1.322936094164    -0.370350413444
    H           -4.478282970296    -1.144378978155    -0.712560516631
    H           -4.458949640443     0.521272708437    -0.163015624751
    H           -4.089772766761    -0.776153742223     0.957867508273

  Mulliken Charges: (a.u.)
   Center  Symbol    Alpha    Beta     Spin     Total
       1     H     0.26873  0.26873  0.00000  0.46254
       2     O     4.35227  4.35227  0.00000 -0.70454
       3     C     2.60464  2.60464  0.00000  0.79072
       4     C     3.24050  3.24050  0.00000 -0.48101
       5     O     4.26412  4.26412  0.00000 -0.52824
       6     C     3.15208  3.15208  0.00000 -0.30417
       7     H     0.40333  0.40333  0.00000  0.19334
       8     H     0.40534  0.40534  0.00000  0.18931
       9     C     3.15650  3.15650  0.00000 -0.31301
      10     H     0.40910  0.40910  0.00000  0.18180
      11     H     0.40475  0.40475  0.00000  0.19051
      12     C     3.15468  3.15468  0.00000 -0.30937
      13     H     0.41607  0.41607  0.00000  0.16786
      14     H     0.42405  0.42405  0.00000  0.15189
      15     C     3.23931  3.23931  0.00000 -0.47863
      16     H     0.42017  0.42017  0.00000  0.15966
      17     H     0.42561  0.42561  0.00000  0.14878
      18     H     0.41783  0.41783  0.00000  0.16435
      19     H     0.41955  0.41955  0.00000  0.16089
      20     H     0.42136  0.42136  0.00000  0.15729

   Total alpha = 32.00000, Total beta = 32.00000, Total charge =  0.00000
