                              Psi4 1.0.54 Driver

  ==> Input File <==

--------------------------------------------------------------------------
set {
	reference rhf
	basis cc-pvtz
}

set_num_threads( 4 )
memory 2 gb

molecule MOL {
0 1

H	 -2.644180	 -0.653737	 1.272255
C	 -2.092774	 -0.380414	 0.391915
O	 -0.808934	 -0.154049	 0.752536
F	 -2.163230	 -1.351640	 -0.507133
F	 -2.627232	 0.691260	 -0.169301
C	 0.085006	 0.250800	 -0.215074
C	 1.370439	 -0.548013	 -0.012993
Cl	 0.421658	 1.987697	 -0.091007
H	 -0.272219	 0.063284	 -1.212508
F	 2.005479	 -0.689153	 -1.148698
F	 1.064525	 -1.744317	 0.430391
F	 2.172678	 0.014870	 0.848301

	symmetry c1
}
set optking {
	frozen_dihedral = ("
		10 7 6 9
	")
}

ee,wfn = optimize('scf', return_wfn=True)
oeprop( wfn, 'DIPOLE', 'QUADRUPOLE', 'MULLIKEN_CHARGES')
f=open( 'psi4out.xyz', 'w' )
f.write( "12  " )
f.write( str(ee) + "\n" )
f.write( MOL.save_string_xyz() )
f.close()
--------------------------------------------------------------------------

    Molecular point group: c1
  Charge       = 0
  Multiplicity = 1
  Basis Set: CC-PVTZ
  Basis Set:
  @DF-RHF Final Energy: -1146.61542948983652
    Total Energy =                      -1146.6154294898369699
    Molecular point group: c1
  Basis Set: CC-PVTZ
  Basis Set:
  Basis Set: CC-PVTZ
  Basis Set:
  @DF-RHF Final Energy: -1146.61592671640096
    Total Energy =                      -1146.6159267164011908
  Basis Set: CC-PVTZ
  Basis Set:
  Basis Set: CC-PVTZ
  Basis Set:
  @DF-RHF Final Energy: -1146.61657933722290
    Total Energy =                      -1146.6165793372240387
  Basis Set: CC-PVTZ
  Basis Set:
  Basis Set: CC-PVTZ
  Basis Set:
  @DF-RHF Final Energy: -1146.61661135681379
    Total Energy =                      -1146.6166113568142464
  Basis Set: CC-PVTZ
  Basis Set:
  @DF-RHF Final Energy: -1146.61661959518483
    Total Energy =                      -1146.6166195951855116
  @DF-RHF Final Energy: -1146.61662372390742
    Total Energy =                      -1146.6166237239069687
  @DF-RHF Final Energy: -1146.61662638490589
    Total Energy =                      -1146.6166263849067946
  @DF-RHF Final Energy: -1146.61525947970563
    Total Energy =                      -1146.6152594797072197
  @DF-RHF Final Energy: -1146.60790460257772
    Total Energy =                      -1146.6079046025781736
  @DF-RHF Final Energy: -1146.60995439719682
    Total Energy =                      -1146.6099543971965886
  @DF-RHF Final Energy: -1146.61638051175032
    Total Energy =                      -1146.6163805117498669
  Basis Set: CC-PVTZ
  Basis Set:
  @DF-RHF Final Energy: -1146.61659289722866
    Total Energy =                      -1146.6165928972293386
  Basis Set: CC-PVTZ
  Basis Set:
  Basis Set: CC-PVTZ
  Basis Set:
  @DF-RHF Final Energy: -1146.61662182434793
    Total Energy =                      -1146.6166218243479307
  Basis Set: CC-PVTZ
  Basis Set:
  Basis Set: CC-PVTZ
  Basis Set:
  @DF-RHF Final Energy: -1146.61662630989076
    Total Energy =                      -1146.6166263098900799
  Basis Set: CC-PVTZ
  Basis Set:
  Charge       = 0
  Multiplicity = 1
  Basis Set: CC-PVTZ
  Basis Set:

    Orbital Energies (a.u.)
    -----------------------

    Doubly Occupied:

       1A   -104.854829     2A    -26.355223     3A    -26.354686
       4A    -26.351577     5A    -26.343951     6A    -26.343925
       7A    -20.641848     8A    -11.521409     9A    -11.484931
      10A    -11.401991    11A    -10.580398    12A     -8.047172
      13A     -8.045218    14A     -8.045119    15A     -1.768225
      16A     -1.725592    17A     -1.664319    18A     -1.659453
      19A     -1.645545    20A     -1.489020    21A     -1.176271
      22A     -1.050353    23A     -0.992391    24A     -0.925012
      25A     -0.864411    26A     -0.859541    27A     -0.851483
      28A     -0.831244    29A     -0.820058    30A     -0.794958
      31A     -0.734915    32A     -0.733889    33A     -0.712308
      34A     -0.708292    35A     -0.685342    36A     -0.680892
      37A     -0.665428    38A     -0.663701    39A     -0.651112
      40A     -0.636395    41A     -0.599512    42A     -0.581006
      43A     -0.523520    44A     -0.477712    45A     -0.468245

  @DF-RHF Final Energy: -1146.61662697824386

   => Energetics <=

    Nuclear Repulsion Energy =            737.0107055664535665
    One-Electron Energy =               -3057.2298185728632234
    Two-Electron Energy =                1173.6024860281663678
    DFT Exchange-Correlation Energy =       0.0000000000000000
    Empirical Dispersion Energy =           0.0000000000000000
    PCM Polarization Energy =               0.0000000000000000
    EFP Energy =                            0.0000000000000000
    Total Energy =                      -1146.6166269782434028
    Molecular point group: c1
  Basis Set: CC-PVTZ
  Basis Set:

  -Total Gradient:
     Atom            X                  Y                   Z
    ------   -----------------  -----------------  -----------------
       1       -0.000043007385    -0.000035575542    -0.000023528001
       2        0.000062702308     0.000067645321     0.000175041323
       3       -0.000029131472    -0.000059952238    -0.000027379119
       4       -0.000000786957    -0.000021319235    -0.000039657027
       5        0.000046179873     0.000018419189    -0.000047044537
       6       -0.004695222962    -0.008228556648     0.001735879382
       7        0.003790080377     0.007354335378     0.001473239306
       8       -0.000103423921    -0.000106451219     0.000039706063
       9        0.003392151899     0.005844791326    -0.001833425667
      10       -0.002492121951    -0.004916727250    -0.001568257249
      11        0.000024075516     0.000063959560     0.000104162408
      12        0.000048504674     0.000019431422     0.000011263123

  **** Optimization is complete! (in 15 steps) ****
    Final optimized geometry and variables:
    Molecular point group: c1

    Geometry (in Angstrom), charge = 0, multiplicity = 1:

    H           -2.617118681718    -0.842161854203     1.256294243808
    C           -2.069815223841    -0.525635769236     0.387988391451
    O           -0.818984327883    -0.188492558330     0.776969071696
    F           -2.034884686788    -1.501578416387    -0.507812754013
    F           -2.679325435540     0.495370232551    -0.191430361638
    C            0.054529788090     0.281134157242    -0.173134209338
    C            1.399146995847    -0.454658852232    -0.044137063025
    CL           0.306298372659     2.033261199716     0.012203473241
    H           -0.285596627915     0.161658150662    -1.185744339980
    F            2.013049321679    -0.428282932992    -1.204457204486
    F            1.182251037520    -1.713778090293     0.250811835681
    F            2.187796090471     0.042211606033     0.864716834798

  Mulliken Charges: (a.u.)
   Center  Symbol    Alpha    Beta     Spin     Total
       1     H     0.45167  0.45167  0.00000  0.09666
       2     C     2.73847  2.73847  0.00000  0.52306
       3     O     4.15315  4.15315  0.00000 -0.30629
       4     F     4.61765  4.61765  0.00000 -0.23530
       5     F     4.61528  4.61528  0.00000 -0.23057
       6     C     2.94535  2.94535  0.00000  0.10930
       7     C     2.66628  2.66628  0.00000  0.66743
       8    CL     8.57527  8.57527  0.00000 -0.15055
       9     H     0.43161  0.43161  0.00000  0.13678
      10     F     4.60606  4.60606  0.00000 -0.21212
      11     F     4.60281  4.60281  0.00000 -0.20562
      12     F     4.59640  4.59640  0.00000 -0.19279

   Total alpha = 45.00000, Total beta = 45.00000, Total charge = -0.00000

*** Psi4 exiting successfully. Buy a developer a beer!
