                              Psi4 1.0.54 Driver

  ==> Input File <==

--------------------------------------------------------------------------
set {
	reference rhf
	basis cc-pvtz
}

set_num_threads( 4 )
memory 2 gb

molecule MOL {
0 1

O	 3.219313	 0.959291	 -0.614106
C	 2.698710	 0.058177	 -0.050237
C	 1.246364	 -0.005813	 0.348416
O	 3.344101	 -1.038700	 0.312317
C	 0.453207	 1.232821	 -0.049003
H	 0.839270	 -0.907818	 -0.092281
H	 1.216683	 -0.160521	 1.422434
C	 -0.998367	 1.217982	 0.432195
H	 0.481498	 1.345443	 -1.127236
H	 0.951413	 2.105557	 0.354893
C	 -1.882951	 0.151251	 -0.211235
H	 -1.429490	 2.193659	 0.228843
H	 -1.019755	 1.099323	 1.513279
C	 -3.342450	 0.243269	 0.226009
H	 -1.826223	 0.246578	 -1.293162
H	 -1.508033	 -0.839650	 0.027695
C	 -4.115514	 -1.059438	 0.041345
H	 -3.835631	 1.034194	 -0.333946
H	 -3.386128	 0.539617	 1.271540
C	 -5.573072	 -0.959051	 0.478636
H	 -4.072939	 -1.356724	 -1.002939
H	 -3.625450	 -1.850401	 0.602657
H	 -6.092367	 -1.899586	 0.334724
H	 -6.100596	 -0.199978	 -0.089373
H	 -5.649498	 -0.696573	 1.528623
C	 4.720529	 -1.114346	 0.001449
H	 4.874321	 -1.055557	 -1.065852
H	 5.057824	 -2.067950	 0.373977
H	 5.264321	 -0.313596	 0.480350

	symmetry c1
}
set optking {
	frozen_dihedral = ("
		17 14 11 15
	")
}

ee,wfn = optimize('scf', return_wfn=True)
oeprop( wfn, 'DIPOLE', 'QUADRUPOLE', 'MULLIKEN_CHARGES')
f=open( 'psi4out.xyz', 'w' )
f.write( "29  " )
f.write( str(ee) + "\n" )
f.write( MOL.save_string_xyz() )
f.close()
--------------------------------------------------------------------------

    Molecular point group: c1
  Charge       = 0
  Multiplicity = 1
  Basis Set: CC-PVTZ
  Basis Set:
  @DF-RHF Final Energy:  -501.22337641688102
    Total Energy =                       -501.2233764168813650
    Molecular point group: c1
  Basis Set: CC-PVTZ
  Basis Set:
  Basis Set: CC-PVTZ
  Basis Set:
  @DF-RHF Final Energy:  -501.21586773985973
    Total Energy =                       -501.2158677398599593
  Basis Set: CC-PVTZ
  Basis Set:
  Basis Set: CC-PVTZ
  Basis Set:
  @DF-RHF Final Energy:  -501.22351318829908
    Total Energy =                       -501.2235131882991936
  Basis Set: CC-PVTZ
  Basis Set:
  Basis Set: CC-PVTZ
  Basis Set:
  @DF-RHF Final Energy:  -501.22353352827554
    Total Energy =                       -501.2235335282757660
  Basis Set: CC-PVTZ
  Basis Set:
  @DF-RHF Final Energy:  -501.22342478042515
    Total Energy =                       -501.2234247804252618
  Basis Set: CC-PVTZ
  Basis Set:
  @DF-RHF Final Energy:  -501.22355458857817
    Total Energy =                       -501.2235545885775991
  Basis Set: CC-PVTZ
  Basis Set:
  Basis Set: CC-PVTZ
  Basis Set:
  @DF-RHF Final Energy:  -501.22356341979184
    Total Energy =                       -501.2235634197925265
  Basis Set: CC-PVTZ
  Basis Set:
  Basis Set: CC-PVTZ
  Basis Set:
  @DF-RHF Final Energy:  -501.22356542402565
    Total Energy =                       -501.2235654240257645
  Basis Set: CC-PVTZ
  Basis Set:
  Charge       = 0
  Multiplicity = 1
  Basis Set: CC-PVTZ
  Basis Set:

    Orbital Energies (a.u.)
    -----------------------

    Doubly Occupied:

       1A    -20.595973     2A    -20.533823     3A    -11.364233
       4A    -11.278233     5A    -11.232935     6A    -11.216889
       7A    -11.215491     8A    -11.214125     9A    -11.213741
      10A    -11.212293    11A    -11.207122    12A     -1.471871
      13A     -1.365453    14A     -1.099142    15A     -1.067787
      16A     -1.020577    17A     -0.977975    18A     -0.928892
      19A     -0.862412    20A     -0.800215    21A     -0.790866
      22A     -0.765599    23A     -0.702696    24A     -0.685437
      25A     -0.676063    26A     -0.649825    27A     -0.630253
      28A     -0.607464    29A     -0.595335    30A     -0.582083
      31A     -0.567595    32A     -0.551261    33A     -0.533322
      34A     -0.530321    35A     -0.519151    36A     -0.511217
      37A     -0.496734    38A     -0.478162    39A     -0.471917
      40A     -0.461273    41A     -0.460593    42A     -0.458103
      43A     -0.443426    44A     -0.436988

  @DF-RHF Final Energy:  -501.22356553702400

   => Energetics <=

    Nuclear Repulsion Energy =            611.5359926895317813
    One-Electron Energy =               -1894.5493707082334822
    Two-Electron Energy =                 781.7898124816778136
    DFT Exchange-Correlation Energy =       0.0000000000000000
    Empirical Dispersion Energy =           0.0000000000000000
    PCM Polarization Energy =               0.0000000000000000
    EFP Energy =                            0.0000000000000000
    Total Energy =                       -501.2235655370237737
    Molecular point group: c1
  Basis Set: CC-PVTZ
  Basis Set:

  -Total Gradient:
     Atom            X                  Y                   Z
    ------   -----------------  -----------------  -----------------
       1        0.000005207841    -0.000001754183     0.000003498478
       2        0.000000332949     0.000002007492    -0.000002582604
       3       -0.000000028555    -0.000011761884     0.000001788343
       4        0.000000855852     0.000001399884    -0.000001083456
       5       -0.000000101325     0.000002525512    -0.000011682808
       6       -0.000000062575     0.000000858955     0.000003693245
       7        0.000000635148     0.000002912678     0.000000723260
       8       -0.000001387498     0.000005426036     0.000005577357
       9        0.000000536709     0.000005206396    -0.000002281295
      10        0.000002853727    -0.000003444790     0.000001446950
      11       -0.000253330405    -0.004421370218     0.001511087068
      12       -0.000001924914    -0.000000907367     0.000001940913
      13        0.000000767393     0.000004382793    -0.000001245938
      14       -0.000774314166     0.001165490276    -0.003618671986
      15        0.000405046449     0.003497646991    -0.000397155377
      16       -0.000000341467    -0.000004106798     0.000000953225
      17        0.000622472877    -0.000236393413     0.002494752088
      18       -0.000002658434     0.000002056975     0.000001015093
      19        0.000002192599     0.000000100637    -0.000001378206
      20        0.000002704383    -0.000007017098     0.000012316196
      21        0.000000203582    -0.000004343160    -0.000005432908
      22       -0.000004237009    -0.000002161932     0.000002118140
      23       -0.000002287970    -0.000002107064     0.000003585805
      24        0.000004012949     0.000000138003    -0.000004537142
      25       -0.000001984462     0.000003458348     0.000002650616
      26       -0.000002454807    -0.000001156556    -0.000001476243
      27       -0.000001192937     0.000000244227    -0.000001684331
      28       -0.000000031663    -0.000000312823     0.000000782179
      29       -0.000001484268     0.000002982082     0.000001283338

  **** Optimization is complete! (in 9 steps) ****
    Final optimized geometry and variables:
    Molecular point group: c1

    Geometry (in Angstrom), charge = 0, multiplicity = 1:

    O            3.191119159241     0.830785643420    -0.919385731482
    C            2.684351226088     0.057545305639    -0.180280933809
    C            1.240004525223     0.073154598886     0.250996956198
    O            3.340280782897    -0.947697847666     0.376823405711
    C            0.435654899669     1.212149110498    -0.363053853924
    H            0.826974030833    -0.896558462717     0.000402297995
    H            1.230892664016     0.128598978147     1.335054673027
    C           -1.005951014229     1.290111257119     0.140531241436
    H            0.442828692166     1.113644390893    -1.443026789104
    H            0.938486478864     2.146505161653    -0.145703510609
    C           -1.895426480449     0.109502999574    -0.252570729155
    H           -1.449562341597     2.201739845535    -0.249375652835
    H           -1.006251286704     1.395233716088     1.223118808898
    C           -3.361271108961     0.324528361667     0.130722908339
    H           -1.822068598791    -0.022180756370    -1.329228825027
    H           -1.531508604189    -0.802951893711     0.208052959100
    C           -4.169774230740    -0.967823499964     0.205860158938
    H           -3.823742529912     1.009462912593    -0.574540277396
    H           -3.408123360662     0.814211770314     1.100835384906
    C           -5.638368473144    -0.738396797798     0.546269267302
    H           -4.098534807541    -1.496464480065    -0.741423929606
    H           -3.724351015871    -1.620152939097     0.951650687816
    H           -6.179728286842    -1.675711812408     0.604493300045
    H           -6.122712939376    -0.123019599163    -0.204557756858
    H           -5.744318883392    -0.235495977043     1.501930303767
    C            4.710664247540    -1.083325534713     0.059689456740
    H            4.843510073431    -1.234184655592    -1.001369298045
    H            5.058383937902    -1.945974460501     0.604530325342
    H            5.260956823710    -0.204719836527     0.362182963810

  Mulliken Charges: (a.u.)
   Center  Symbol    Alpha    Beta     Spin     Total
       1     O     4.19700  4.19700  0.00000 -0.39400
       2     C     2.80507  2.80507  0.00000  0.38985
       3     C     3.10143  3.10143  0.00000 -0.20285
       4     O     4.14720  4.14720  0.00000 -0.29441
       5     C     3.09263  3.09263  0.00000 -0.18526
       6     H     0.43896  0.43896  0.00000  0.12208
       7     H     0.43988  0.43988  0.00000  0.12024
       8     C     3.10355  3.10355  0.00000 -0.20710
       9     H     0.44626  0.44626  0.00000  0.10749
      10     H     0.43960  0.43960  0.00000  0.12079
      11     C     3.09424  3.09424  0.00000 -0.18847
      12     H     0.44524  0.44524  0.00000  0.10953
      13     H     0.45415  0.45415  0.00000  0.09170
      14     C     3.08700  3.08700  0.00000 -0.17399
      15     H     0.45225  0.45225  0.00000  0.09549
      16     H     0.45380  0.45380  0.00000  0.09241
      17     C     3.08365  3.08365  0.00000 -0.16730
      18     H     0.45187  0.45187  0.00000  0.09625
      19     H     0.45583  0.45583  0.00000  0.08834
      20     C     3.15045  3.15045  0.00000 -0.30089
      21     H     0.45439  0.45439  0.00000  0.09122
      22     H     0.45513  0.45513  0.00000  0.08974
      23     H     0.44842  0.44842  0.00000  0.10317
      24     H     0.45483  0.45483  0.00000  0.09035
      25     H     0.45520  0.45520  0.00000  0.08961
      26     C     3.03814  3.03814  0.00000 -0.07627
      27     H     0.45435  0.45435  0.00000  0.09129
      28     H     0.44527  0.44527  0.00000  0.10946
      29     H     0.45423  0.45423  0.00000  0.09154

   Total alpha = 44.00000, Total beta = 44.00000, Total charge = -0.00000

*** Psi4 exiting successfully. Buy a developer a beer!
