  ==> Input File <==

--------------------------------------------------------------------------
set {
	reference rhf
	basis cc-pvtz
}

set_num_threads( 4 )
memory 2 gb

molecule MOL {
0 1

H	 1.651322	 -0.822465	 0.000000
O	 0.729993	 -1.034364	 0.000000
C	 0.037305	 0.100061	 0.000000
C	 -1.370419	 -0.100877	 -0.475407
O	 0.507959	 1.129014	 0.341373
H	 -1.358451	 -0.506644	 -1.478741
H	 -1.894620	 0.840236	 -0.459736
H	 -1.868699	 -0.818204	 0.163832

	symmetry c1
}
set optking {
	frozen_dihedral = ("
		4 3 2 1
	")
}

ee = optimize('scf')
oeprop('DIPOLE', 'QUADRUPOLE', 'MULLIKEN_CHARGES')
f=open( 'psi4out.xyz', 'w' )
f.write( "8  " )
f.write( str(ee) + "\n" )
f.write( MOL.save_string_xyz() )
f.close()
--------------------------------------------------------------------------

    Molecular point group: c1
  Charge       = 0
  Multiplicity = 1
  Basis Set: CC-PVTZ
  Basis Set:
  @DF-RHF Final Energy:  -227.90232177358274
    Total Energy =                       -227.9023217735828553
    Molecular point group: c1
  Basis Set: CC-PVTZ
  Basis Set:
  Basis Set: CC-PVTZ
  Basis Set:
  @DF-RHF Final Energy:  -227.90018905129944
    Total Energy =                       -227.9001890512994351
  Basis Set: CC-PVTZ
  Basis Set:
  Basis Set: CC-PVTZ
  Basis Set:
  @DF-RHF Final Energy:  -227.90251679250269
    Total Energy =                       -227.9025167925026381
  Basis Set: CC-PVTZ
  Basis Set:
  Basis Set: CC-PVTZ
  Basis Set:
  @DF-RHF Final Energy:  -227.90256585488811
    Total Energy =                       -227.9025658548881097
  Basis Set: CC-PVTZ
  Basis Set:
  Basis Set: CC-PVTZ
  Basis Set:
  @DF-RHF Final Energy:  -227.90262810620851
    Total Energy =                       -227.9026281062085104
  Basis Set: CC-PVTZ
  Basis Set:
  Basis Set: CC-PVTZ
  Basis Set:
  @DF-RHF Final Energy:  -227.90263978480368
    Total Energy =                       -227.9026397848037107
  Basis Set: CC-PVTZ
  Basis Set:
  Charge       = 0
  Multiplicity = 1
  Basis Set: CC-PVTZ
  Basis Set:

    Orbital Energies (a.u.)
    -----------------------

    Doubly Occupied:

       1A    -20.605406     2A    -20.543010     3A    -11.378622
       4A    -11.239491     5A     -1.478801     6A     -1.371967
       7A     -1.028085     8A     -0.834265     9A     -0.707183
      10A     -0.685616    11A     -0.658243    12A     -0.584674
      13A     -0.576200    14A     -0.558588    15A     -0.486714
      16A     -0.452456

  @DF-RHF Final Energy:  -227.90264054954986

   => Energetics <=

    Nuclear Repulsion Energy =            122.7364142524190385
    One-Electron Energy =                -554.8994669918654381
    Two-Electron Energy =                 204.2604121898965559
    DFT Exchange-Correlation Energy =       0.0000000000000000
    Empirical Dispersion Energy =           0.0000000000000000
    PCM Polarization Energy =               0.0000000000000000
    EFP Energy =                            0.0000000000000000
    Total Energy =                       -227.9026405495498580
    Molecular point group: c1
  Basis Set: CC-PVTZ
  Basis Set:

  -Total Gradient:
     Atom            X                  Y                   Z
    ------   -----------------  -----------------  -----------------
       1       -0.000079240788    -0.000535502968    -0.006866737885
       2        0.000631070969     0.000656041316     0.006627695851
       3       -0.001823405036    -0.000421869644     0.004473303069
       4        0.001308989749     0.000406096335    -0.004223403662
       5       -0.000043061769    -0.000066651044    -0.000019573127
       6        0.000008582019    -0.000001752742     0.000010044285
       7        0.000010004487    -0.000012938650    -0.000006562894
       8       -0.000012939632    -0.000023422601     0.000005234363

  **** Optimization is complete! (in 7 steps) ****
    Final optimized geometry and variables:
    Molecular point group: c1

    Geometry (in Angstrom), charge = 0, multiplicity = 1:

    H            1.627091833817    -0.860981873265     0.112567247232
    O            0.701160389363    -1.049245098781     0.132498081596
    C            0.029718204142     0.097896735982     0.041627287296
    C           -1.384343844177    -0.111202235241    -0.411223877935
    O            0.537409235460     1.145716568228     0.239030251160
    H           -1.362126562918    -0.406318885693    -1.453212842075
    H           -1.941577351285     0.804895839792    -0.303524937137
    H           -1.851091246941    -0.910241008352     0.148469566488

  Mulliken Charges: (a.u.)
   Center  Symbol    Alpha    Beta     Spin     Total
       1     H     0.37929  0.37929  0.00000  0.24143
       2     O     4.16395  4.16395  0.00000 -0.32789
       3     C     2.80314  2.80314  0.00000  0.39372
       4     C     3.13815  3.13815  0.00000 -0.27630
       5     O     4.18871  4.18871  0.00000 -0.37743
       6     H     0.44510  0.44510  0.00000  0.10979
       7     H     0.43779  0.43779  0.00000  0.12442
       8     H     0.44387  0.44387  0.00000  0.11225

   Total alpha = 16.00000, Total beta = 16.00000, Total charge =  0.00000
