  ==> Input File <==

--------------------------------------------------------------------------
set {
	reference rhf
	basis cc-pvtz
}

set_num_threads( 4 )
memory 2 gb

molecule MOL {
0 1

H	 -0.419207	 2.977476	 -2.601896
O	 -0.903492	 2.190767	 -2.430260
C	 -0.511965	 1.639005	 -1.204534
C	 0.855360	 0.991342	 -1.298074
H	 -0.508501	 2.383511	 -0.414706
H	 -1.247507	 0.890762	 -0.946091
O	 1.172093	 0.457955	 -0.054438
H	 1.598538	 1.732446	 -1.596987
H	 0.839704	 0.218060	 -2.063165
C	 2.395478	 -0.199028	 -0.000366
H	 2.505946	 -0.901710	 -0.823354
H	 3.174616	 0.545641	 -0.071768
H	 2.513730	 -0.742241	 0.934223

	symmetry c1
}
set optking {
	frozen_dihedral = ("
		4 7 10 13
	")
}

ee = optimize('scf')
oeprop('DIPOLE', 'QUADRUPOLE', 'MULLIKEN_CHARGES')
f=open( 'psi4out.xyz', 'w' )
f.write( "13  " )
f.write( str(ee) + "\n" )
f.write( MOL.save_string_xyz() )
f.close()
--------------------------------------------------------------------------

    Molecular point group: c1
  Charge       = 0
  Multiplicity = 1
  Basis Set: CC-PVTZ
  Basis Set:
  @DF-RHF Final Energy:  -268.06107212104291
    Total Energy =                       -268.0610721210427414
    Molecular point group: c1
  Basis Set: CC-PVTZ
  Basis Set:
  Basis Set: CC-PVTZ
  Basis Set:
  @DF-RHF Final Energy:  -268.06187537237508
    Total Energy =                       -268.0618753723752548
  Basis Set: CC-PVTZ
  Basis Set:
  Basis Set: CC-PVTZ
  Basis Set:
  @DF-RHF Final Energy:  -268.06208024672134
    Total Energy =                       -268.0620802467214503
  Basis Set: CC-PVTZ
  Basis Set:
  Charge       = 0
  Multiplicity = 1
  Basis Set: CC-PVTZ
  Basis Set:

    Orbital Energies (a.u.)
    -----------------------

    Doubly Occupied:

       1A    -20.555880     2A    -20.552871     3A    -11.269345
       4A    -11.267770     5A    -11.267475     6A     -1.391878
       7A     -1.369251     8A     -1.019770     9A     -0.914030
      10A     -0.842858    11A     -0.712128    12A     -0.676300
      13A     -0.662973    14A     -0.639574    15A     -0.597417
      16A     -0.571896    17A     -0.546565    18A     -0.491880
      19A     -0.482995    20A     -0.441707    21A     -0.424570

  @DF-RHF Final Energy:  -268.06208100324557

   => Energetics <=

    Nuclear Repulsion Energy =            190.4933603682304408
    One-Electron Energy =                -743.7126193287003844
    Two-Electron Energy =                 285.1571779572245191
    DFT Exchange-Correlation Energy =       0.0000000000000000
    Empirical Dispersion Energy =           0.0000000000000000
    PCM Polarization Energy =               0.0000000000000000
    EFP Energy =                            0.0000000000000000
    Total Energy =                       -268.0620810032453960
    Molecular point group: c1
  Basis Set: CC-PVTZ
  Basis Set:

  -Total Gradient:
     Atom            X                  Y                   Z
    ------   -----------------  -----------------  -----------------
       1        0.000004103482     0.000009282742    -0.000008639183
       2        0.000087643487    -0.000032429871     0.000055234031
       3       -0.000044444684    -0.000042773445     0.000087679141
       4       -0.000400734511    -0.001001444004    -0.000405232528
       5       -0.000013082733     0.000024600124    -0.000006013297
       6       -0.000003116338    -0.000005016400     0.000010238963
       7        0.000522814542     0.001118428814     0.000319097702
       8        0.000008672821    -0.000006424648     0.000035437868
       9        0.000002137175    -0.000003951355    -0.000018572422
      10        0.000510131018     0.000954268661     0.000498593638
      11       -0.000034471780     0.000012266035    -0.000010241446
      12       -0.000035110021     0.000025195760     0.000004184214
      13       -0.000604542463    -0.001052002411    -0.000561766682

  **** Optimization is complete! (in 4 steps) ****
    Final optimized geometry and variables:
    Molecular point group: c1

    Geometry (in Angstrom), charge = 0, multiplicity = 1:

    H           -1.030401955168     1.943325997959    -1.576775982219
    O           -1.511431828476     1.154326619615    -1.406391185183
    C           -1.115132732382     0.600511004147    -0.183186082219
    C            0.255059986440    -0.040173702782    -0.281842144110
    H           -1.114029235807     1.342510248875     0.609001872774
    H           -1.846274112336    -0.152439894542     0.074164903786
    O            0.573784309003    -0.580581131731     0.958160576420
    H            0.994027755179     0.706895814998    -0.576978907060
    H            0.243010369167    -0.809112679647    -1.051061967254
    C            1.803976553069    -1.225306480670     1.012966589663
    H            1.906635624466    -1.951319356471     0.209931576192
    H            2.627502078379    -0.518316391037     0.945631015493
    H            1.861775118863    -1.749626891773     1.955624300857

  Mulliken Charges: (a.u.)
   Center  Symbol    Alpha    Beta     Spin     Total
       1     H     0.39411  0.39411  0.00000  0.21177
       2     O     4.20211  4.20211  0.00000 -0.40421
       3     C     2.97349  2.97349  0.00000  0.05302
       4     C     2.96524  2.96524  0.00000  0.06952
       5     H     0.46667  0.46667  0.00000  0.06665
       6     H     0.45277  0.45277  0.00000  0.09447
       7     O     4.17572  4.17572  0.00000 -0.35144
       8     H     0.48286  0.48286  0.00000  0.03427
       9     H     0.46863  0.46863  0.00000  0.06274
      10     C     3.03161  3.03161  0.00000 -0.06323
      11     H     0.47163  0.47163  0.00000  0.05674
      12     H     0.46891  0.46891  0.00000  0.06217
      13     H     0.44624  0.44624  0.00000  0.10752

   Total alpha = 21.00000, Total beta = 21.00000, Total charge =  0.00000
