  ==> Input File <==

--------------------------------------------------------------------------
set {
	reference rhf
	basis cc-pvtz
}

set_num_threads( 4 )
memory 2 gb

molecule MOL {
0 1

H	 -2.644180	 -0.653737	 1.272255
C	 -2.092774	 -0.380414	 0.391915
O	 -0.808934	 -0.154049	 0.752536
F	 -2.163230	 -1.351640	 -0.507133
F	 -2.627232	 0.691260	 -0.169301
C	 0.085006	 0.250800	 -0.215074
C	 1.370439	 -0.548013	 -0.012993
Cl	 0.421658	 1.987697	 -0.091007
H	 -0.272219	 0.063284	 -1.212508
F	 2.316405	 0.219552	 0.465561
F	 1.772968	 -1.009956	 -1.173120
F	 1.203000	 -1.559166	 0.794339

	symmetry c1
}
set optking {
	frozen_dihedral = ("
		10 7 6 9
	")
}

ee = optimize('scf')
oeprop('DIPOLE', 'QUADRUPOLE', 'MULLIKEN_CHARGES')
f=open( 'psi4out.xyz', 'w' )
f.write( "12  " )
f.write( str(ee) + "\n" )
f.write( MOL.save_string_xyz() )
f.close()
--------------------------------------------------------------------------

    Molecular point group: c1
  Charge       = 0
  Multiplicity = 1
  Basis Set: CC-PVTZ
  Basis Set:
  @DF-RHF Final Energy: -1146.60962754352295
    Total Energy =                      -1146.6096275435224925
    Molecular point group: c1
  Basis Set: CC-PVTZ
  Basis Set:
  Basis Set: CC-PVTZ
  Basis Set:
  @DF-RHF Final Energy: -1146.60997221094112
    Total Energy =                      -1146.6099722109418053
  Basis Set: CC-PVTZ
  Basis Set:
  Basis Set: CC-PVTZ
  Basis Set:
  @DF-RHF Final Energy: -1146.61193831218725
    Total Energy =                      -1146.6119383121874762
  Basis Set: CC-PVTZ
  Basis Set:
  Basis Set: CC-PVTZ
  Basis Set:
  @DF-RHF Final Energy: -1146.61203958519764
    Total Energy =                      -1146.6120395851971807
  Basis Set: CC-PVTZ
  Basis Set:
  @DF-RHF Final Energy: -1146.61205960273901
    Total Energy =                      -1146.6120596027385545
  @DF-RHF Final Energy: -1146.61206953085525
    Total Energy =                      -1146.6120695308557060
  Basis Set: CC-PVTZ
  Basis Set:
  @DF-RHF Final Energy: -1146.61208162147341
    Total Energy =                      -1146.6120816214738625
  Basis Set: CC-PVTZ
  Basis Set:
  Basis Set: CC-PVTZ
  Basis Set:
  @DF-RHF Final Energy: -1146.61208669725943
    Total Energy =                      -1146.6120866972605654
  Basis Set: CC-PVTZ
  Basis Set:
  Basis Set: CC-PVTZ
  Basis Set:
  @DF-RHF Final Energy: -1146.61208850369121
    Total Energy =                      -1146.6120885036914387
  Basis Set: CC-PVTZ
  Basis Set:
  Charge       = 0
  Multiplicity = 1
  Basis Set: CC-PVTZ
  Basis Set:

    Orbital Energies (a.u.)
    -----------------------

    Doubly Occupied:

       1A   -104.855004     2A    -26.354894     3A    -26.353185
       4A    -26.351962     5A    -26.343854     6A    -26.343629
       7A    -20.640198     8A    -11.522423     9A    -11.484364
      10A    -11.402299    11A    -10.580603    12A     -8.047376
      13A     -8.045412    14A     -8.045318    15A     -1.768460
      16A     -1.725147    17A     -1.663538    18A     -1.659400
      19A     -1.645249    20A     -1.487583    21A     -1.175106
      22A     -1.048241    23A     -0.991853    24A     -0.924522
      25A     -0.862217    26A     -0.859095    27A     -0.852124
      28A     -0.831681    29A     -0.820288    30A     -0.795773
      31A     -0.733825    32A     -0.733035    33A     -0.710585
      34A     -0.708735    35A     -0.685367    36A     -0.679676
      37A     -0.665523    38A     -0.662809    39A     -0.650651
      40A     -0.635311    41A     -0.598731    42A     -0.579356
      43A     -0.523448    44A     -0.477005    45A     -0.468196

  @DF-RHF Final Energy: -1146.61208875434863

   => Energetics <=

    Nuclear Repulsion Energy =            735.8327121341972088
    One-Electron Energy =               -3054.9034975107024366
    Two-Electron Energy =                1172.4586966221575040
    DFT Exchange-Correlation Energy =       0.0000000000000000
    Empirical Dispersion Energy =           0.0000000000000000
    PCM Polarization Energy =               0.0000000000000000
    EFP Energy =                            0.0000000000000000
    Total Energy =                      -1146.6120887543477238
    Molecular point group: c1
  Basis Set: CC-PVTZ
  Basis Set:

  -Total Gradient:
     Atom            X                  Y                   Z
    ------   -----------------  -----------------  -----------------
       1        0.000008529832     0.000005310222     0.000004232087
       2       -0.000036075369    -0.000010505179    -0.000055375562
       3        0.000045055280     0.000031468556     0.000023039315
       4       -0.000003922403     0.000001551409     0.000011397890
       5       -0.000002692305    -0.000006357957     0.000017235382
       6       -0.002839584378    -0.004204769230     0.000520156201
       7       -0.001023151603    -0.000657457372     0.004847243284
       8        0.000005510016    -0.000019436568     0.000000679188
       9        0.002673851387     0.003774966195    -0.001536155913
      10        0.001216170886     0.001107223345    -0.003840585836
      11       -0.000034849064    -0.000011109280     0.000041234378
      12       -0.000008842268    -0.000010884118    -0.000033100414

  **** Optimization is complete! (in 10 steps) ****
    Final optimized geometry and variables:
    Molecular point group: c1

    Geometry (in Angstrom), charge = 0, multiplicity = 1:

    H           -2.677129514972    -0.604806782287     1.274646794561
    C           -2.095780918707    -0.383672529389     0.398980794795
    O           -0.846736223285    -0.050908468890     0.794127837808
    F           -2.067399157136    -1.437270103719    -0.405556607373
    F           -2.657087346914     0.598406183657    -0.287329378656
    C            0.068387695318     0.301930042322    -0.170853083334
    C            1.360637376664    -0.546303066638    -0.011576212920
    CL           0.424043059235     2.039262930038    -0.070219910306
    H           -0.288904245823     0.148992288211    -1.172016375323
    F            2.371637253385     0.114080036214     0.478786225681
    F            1.716862027940    -0.972688134766    -1.206170119403
    F            1.146845290316    -1.592303428754     0.738710034993

  Mulliken Charges: (a.u.)
   Center  Symbol    Alpha    Beta     Spin     Total
       1     H     0.45143  0.45143  0.00000  0.09714
       2     C     2.73808  2.73808  0.00000  0.52385
       3     O     4.15054  4.15054  0.00000 -0.30108
       4     F     4.61841  4.61841  0.00000 -0.23682
       5     F     4.61570  4.61570  0.00000 -0.23139
       6     C     2.96008  2.96008  0.00000  0.07984
       7     C     2.66208  2.66208  0.00000  0.67583
       8    CL     8.57053  8.57053  0.00000 -0.14105
       9     H     0.43165  0.43165  0.00000  0.13669
      10     F     4.59528  4.59528  0.00000 -0.19055
      11     F     4.60830  4.60830  0.00000 -0.21659
      12     F     4.59793  4.59793  0.00000 -0.19586

   Total alpha = 45.00000, Total beta = 45.00000, Total charge =  0.00000
