  ==> Input File <==

--------------------------------------------------------------------------
set {
	reference rhf
	basis 6-31G*
}

set_num_threads( 4 )
memory 2 gb

molecule MOL {
0 1

H	 3.246729	 -1.351371	 -0.710104
O	 2.826016	 -1.159218	 0.122261
C	 2.077727	 -0.067559	 -0.035091
C	 0.624473	 -0.343591	 0.253101
O	 2.542965	 0.974826	 -0.363729
C	 -0.265902	 0.883932	 0.072916
H	 0.324016	 -1.163849	 -0.390541
H	 0.565024	 -0.726111	 1.268924
C	 -1.728698	 0.646073	 0.462102
H	 -0.209144	 1.219470	 -0.958188
H	 0.135059	 1.692851	 0.673903
C	 -2.482460	 -0.343073	 -0.431425
H	 -2.245265	 1.602650	 0.432430
H	 -1.779332	 0.308348	 1.496285
C	 -3.960546	 -0.461025	 -0.060175
H	 -2.395034	 -0.026811	 -1.468912
H	 -2.024850	 -1.327147	 -0.371646
H	 -4.472726	 -1.168004	 -0.705284
H	 -4.465146	 0.496508	 -0.151489
H	 -4.081218	 -0.800940	 0.964585

	symmetry c1
}
set optking {
	frozen_dihedral = ("
		1 2 3 5
	")
}

ee = optimize('scf')
oeprop('DIPOLE', 'QUADRUPOLE', 'MULLIKEN_CHARGES')
f=open( 'psi4out.xyz', 'w' )
f.write( "20  " )
f.write( str(ee) + "\n" )
f.write( MOL.save_string_xyz() )
f.close()
--------------------------------------------------------------------------

    Molecular point group: c1
  Charge       = 0
  Multiplicity = 1
  Basis Set: 6-31G*
  Basis Set:
  @DF-RHF Final Energy:  -383.93225156010112
    Total Energy =                       -383.9322515601011219
    Molecular point group: c1
  Basis Set: 6-31G*
  Basis Set:
  Basis Set: 6-31G*
  Basis Set:
  @DF-RHF Final Energy:  -383.93074401955562
    Total Energy =                       -383.9307440195556751
  Basis Set: 6-31G*
  Basis Set:
  Basis Set: 6-31G*
  Basis Set:
  @DF-RHF Final Energy:  -383.93346665077246
    Total Energy =                       -383.9334666507721181
  Basis Set: 6-31G*
  Basis Set:
  Basis Set: 6-31G*
  Basis Set:
  @DF-RHF Final Energy:  -383.93367369950943
    Total Energy =                       -383.9336736995091428
  Basis Set: 6-31G*
  Basis Set:
  Basis Set: 6-31G*
  Basis Set:
  @DF-RHF Final Energy:  -383.93367891336106
    Total Energy =                       -383.9336789133611774
  Basis Set: 6-31G*
  Basis Set:
  Charge       = 0
  Multiplicity = 1
  Basis Set: 6-31G*
  Basis Set:

    Orbital Energies (a.u.)
    -----------------------

    Doubly Occupied:

       1A    -20.599015     2A    -20.558975     3A    -11.381251
       4A    -11.239941     5A    -11.222867     6A    -11.221330
       7A    -11.220532     8A    -11.213023     9A     -1.463021
      10A     -1.366712    11A     -1.095945    12A     -1.040211
      13A     -0.959498    14A     -0.866637    15A     -0.816119
      16A     -0.778494    17A     -0.705617    18A     -0.681276
      19A     -0.662955    20A     -0.631184    21A     -0.615790
      22A     -0.587601    23A     -0.560553    24A     -0.549010
      25A     -0.542006    26A     -0.509303    27A     -0.500363
      28A     -0.485335    29A     -0.469871    30A     -0.466225
      31A     -0.457818    32A     -0.443042

  @DF-RHF Final Energy:  -383.93367979308471

   => Energetics <=

    Nuclear Repulsion Energy =            375.2776534514283640
    One-Electron Energy =               -1266.5996230173714139
    Two-Electron Energy =                 507.3882897728582293
    DFT Exchange-Correlation Energy =       0.0000000000000000
    Empirical Dispersion Energy =           0.0000000000000000
    PCM Polarization Energy =               0.0000000000000000
    EFP Energy =                            0.0000000000000000
    Total Energy =                       -383.9336797930848206
    Molecular point group: c1
  Basis Set: 6-31G*
  Basis Set:

  -Total Gradient:
     Atom            X                  Y                   Z
    ------   -----------------  -----------------  -----------------
       1       -0.008033616615    -0.006666710855    -0.003308132538
       2        0.010192284572     0.009654543429     0.008500661405
       3       -0.002678283061    -0.005737108811    -0.014597171097
       4        0.000036776294    -0.000034235852    -0.000047503210
       5        0.000461883928     0.002722844178     0.009393060768
       6       -0.000013798519    -0.000005548052     0.000006885066
       7        0.000027646205     0.000025523676     0.000016972078
       8        0.000014762677     0.000039714796     0.000033391830
       9       -0.000007287751     0.000005879462     0.000003527218
      10        0.000000905430    -0.000002211022    -0.000008727772
      11       -0.000001168976    -0.000002582518     0.000000855722
      12        0.000008022136    -0.000003223595     0.000002976168
      13       -0.000005157982    -0.000000908376     0.000003009033
      14        0.000003736332    -0.000003856814     0.000003572729
      15       -0.000002197366     0.000010913439    -0.000002929464
      16        0.000002533236    -0.000005151953    -0.000000456206
      17       -0.000005994947     0.000000645585     0.000000610058
      18        0.000000114753     0.000003063511    -0.000002094960
      19       -0.000002647811     0.000000713026     0.000003665473
      20        0.000001487454    -0.000002303257    -0.000002172300

  **** Optimization is complete! (in 6 steps) ****
    Final optimized geometry and variables:
    Molecular point group: c1

    Geometry (in Angstrom), charge = 0, multiplicity = 1:

    H            3.376003282061    -1.386348038576    -0.563652146450
    O            2.862059661700    -1.141249307414     0.196819399098
    C            2.079539339801    -0.068785299642    -0.073824232306
    C            0.628138398512    -0.341325953332     0.227014689974
    O            2.530040160350     0.972153342421    -0.407539597990
    C           -0.266657953200     0.886417304857     0.076627914858
    H            0.318069700900    -1.155355515542    -0.421628483325
    H            0.584633398521    -0.741048213036     1.237220506844
    C           -1.724599569070     0.641596384865     0.479853146935
    H           -0.223142977767     1.239262410892    -0.949512964637
    H            0.140949783250     1.686048086656     0.685795778320
    C           -2.489453830908    -0.331897135908    -0.421406640366
    H           -2.241759477388     1.598282213517     0.473371669602
    H           -1.762214453213     0.285741892457     1.508426664249
    C           -3.963147493044    -0.455689158665    -0.034898470962
    H           -2.414194845015     0.001984408346    -1.454396566142
    H           -2.031726604769    -1.317082887702    -0.383655001711
    H           -4.483513954913    -1.151000738794    -0.686141462383
    H           -4.468070336096     0.503555768358    -0.103442278534
    H           -4.071844891427    -0.813381428550     0.985106340634

  Mulliken Charges: (a.u.)
   Center  Symbol    Alpha    Beta     Spin     Total
       1     H     0.26605  0.26605  0.00000  0.46791
       2     O     4.36512  4.36512  0.00000 -0.73024
       3     C     2.62914  2.62914  0.00000  0.74173
       4     C     3.21158  3.21158  0.00000 -0.42316
       5     O     4.25562  4.25562  0.00000 -0.51125
       6     C     3.15469  3.15469  0.00000 -0.30937
       7     H     0.40328  0.40328  0.00000  0.19344
       8     H     0.39761  0.39761  0.00000  0.20477
       9     C     3.15538  3.15538  0.00000 -0.31075
      10     H     0.41342  0.41342  0.00000  0.17317
      11     H     0.40776  0.40776  0.00000  0.18447
      12     C     3.15469  3.15469  0.00000 -0.30939
      13     H     0.41785  0.41785  0.00000  0.16429
      14     H     0.42324  0.42324  0.00000  0.15352
      15     C     3.23920  3.23920  0.00000 -0.47839
      16     H     0.42197  0.42197  0.00000  0.15607
      17     H     0.42329  0.42329  0.00000  0.15342
      18     H     0.41855  0.41855  0.00000  0.16291
      19     H     0.42049  0.42049  0.00000  0.15902
      20     H     0.42108  0.42108  0.00000  0.15785

   Total alpha = 32.00000, Total beta = 32.00000, Total charge =  0.00000
