                              Psi4 1.0.54 Driver

  ==> Input File <==

--------------------------------------------------------------------------
set {
	reference rhf
	basis cc-pvtz
}

set_num_threads( 4 )
memory 2 gb

molecule MOL {
0 1

H	 3.721907	 -0.933076	 -0.066039
O	 2.824271	 -1.154299	 0.131461
C	 2.076458	 -0.067370	 -0.038225
C	 0.626018	 -0.337582	 0.258241
O	 2.538288	 0.965419	 -0.381593
C	 -0.267326	 0.883135	 0.076490
H	 0.325620	 -1.161483	 -0.378003
H	 0.574537	 -0.713685	 1.275261
C	 -1.726822	 0.642622	 0.463839
H	 -0.210803	 1.217591	 -0.953497
H	 0.129920	 1.693110	 0.675679
C	 -2.450172	 1.854464	 1.048856
H	 -1.752811	 -0.160516	 1.194284
H	 -2.276532	 0.279509	 -0.401848
C	 -3.865973	 1.527799	 1.512834
H	 -1.876868	 2.241200	 1.887183
H	 -2.496496	 2.653303	 0.315599
H	 -4.355621	 2.402479	 1.924977
H	 -3.858977	 0.760151	 2.279232
H	 -4.473387	 1.165936	 0.689877

	symmetry c1
}
set optking {
	frozen_dihedral = ("
		12 9 6 10
	")
}

ee,wfn = optimize('scf', return_wfn=True)
oeprop( wfn, 'DIPOLE', 'QUADRUPOLE', 'MULLIKEN_CHARGES')
f=open( 'psi4out.xyz', 'w' )
f.write( "20  " )
f.write( str(ee) + "\n" )
f.write( MOL.save_string_xyz() )
f.close()
--------------------------------------------------------------------------

    Molecular point group: c1
  Charge       = 0
  Multiplicity = 1
  Basis Set: CC-PVTZ
  Basis Set:
  @DF-RHF Final Energy:  -384.09304488350540
    Total Energy =                       -384.0930448835054563
    Molecular point group: c1
  Basis Set: CC-PVTZ
  Basis Set:
  Basis Set: CC-PVTZ
  Basis Set:
  @DF-RHF Final Energy:  -384.09366544471357
    Total Energy =                       -384.0936654447129399
  Basis Set: CC-PVTZ
  Basis Set:
  Basis Set: CC-PVTZ
  Basis Set:
  @DF-RHF Final Energy:  -384.09381621753971
    Total Energy =                       -384.0938162175397679
  Basis Set: CC-PVTZ
  Basis Set:
  Basis Set: CC-PVTZ
  Basis Set:
  @DF-RHF Final Energy:  -384.09361695789738
    Total Energy =                       -384.0936169578973249
  Basis Set: CC-PVTZ
  Basis Set:
  Basis Set: CC-PVTZ
  Basis Set:
  @DF-RHF Final Energy:  -384.09388465816187
    Total Energy =                       -384.0938846581618691
  Basis Set: CC-PVTZ
  Basis Set:
  Charge       = 0
  Multiplicity = 1
  Basis Set: CC-PVTZ
  Basis Set:

    Orbital Energies (a.u.)
    -----------------------

    Doubly Occupied:

       1A    -20.603853     2A    -20.540520     3A    -11.373253
       4A    -11.239165     5A    -11.220856     6A    -11.218306
       7A    -11.216889     8A    -11.209248     9A     -1.477441
      10A     -1.368945    11A     -1.096277    12A     -1.043832
      13A     -0.959916    14A     -0.869951    15A     -0.805634
      16A     -0.790923    17A     -0.703674    18A     -0.689809
      19A     -0.670581    20A     -0.639125    21A     -0.599120
      22A     -0.596513    23A     -0.570245    24A     -0.562814
      25A     -0.541450    26A     -0.508712    27A     -0.491716
      28A     -0.484359    29A     -0.473679    30A     -0.466513
      31A     -0.464202    32A     -0.443660

  @DF-RHF Final Energy:  -384.09388532604902

   => Energetics <=

    Nuclear Repulsion Energy =            372.3049094934299887
    One-Electron Energy =               -1260.9152235226729317
    Two-Electron Energy =                 504.5164287031936396
    DFT Exchange-Correlation Energy =       0.0000000000000000
    Empirical Dispersion Energy =           0.0000000000000000
    PCM Polarization Energy =               0.0000000000000000
    EFP Energy =                            0.0000000000000000
    Total Energy =                       -384.0938853260493602
    Molecular point group: c1
  Basis Set: CC-PVTZ
  Basis Set:

  -Total Gradient:
     Atom            X                  Y                   Z
    ------   -----------------  -----------------  -----------------
       1       -0.000049329469     0.000007931560     0.000012426169
       2        0.000051223046     0.000016482186     0.000037486500
       3       -0.000032619057     0.000031122492    -0.000169583478
       4        0.000034172888     0.000001909208    -0.000003162086
       5        0.000024386633    -0.000049527138     0.000092814453
       6       -0.000259940790     0.004633719540     0.002634765248
       7        0.000018653458     0.000007881887     0.000001614803
       8       -0.000035171755    -0.000017720623     0.000034937413
       9       -0.001054617286     0.000330464876    -0.004222861774
      10        0.000491157511    -0.004067863474    -0.001342790577
      11       -0.000029832587     0.000006905251    -0.000002870983
      12        0.000863578320    -0.000902719642     0.002983610770
      13        0.000017540180    -0.000000322404     0.000021775351
      14        0.000013092470    -0.000005295576    -0.000026220197
      15       -0.000059272789     0.000015630500    -0.000080725789
      16        0.000038869000    -0.000016521190     0.000034457830
      17       -0.000009293455     0.000016051471     0.000006188212
      18        0.000000338013    -0.000002466103    -0.000028872210
      19        0.000016365400     0.000018495837     0.000016510445
      20       -0.000039299728    -0.000024158659     0.000000499897

  **** Optimization is complete! (in 6 steps) ****
    Final optimized geometry and variables:
    Molecular point group: c1

    Geometry (in Angstrom), charge = 0, multiplicity = 1:

    H            3.667290425394    -1.530687023959    -0.583753442404
    O            2.777403344019    -1.723297621627    -0.329446867755
    C            2.054136528329    -0.614420311710    -0.458087449342
    C            0.618007013322    -0.836617480820    -0.067844218985
    O            2.524679313054     0.402781514169    -0.834944998722
    C           -0.253603642005     0.406886437616    -0.196640163747
    H            0.241069867422    -1.647213603821    -0.683485513138
    H            0.618800297519    -1.214754534375     0.949209869206
    C           -1.719109368638     0.123048752087     0.156121635279
    H           -0.179611399838     0.757148539038    -1.218801881418
    H            0.146436631117     1.188573630674     0.436856609458
    C           -2.446481535030     1.332843333014     0.737281439230
    H           -1.768904799314    -0.681546260290     0.886231192144
    H           -2.244620108429    -0.238000026403    -0.723057134530
    C           -3.916599554455     1.061431614978     1.036848541610
    H           -1.941750047500     1.641799733878     1.648047310600
    H           -2.367525387281     2.169254644526     0.047762786485
    H           -4.399546007829     1.936481100311     1.456003506491
    H           -4.027747652917     0.249833705879     1.748519668332
    H           -4.455674288568     0.785848259384     0.136574634725

  Mulliken Charges: (a.u.)
   Center  Symbol    Alpha    Beta     Spin     Total
       1     H     0.38244  0.38244  0.00000  0.23512
       2     O     4.15989  4.15989  0.00000 -0.31978
       3     C     2.80608  2.80608  0.00000  0.38784
       4     C     3.11146  3.11146  0.00000 -0.22291
       5     O     4.19125  4.19125  0.00000 -0.38249
       6     C     3.08675  3.08675  0.00000 -0.17350
       7     H     0.43699  0.43699  0.00000  0.12603
       8     H     0.43830  0.43830  0.00000  0.12340
       9     C     3.09013  3.09013  0.00000 -0.18025
      10     H     0.44438  0.44438  0.00000  0.11124
      11     H     0.44557  0.44557  0.00000  0.10885
      12     C     3.08404  3.08404  0.00000 -0.16808
      13     H     0.45727  0.45727  0.00000  0.08546
      14     H     0.45164  0.45164  0.00000  0.09672
      15     C     3.15027  3.15027  0.00000 -0.30053
      16     H     0.45382  0.45382  0.00000  0.09236
      17     H     0.45197  0.45197  0.00000  0.09606
      18     H     0.44762  0.44762  0.00000  0.10475
      19     H     0.45538  0.45538  0.00000  0.08924
      20     H     0.45476  0.45476  0.00000  0.09048

   Total alpha = 32.00000, Total beta = 32.00000, Total charge = -0.00000

*** Psi4 exiting successfully. Buy a developer a beer!
