                              Psi4 1.0.54 Driver

  ==> Input File <==

--------------------------------------------------------------------------
set {
	reference rhf
	basis cc-pvtz
}

set_num_threads( 4 )
memory 2 gb

molecule MOL {
0 1

H	 1.364257	 0.067696	 -1.626311
C	 0.776238	 -0.484937	 -0.925339
C	 0.771357	 -1.865038	 -0.919545
C	 0.000000	 0.179985	 0.000046
H	 1.368207	 -2.400767	 -1.631077
C	 0.000002	 -2.552036	 -0.000008
N	 0.000000	 1.644631	 0.000076
C	 -0.776239	 -0.484975	 0.925403
H	 0.000000	 -3.625035	 -0.000032
C	 -0.771355	 -1.865075	 0.919555
O	 1.050559	 2.194174	 -0.000073
O	 -1.050559	 2.194174	 -0.000074
H	 -1.364252	 0.067629	 1.626403
H	 -1.368208	 -2.400834	 1.631062

	symmetry c1
}
set optking {
	frozen_dihedral = ("
		2 4 7 11
	")
}

ee,wfn = optimize('scf', return_wfn=True)
oeprop( wfn, 'DIPOLE', 'QUADRUPOLE', 'MULLIKEN_CHARGES')
f=open( 'psi4out.xyz', 'w' )
f.write( "14  " )
f.write( str(ee) + "\n" )
f.write( MOL.save_string_xyz() )
f.close()
--------------------------------------------------------------------------

    Molecular point group: c1
  Charge       = 0
  Multiplicity = 1
  Basis Set: CC-PVTZ
  Basis Set:
  @DF-RHF Final Energy:  -434.32486419219265
    Total Energy =                       -434.3248641921928765
    Molecular point group: c1
  Basis Set: CC-PVTZ
  Basis Set:
  Basis Set: CC-PVTZ
  Basis Set:
  @DF-RHF Final Energy:  -434.31831549269447
    Total Energy =                       -434.3183154926944098
  Basis Set: CC-PVTZ
  Basis Set:
  Basis Set: CC-PVTZ
  Basis Set:
  @DF-RHF Final Energy:  -434.32410320394041
    Total Energy =                       -434.3241032039403535
  Basis Set: CC-PVTZ
  Basis Set:
  Basis Set: CC-PVTZ
  Basis Set:
  @DF-RHF Final Energy:  -434.32520764401460
    Total Energy =                       -434.3252076440146539
  Basis Set: CC-PVTZ
  Basis Set:
  Basis Set: CC-PVTZ
  Basis Set:
  @DF-RHF Final Energy:  -434.32520490290312
    Total Energy =                       -434.3252049029031241
  Basis Set: CC-PVTZ
  Basis Set:
  Basis Set: CC-PVTZ
  Basis Set:
  @DF-RHF Final Energy:  -434.32533056365247
    Total Energy =                       -434.3253305636524146
  Basis Set: CC-PVTZ
  Basis Set:
  Charge       = 0
  Multiplicity = 1
  Basis Set: CC-PVTZ
  Basis Set:

    Orbital Energies (a.u.)
    -----------------------

    Doubly Occupied:

       1A    -20.595203     2A    -20.595129     3A    -15.847554
       4A    -11.305253     5A    -11.268004     6A    -11.267708
       7A    -11.261992     8A    -11.259717     9A    -11.259345
      10A     -1.642997    11A     -1.425977    12A     -1.206092
      13A     -1.096796    14A     -1.056450    15A     -0.959484
      16A     -0.872119    17A     -0.830152    18A     -0.786954
      19A     -0.740367    20A     -0.736378    21A     -0.715965
      22A     -0.655346    23A     -0.651248    24A     -0.626228
      25A     -0.559528    26A     -0.547937    27A     -0.533297
      28A     -0.497212    29A     -0.488986    30A     -0.457198
      31A     -0.374138    32A     -0.370314

  @DF-RHF Final Energy:  -434.32533088422639

   => Energetics <=

    Nuclear Repulsion Energy =            417.9056949982210085
    One-Electron Energy =               -1419.4799134059389871
    Two-Electron Energy =                 567.2488875234911347
    DFT Exchange-Correlation Energy =       0.0000000000000000
    Empirical Dispersion Energy =           0.0000000000000000
    PCM Polarization Energy =               0.0000000000000000
    EFP Energy =                            0.0000000000000000
    Total Energy =                       -434.3253308842269007
    Molecular point group: c1
  Basis Set: CC-PVTZ
  Basis Set:

  -Total Gradient:
     Atom            X                  Y                   Z
    ------   -----------------  -----------------  -----------------
       1       -0.000006022104    -0.000003714460    -0.000000697585
       2       -0.003720818934    -0.000059625316    -0.002895360473
       3       -0.000001654904     0.000011081828    -0.000019935157
       4        0.005501947292     0.000058612944     0.006232762946
       5       -0.000003789116    -0.000001577773    -0.000002913828
       6        0.000005449842    -0.000002401103     0.000023889883
       7       -0.001923881642    -0.000034533690    -0.008742692836
       8        0.000041938657     0.000029318401     0.000024068374
       9        0.000003204119     0.000000147842    -0.000000043101
      10       -0.000019454733    -0.000013397724    -0.000039851272
      11        0.000154452114    -0.000008536167     0.005427547848
      12       -0.000024446466     0.000022358796    -0.000003338180
      13       -0.000003346757    -0.000002750545    -0.000002549656
      14       -0.000003577374     0.000005016972    -0.000000886962

  **** Optimization is complete! (in 7 steps) ****
    Final optimized geometry and variables:
    Molecular point group: c1

    Geometry (in Angstrom), charge = 0, multiplicity = 1:

    H            1.366187167655     0.073796076032    -1.629331315195
    C            0.769565960890    -0.479876943053    -0.933413975383
    C            0.728780573218    -1.860016334063    -0.956248949085
    C            0.026987309390     0.178957532968     0.018775345137
    H            1.293402042938    -2.396004614817    -1.693519293956
    C           -0.036468272157    -2.545952566509    -0.031337966660
    N            0.019684246886     1.640918588823     0.009179269510
    C           -0.769957359309    -0.477800248076     0.927873519334
    H           -0.057989654620    -3.618389223513    -0.047714366001
    C           -0.779736996030    -1.858259113296     0.910708637701
    O            1.070408313427     2.188121926643    -0.036691028946
    O           -1.033525210058     2.179467296386     0.083953470123
    H           -1.360774046899     0.077258879213     1.627239361628
    H           -1.375409035834    -2.393797843637     1.623487317905

  Mulliken Charges: (a.u.)
   Center  Symbol    Alpha    Beta     Spin     Total
       1     H     0.40789  0.40789  0.00000  0.18422
       2     C     3.08677  3.08677  0.00000 -0.17355
       3     C     3.06871  3.06871  0.00000 -0.13743
       4     C     2.93754  2.93754  0.00000  0.12492
       5     H     0.41722  0.41722  0.00000  0.16556
       6     C     3.07032  3.07032  0.00000 -0.14065
       7     N     3.27732  3.27732  0.00000  0.44535
       8     C     3.08539  3.08539  0.00000 -0.17078
       9     H     0.41754  0.41754  0.00000  0.16492
      10     C     3.06803  3.06803  0.00000 -0.13605
      11     O     4.16905  4.16905  0.00000 -0.33811
      12     O     4.16887  4.16887  0.00000 -0.33775
      13     H     0.40815  0.40815  0.00000  0.18371
      14     H     0.41719  0.41719  0.00000  0.16563

   Total alpha = 32.00000, Total beta = 32.00000, Total charge = -0.00000

*** Psi4 exiting successfully. Buy a developer a beer!
