  ==> Input File <==

--------------------------------------------------------------------------
set {
	reference rhf
	basis 6-31G*
}

set_num_threads( 1 )
memory 2 gb

molecule MOL {
0 1

O	 -0.682937	 1.318834	 -0.186099
C	 -0.860635	 0.152188	 -0.042321
C	 -2.173363	 -0.477127	 0.338347
O	 0.083258	 -0.765189	 -0.202595
H	 -2.477673	 -1.180929	 -0.427595
H	 -2.923125	 0.290956	 0.455536
H	 -2.058825	 -1.029004	 1.264191
C	 0.269200	 -1.733939	 0.826845
C	 -0.699146	 -2.893177	 0.681524
H	 0.165647	 -1.254372	 1.788319
H	 1.290604	 -2.065058	 0.706040
H	 -0.483484	 -3.647978	 1.431522
H	 -1.720982	 -2.561664	 0.816871
H	 -0.603989	 -3.349187	 -0.297974

	symmetry c1
}
set optking {
	frozen_dihedral = ("
		10 8 4 2
	")
}

ee = energy('scf')
oeprop('DIPOLE', 'QUADRUPOLE', 'MULLIKEN_CHARGES')
f=open( 'psi4out.xyz', 'w' )
f.write( "14  " )
f.write( str(ee) + "\n" )
f.write( MOL.save_string_xyz() )
f.close()
--------------------------------------------------------------------------

    Molecular point group: c1

    Geometry (in Angstrom), charge = 0, multiplicity = 1:

       Center              X                  Y                   Z               Mass
    ------------   -----------------  -----------------  -----------------  -----------------
           O         -0.001071404957     2.062506613200    -0.427062415582    15.994914619560
           C         -0.178769404957     0.895860613200    -0.283284415582    12.000000000000
           C         -1.491497404957     0.266545613200     0.097383584418    12.000000000000
           O          0.765123595043    -0.021516386800    -0.443558415582    15.994914619560
           H         -1.795807404957    -0.437256386800    -0.668558415582     1.007825032070
           H         -2.241259404957     1.034628613200     0.214572584418     1.007825032070
           H         -1.376959404957    -0.285331386800     1.023227584418     1.007825032070
           C          0.951065595043    -0.990266386800     0.585881584418    12.000000000000
           C         -0.017280404957    -2.149504386800     0.440560584418    12.000000000000
           H          0.847512595043    -0.510699386800     1.547355584418     1.007825032070
           H          1.972469595043    -1.321385386800     0.465076584418     1.007825032070
           H          0.198381595043    -2.904305386800     1.190558584418     1.007825032070
           H         -1.039116404957    -1.817991386800     0.575907584418     1.007825032070
           H          0.077876595043    -2.605514386800    -0.538937415582     1.007825032070

  Charge       = 0
  Multiplicity = 1
  Basis Set: 6-31G*
  Basis Set:

    Orbital Energies (a.u.)
    -----------------------

    Doubly Occupied:

       1A    -20.593471     2A    -20.550868     3A    -11.377618
       4A    -11.304379     5A    -11.235814     6A    -11.230379
       7A     -1.463865     8A     -1.369235     9A     -1.053099
      10A     -1.025357    11A     -0.892853    12A     -0.778686
      13A     -0.707100    14A     -0.692706    15A     -0.663277
      16A     -0.621643    17A     -0.597720    18A     -0.584237
      19A     -0.576050    20A     -0.541246    21A     -0.509506
      22A     -0.490293    23A     -0.453726    24A     -0.437900

  @DF-RHF Final Energy:  -305.83657750844964

   => Energetics <=

    Nuclear Repulsion Energy =            252.2824849961052394
    One-Electron Energy =                -916.7360660428121264
    Two-Electron Energy =                 358.6170035382574497
    DFT Exchange-Correlation Energy =       0.0000000000000000
    Empirical Dispersion Energy =           0.0000000000000000
    PCM Polarization Energy =               0.0000000000000000
    EFP Energy =                            0.0000000000000000
    Total Energy =                       -305.8365775084494089

  Mulliken Charges: (a.u.)
   Center  Symbol    Alpha    Beta     Spin     Total
       1     O     4.26028  4.26028  0.00000 -0.52056
       2     C     2.61385  2.61385  0.00000  0.77231
       3     C     3.31378  3.31378  0.00000 -0.62756
       4     O     4.30380  4.30380  0.00000 -0.60759
       5     H     0.39628  0.39628  0.00000  0.20744
       6     H     0.39277  0.39277  0.00000  0.21445
       7     H     0.40325  0.40325  0.00000  0.19350
       8     C     3.01866  3.01866  0.00000 -0.03733
       9     C     3.25408  3.25408  0.00000 -0.50816
      10     H     0.41282  0.41282  0.00000  0.17437
      11     H     0.39690  0.39690  0.00000  0.20620
      12     H     0.41508  0.41508  0.00000  0.16984
      13     H     0.41146  0.41146  0.00000  0.17707
      14     H     0.40699  0.40699  0.00000  0.18603

   Total alpha = 24.00000, Total beta = 24.00000, Total charge = -0.00000
