                              Psi4 1.0.54 Driver

  ==> Input File <==

--------------------------------------------------------------------------
set {
	reference rhf
	basis cc-pvtz
}

set_num_threads( 4 )
memory 2 gb

molecule MOL {
0 1

H	 -4.230259	 0.539112	 0.036360
O	 -3.515113	 -0.019339	 -0.206321
C	 -2.302264	 0.528872	 0.237390
C	 -1.175688	 -0.398187	 -0.171891
H	 -2.148018	 1.514076	 -0.197759
H	 -2.310727	 0.646384	 1.319032
C	 0.196029	 0.106276	 0.266738
H	 -1.201873	 -0.515469	 -1.250677
H	 -1.365975	 -1.378728	 0.252664
C	 1.330220	 -0.826136	 -0.155230
H	 0.359542	 1.097229	 -0.145561
H	 0.212134	 0.218135	 1.348778
C	 2.719700	 -0.407669	 0.328325
H	 1.339388	 -0.911200	 -1.239363
H	 1.119001	 -1.821953	 0.224128
C	 3.411435	 0.637683	 -0.543512
H	 3.347193	 -1.292505	 0.373317
H	 2.647843	 -0.036463	 1.347382
H	 3.491268	 0.296634	 -1.570826
H	 2.877167	 1.580136	 -0.548831
H	 4.414664	 0.835313	 -0.183449

	symmetry c1
}
set optking {
	frozen_dihedral = ("
		16 13 10 14
	")
}

ee,wfn = optimize('scf', return_wfn=True)
oeprop( wfn, 'DIPOLE', 'QUADRUPOLE', 'MULLIKEN_CHARGES')
f=open( 'psi4out.xyz', 'w' )
f.write( "21  " )
f.write( str(ee) + "\n" )
f.write( MOL.save_string_xyz() )
f.close()
--------------------------------------------------------------------------

    Molecular point group: c1
  Charge       = 0
  Multiplicity = 1
  Basis Set: CC-PVTZ
  Basis Set:
  @DF-RHF Final Energy:  -310.33202614479524
    Total Energy =                       -310.3320261447953499
    Molecular point group: c1
  Basis Set: CC-PVTZ
  Basis Set:
  Basis Set: CC-PVTZ
  Basis Set:
  @DF-RHF Final Energy:  -310.33228155268387
    Total Energy =                       -310.3322815526837530
  Basis Set: CC-PVTZ
  Basis Set:
  Basis Set: CC-PVTZ
  Basis Set:
  @DF-RHF Final Energy:  -310.33232514375635
    Total Energy =                       -310.3323251437564636
  Basis Set: CC-PVTZ
  Basis Set:
  Basis Set: CC-PVTZ
  Basis Set:
  @DF-RHF Final Energy:  -310.33232675943265
    Total Energy =                       -310.3323267594323625
  Basis Set: CC-PVTZ
  Basis Set:
  Charge       = 0
  Multiplicity = 1
  Basis Set: CC-PVTZ
  Basis Set:

    Orbital Energies (a.u.)
    -----------------------

    Doubly Occupied:

       1A    -20.545364     2A    -11.264985     3A    -11.213286
       4A    -11.212888     5A    -11.211149     6A    -11.208875
       7A    -11.206346     8A     -1.363206     9A     -1.087218
      10A     -1.034548    11A     -0.955976    12A     -0.873718
      13A     -0.806354    14A     -0.783118    15A     -0.696255
      16A     -0.662857    17A     -0.619935    18A     -0.611933
      19A     -0.588403    20A     -0.568489    21A     -0.539164
      22A     -0.521181    23A     -0.509958    24A     -0.487979
      25A     -0.480121    26A     -0.462659    27A     -0.455529
      28A     -0.443359    29A     -0.437380

  @DF-RHF Final Energy:  -310.33232761584691

   => Energetics <=

    Nuclear Repulsion Energy =            312.3644490945127927
    One-Electron Energy =               -1039.6890937293032948
    Two-Electron Energy =                 416.9923170189436519
    DFT Exchange-Correlation Energy =       0.0000000000000000
    Empirical Dispersion Energy =           0.0000000000000000
    PCM Polarization Energy =               0.0000000000000000
    EFP Energy =                            0.0000000000000000
    Total Energy =                       -310.3323276158468502
    Molecular point group: c1
  Basis Set: CC-PVTZ
  Basis Set:

  -Total Gradient:
     Atom            X                  Y                   Z
    ------   -----------------  -----------------  -----------------
       1       -0.000006947373     0.000000343648    -0.000002754922
       2       -0.000017473884    -0.000005173373     0.000001663561
       3        0.000016166910    -0.000002777166    -0.000013581414
       4       -0.000000926008    -0.000001482930    -0.000000979833
       5        0.000004172442     0.000008498895     0.000002934258
       6        0.000001325792    -0.000003937418     0.000001482016
       7        0.000011279028     0.000013403364    -0.000033462409
       8       -0.000008074144     0.000000336658     0.000001179040
       9       -0.000001798497    -0.000005472860     0.000003487473
      10        0.001089658938    -0.003379323947     0.000027885321
      11       -0.000007494644     0.000019897950    -0.000000844393
      12        0.000025739513    -0.000007666657     0.000004891485
      13       -0.001179031441     0.002375180523     0.001197500249
      14       -0.000650694172     0.002307940485    -0.000269448625
      15       -0.000003820884    -0.000017056960    -0.000008931246
      16        0.000722105079    -0.001307884980    -0.000886613974
      17        0.000004179250    -0.000006169242     0.000004579956
      18       -0.000007816769     0.000004848334    -0.000013828429
      19       -0.000002395489    -0.000010571839    -0.000008084529
      20       -0.000004410112     0.000009998151    -0.000004564754
      21        0.000016256457     0.000007069364    -0.000002508829

  **** Optimization is complete! (in 5 steps) ****
    Final optimized geometry and variables:
    Molecular point group: c1

    Geometry (in Angstrom), charge = 0, multiplicity = 1:

    H           -4.221452915203     0.702022622451    -0.047670015773
    O           -3.516739904368     0.122064643067    -0.269368030998
    C           -2.303941596829     0.623924339124     0.226306070528
    C           -1.194269084552    -0.336749061925    -0.150300906753
    H           -2.099890337193     1.607627933339    -0.191456999628
    H           -2.349954549627     0.730787505297     1.308071107923
    C            0.176147014297     0.117667695984     0.342497384549
    H           -1.185133935153    -0.444725195843    -1.230240488391
    H           -1.432030869212    -1.313827693987     0.258337678659
    C            1.294305080769    -0.859098427643    -0.021845509415
    H            0.398264938087     1.098757679055    -0.068438600936
    H            0.151153690173     0.238111879018     1.422998936579
    C            2.686111779885    -0.405238044471     0.430785589545
    H            1.296194494271    -0.994955612867    -1.100261213363
    H            1.067644257737    -1.826013193659     0.416098810938
    C            3.345692117501     0.603340852955    -0.506778257378
    H            3.332895372638    -1.274064723677     0.503302516837
    H            2.624947598650     0.008781888442     1.433253588898
    H            3.477019087975     0.179461909450    -1.496613750745
    H            2.754728833651     1.506508851898    -0.610914817785
    H            4.323347090104     0.894237357984    -0.139496357068

  Mulliken Charges: (a.u.)
   Center  Symbol    Alpha    Beta     Spin     Total
       1     H     0.39761  0.39761  0.00000  0.20479
       2     O     4.19434  4.19434  0.00000 -0.38867
       3     C     2.96319  2.96319  0.00000  0.07361
       4     C     3.08476  3.08476  0.00000 -0.16952
       5     H     0.47498  0.47498  0.00000  0.05005
       6     H     0.47483  0.47483  0.00000  0.05034
       7     C     3.10132  3.10132  0.00000 -0.20264
       8     H     0.45072  0.45072  0.00000  0.09857
       9     H     0.45084  0.45084  0.00000  0.09832
      10     C     3.09366  3.09366  0.00000 -0.18733
      11     H     0.45468  0.45468  0.00000  0.09065
      12     H     0.45547  0.45547  0.00000  0.08906
      13     C     3.09022  3.09022  0.00000 -0.18045
      14     H     0.45500  0.45500  0.00000  0.09001
      15     H     0.44755  0.44755  0.00000  0.10490
      16     C     3.14863  3.14863  0.00000 -0.29725
      17     H     0.44843  0.44843  0.00000  0.10314
      18     H     0.45558  0.45558  0.00000  0.08885
      19     H     0.45473  0.45473  0.00000  0.09054
      20     H     0.45567  0.45567  0.00000  0.08866
      21     H     0.44781  0.44781  0.00000  0.10438

   Total alpha = 29.00000, Total beta = 29.00000, Total charge =  0.00000

*** Psi4 exiting successfully. Buy a developer a beer!
