                              Psi4 1.0.54 Driver

  ==> Input File <==

--------------------------------------------------------------------------
set {
	reference rhf
	basis cc-pvtz
}

set_num_threads( 4 )
memory 2 gb

molecule MOL {
0 1

O	 -0.926050	 0.293927	 -1.942162
C	 -1.121552	 0.713362	 -0.852687
C	 -1.944214	 1.931057	 -0.538208
O	 -0.637375	 0.157174	 0.243149
H	 -1.333360	 2.658093	 -0.018597
H	 -2.327342	 2.354148	 -1.452454
H	 -2.760775	 1.658867	 0.118075
C	 0.162530	 -1.009518	 0.097799
C	 1.587210	 -0.664190	 0.477086
H	 0.096803	 -1.356267	 -0.924704
H	 -0.233803	 -1.785900	 0.736810
C	 2.256770	 0.342732	 -0.454344
H	 2.154716	 -1.590834	 0.479041
H	 1.598751	 -0.289614	 1.496104
C	 3.698146	 0.643205	 -0.057145
H	 2.235038	 -0.042575	 -1.470299
H	 1.683491	 1.262594	 -0.461300
H	 4.150202	 1.356548	 -0.736242
H	 4.305463	 -0.255904	 -0.069842
H	 3.749130	 1.061068	 0.942759

	symmetry c1
}
set optking {
	frozen_dihedral = ("
		2 4 8 10
	")
}

ee,wfn = optimize('scf', return_wfn=True)
oeprop( wfn, 'DIPOLE', 'QUADRUPOLE', 'MULLIKEN_CHARGES')
f=open( 'psi4out.xyz', 'w' )
f.write( "20  " )
f.write( str(ee) + "\n" )
f.write( MOL.save_string_xyz() )
f.close()
--------------------------------------------------------------------------

    Molecular point group: c1
  Charge       = 0
  Multiplicity = 1
  Basis Set: CC-PVTZ
  Basis Set:
  @DF-RHF Final Energy:  -384.08409060280263
    Total Energy =                       -384.0840906028028030
    Molecular point group: c1
  Basis Set: CC-PVTZ
  Basis Set:
  Basis Set: CC-PVTZ
  Basis Set:
  @DF-RHF Final Energy:  -384.08483370091301
    Total Energy =                       -384.0848337009131228
  Basis Set: CC-PVTZ
  Basis Set:
  Basis Set: CC-PVTZ
  Basis Set:
  @DF-RHF Final Energy:  -384.08281083106311
    Total Energy =                       -384.0828108310631706
  Basis Set: CC-PVTZ
  Basis Set:
  Basis Set: CC-PVTZ
  Basis Set:
  @DF-RHF Final Energy:  -384.08529224275526
    Total Energy =                       -384.0852922427553722
  Basis Set: CC-PVTZ
  Basis Set:
  Basis Set: CC-PVTZ
  Basis Set:
  @DF-RHF Final Energy:  -384.08535038914096
    Total Energy =                       -384.0853503891410128
  Basis Set: CC-PVTZ
  Basis Set:
  Basis Set: CC-PVTZ
  Basis Set:
  @DF-RHF Final Energy:  -384.08536251509020
    Total Energy =                       -384.0853625150903099
  Basis Set: CC-PVTZ
  Basis Set:
  Basis Set: CC-PVTZ
  Basis Set:
  @DF-RHF Final Energy:  -384.08536560220352
    Total Energy =                       -384.0853656022036375
  Basis Set: CC-PVTZ
  Basis Set:
  Charge       = 0
  Multiplicity = 1
  Basis Set: CC-PVTZ
  Basis Set:

    Orbital Energies (a.u.)
    -----------------------

    Doubly Occupied:

       1A    -20.592997     2A    -20.531937     3A    -11.367950
       4A    -11.278766     5A    -11.231055     6A    -11.222370
       7A    -11.217154     8A    -11.210109     9A     -1.468191
      10A     -1.365431    11A     -1.084916    12A     -1.029266
      13A     -0.981131    14A     -0.886540    15A     -0.809171
      16A     -0.771414    17A     -0.696315    18A     -0.683944
      19A     -0.664989    20A     -0.631513    21A     -0.603743
      22A     -0.594328    23A     -0.573224    24A     -0.548944
      25A     -0.546067    26A     -0.533318    27A     -0.505584
      28A     -0.494808    29A     -0.476431    30A     -0.471503
      31A     -0.442572    32A     -0.441868

  @DF-RHF Final Energy:  -384.08536604766334

   => Energetics <=

    Nuclear Repulsion Energy =            392.2588326496328364
    One-Electron Energy =               -1300.7733059017500636
    Two-Electron Energy =                 524.4291072044536577
    DFT Exchange-Correlation Energy =       0.0000000000000000
    Empirical Dispersion Energy =           0.0000000000000000
    PCM Polarization Energy =               0.0000000000000000
    EFP Energy =                            0.0000000000000000
    Total Energy =                       -384.0853660476635696
    Molecular point group: c1
  Basis Set: CC-PVTZ
  Basis Set:

  -Total Gradient:
     Atom            X                  Y                   Z
    ------   -----------------  -----------------  -----------------
       1       -0.000009127700     0.000015201745    -0.000026394037
       2        0.000157295776     0.000120521427    -0.000012892433
       3       -0.000005832717    -0.000018534728    -0.000004507947
       4       -0.000292833061    -0.000182733182     0.000062422678
       5        0.000008689366     0.000003730341    -0.000001584437
       6        0.000005934042    -0.000005335402     0.000000692672
       7        0.000005219127    -0.000000209550     0.000002130306
       8        0.000280020442     0.000211406900    -0.000078876657
       9       -0.000005241070     0.000005201267    -0.000012525593
      10       -0.000160505917    -0.000135807867     0.000066542850
      11        0.000010353201    -0.000007402588    -0.000001701753
      12       -0.000000600934     0.000003480466     0.000012649158
      13        0.000002384563    -0.000003073693     0.000001936507
      14       -0.000000863266    -0.000001643493     0.000000237616
      15        0.000005938563    -0.000006590211    -0.000009595350
      16        0.000002799294     0.000004528175    -0.000000977266
      17       -0.000009024558    -0.000001543347    -0.000000647162
      18        0.000002519672    -0.000002947214     0.000002753357
      19        0.000005381426    -0.000000758947     0.000002249830
      20       -0.000002506253     0.000002509902    -0.000001912340

  **** Optimization is complete! (in 8 steps) ****
    Final optimized geometry and variables:
    Molecular point group: c1

    Geometry (in Angstrom), charge = 0, multiplicity = 1:

    O           -1.436295622410    -0.013811163706    -1.537525268910
    C           -1.581510263699     0.365019519719    -0.425822009683
    C           -2.457848721253     1.519833076233    -0.029000984876
    O           -0.995467060482    -0.172401691516     0.630378839997
    H           -1.864268815790     2.268578735226     0.479462670876
    H           -2.918335815661     1.942965841125    -0.906798220820
    H           -3.216609161013     1.177404623226     0.662712792807
    C           -0.127940374414    -1.291562522376     0.477481031489
    C            1.300953913355    -0.918266722564     0.824955603278
    H           -0.205909523443    -1.668837247949    -0.528921679074
    H           -0.494745166883    -2.043115174237     1.162419177269
    C            1.950013273133     0.069629181623    -0.140237619471
    H            1.877546704100    -1.839682063532     0.842377081021
    H            1.323916252595    -0.518197665649     1.834222044215
    C            3.394541132731     0.387501545714     0.231296918057
    H            1.912415073495    -0.333795188656    -1.147160098053
    H            1.375699197343     0.989635017411    -0.158843892077
    H            3.831465947936     1.091253451267    -0.467311650456
    H            4.007495981853    -0.507759654871     0.225376654977
    H            3.457558262313     0.823346499603     1.222919373881

  Mulliken Charges: (a.u.)
   Center  Symbol    Alpha    Beta     Spin     Total
       1     O     4.19834  4.19834  0.00000 -0.39669
       2     C     2.80094  2.80094  0.00000  0.39812
       3     C     3.13878  3.13878  0.00000 -0.27757
       4     O     4.16235  4.16235  0.00000 -0.32470
       5     H     0.44693  0.44693  0.00000  0.10614
       6     H     0.43833  0.43833  0.00000  0.12334
       7     H     0.44544  0.44544  0.00000  0.10912
       8     C     2.99918  2.99918  0.00000  0.00165
       9     C     3.08505  3.08505  0.00000 -0.17010
      10     H     0.44142  0.44142  0.00000  0.11715
      11     H     0.44220  0.44220  0.00000  0.11559
      12     C     3.08959  3.08959  0.00000 -0.17918
      13     H     0.45274  0.45274  0.00000  0.09453
      14     H     0.45272  0.45272  0.00000  0.09455
      15     C     3.14996  3.14996  0.00000 -0.29993
      16     H     0.44677  0.44677  0.00000  0.10646
      17     H     0.45219  0.45219  0.00000  0.09563
      18     H     0.44679  0.44679  0.00000  0.10643
      19     H     0.45503  0.45503  0.00000  0.08994
      20     H     0.45523  0.45523  0.00000  0.08953

   Total alpha = 32.00000, Total beta = 32.00000, Total charge = -0.00000

*** Psi4 exiting successfully. Buy a developer a beer!
