  ==> Input File <==

--------------------------------------------------------------------------
set {
	reference rhf
	basis 6-31G*
}

set_num_threads( 4 )
memory 2 gb

molecule MOL {
0 1

O	 1.992598	 1.029908	 0.705464
C	 1.705091	 0.115954	 0.001797
C	 0.381791	 -0.609817	 0.001258
O	 2.533316	 -0.393981	 -0.901057
C	 -0.823008	 0.326187	 0.001381
H	 0.371250	 -1.265087	 -0.865474
H	 0.370908	 -1.265746	 0.867490
C	 -2.149452	 -0.435131	 -0.000098
H	 -0.770201	 0.977095	 -0.865636
H	 -0.771220	 0.975655	 0.869608
C	 -3.368779	 0.488503	 -0.000883
H	 -2.193746	 -1.087250	 -0.871175
H	 -2.195311	 -1.087803	 0.870418
C	 -4.693822	 -0.272754	 -0.001129
H	 -3.325798	 1.139422	 -0.871284
H	 -3.326423	 1.139959	 0.869145
H	 -4.781274	 -0.907928	 -0.878124
H	 -5.538651	 0.408946	 -0.001420
H	 -4.781694	 -0.907783	 0.875984
C	 3.814570	 0.199662	 -1.005609
H	 3.729333	 1.242697	 -1.274572
H	 4.330065	 -0.345537	 -1.780786
H	 4.349378	 0.116674	 -0.070409

	symmetry c1
}
set optking {
	frozen_dihedral = ("
		1 2 3 6
	")
}

ee = optimize('scf')
oeprop('DIPOLE', 'QUADRUPOLE', 'MULLIKEN_CHARGES')
f=open( 'psi4out.xyz', 'w' )
f.write( "23  " )
f.write( str(ee) + "\n" )
f.write( MOL.save_string_xyz() )
f.close()
--------------------------------------------------------------------------

    Molecular point group: c1
  Charge       = 0
  Multiplicity = 1
  Basis Set: 6-31G*
  Basis Set:
  @DF-RHF Final Energy:  -422.97468388146132
    Total Energy =                       -422.9746838814617149
    Molecular point group: c1
  Basis Set: 6-31G*
  Basis Set:
  Basis Set: 6-31G*
  Basis Set:
  @DF-RHF Final Energy:  -422.97444647628413
    Total Energy =                       -422.9744464762842426
  Basis Set: 6-31G*
  Basis Set:
  Basis Set: 6-31G*
  Basis Set:
  @DF-RHF Final Energy:  -422.97475403275644
    Total Energy =                       -422.9747540327568913
  Basis Set: 6-31G*
  Basis Set:
  Basis Set: 6-31G*
  Basis Set:
  @DF-RHF Final Energy:  -422.97518241405186
    Total Energy =                       -422.9751824140516874
  Basis Set: 6-31G*
  Basis Set:
  Basis Set: 6-31G*
  Basis Set:
  @DF-RHF Final Energy:  -422.97518440745364
    Total Energy =                       -422.9751844074534119
  Basis Set: 6-31G*
  Basis Set:
  Basis Set: 6-31G*
  Basis Set:
  @DF-RHF Final Energy:  -422.97518615104121
    Total Energy =                       -422.9751861510410436
  Basis Set: 6-31G*
  Basis Set:
  Charge       = 0
  Multiplicity = 1
  Basis Set: 6-31G*
  Basis Set:

    Orbital Energies (a.u.)
    -----------------------

    Doubly Occupied:

       1A    -20.605779     2A    -20.542721     3A    -11.371820
       4A    -11.280859     5A    -11.234307     6A    -11.223387
       7A    -11.219251     8A    -11.217661     9A    -11.210424
      10A     -1.469743    11A     -1.361630    12A     -1.094185
      13A     -1.043633    14A     -0.986918    15A     -0.933239
      16A     -0.844400    17A     -0.796192    18A     -0.770266
      19A     -0.695764    20A     -0.681691    21A     -0.671863
      22A     -0.652641    23A     -0.607651    24A     -0.598587
      25A     -0.574491    26A     -0.567835    27A     -0.547700
      28A     -0.527295    29A     -0.523890    30A     -0.506484
      31A     -0.485669    32A     -0.472283    33A     -0.467204
      34A     -0.463009    35A     -0.454270    36A     -0.432214

  @DF-RHF Final Energy:  -422.97518643171492

   => Energetics <=

    Nuclear Repulsion Energy =            452.4251073235507761
    One-Electron Energy =               -1472.5266807512741707
    Two-Electron Energy =                 597.1263869960084776
    DFT Exchange-Correlation Energy =       0.0000000000000000
    Empirical Dispersion Energy =           0.0000000000000000
    PCM Polarization Energy =               0.0000000000000000
    EFP Energy =                            0.0000000000000000
    Total Energy =                       -422.9751864317149739
    Molecular point group: c1
  Basis Set: 6-31G*
  Basis Set:

  -Total Gradient:
     Atom            X                  Y                   Z
    ------   -----------------  -----------------  -----------------
       1        0.000336941374    -0.000651790109     0.000680022372
       2       -0.000400678945     0.000741928857    -0.000891090412
       3       -0.000302115940     0.000599741141    -0.000321984505
       4       -0.000043955515     0.000019588592     0.000024444321
       5       -0.000010353096     0.000034631589    -0.000056122522
       6        0.000401987633    -0.000716187622     0.000527611498
       7        0.000002126472    -0.000010793205    -0.000013217685
       8        0.000009070119    -0.000010845526     0.000032103243
       9        0.000004260682     0.000009149837     0.000015615851
      10        0.000002806707    -0.000011014485    -0.000005587577
      11        0.000003364783     0.000003808875     0.000000006797
      12        0.000005795491     0.000001952778     0.000009281372
      13       -0.000009390571    -0.000004967569     0.000006368348
      14       -0.000002173757    -0.000000968353    -0.000009273094
      15        0.000003954438     0.000005712785     0.000003077360
      16       -0.000004262194    -0.000004667792     0.000001941143
      17       -0.000001984380    -0.000002298948    -0.000000705094
      18       -0.000000184250    -0.000000050801    -0.000002933947
      19        0.000002145715     0.000002206941    -0.000000824085
      20       -0.000000348718    -0.000019400177     0.000013856423
      21       -0.000002652809     0.000005744054    -0.000003368339
      22        0.000002896561     0.000004133410    -0.000002849728
      23        0.000002750196     0.000004385724    -0.000006371739

  **** Optimization is complete! (in 7 steps) ****
    Final optimized geometry and variables:
    Molecular point group: c1

    Geometry (in Angstrom), charge = 0, multiplicity = 1:

    O            1.965405192366     0.959069611349     0.830671215237
    C            1.723168028835     0.054501087959     0.096669720970
    C            0.407717256374    -0.686544659283     0.059973162340
    O            2.602566795596    -0.433813996782    -0.765891333744
    C           -0.795205172506     0.259477019785     0.090254331754
    H            0.385539990302    -1.337246522866    -0.805030760302
    H            0.392593147369    -1.326087352193     0.939573953762
    C           -2.125883918945    -0.492005749142     0.139647718245
    H           -0.771724153124     0.898202978676    -0.789819615710
    H           -0.704441622438     0.913822059250     0.950038637170
    C           -3.338208605913     0.440544801966     0.162530502632
    H           -2.200882862139    -1.157082124934    -0.719122359560
    H           -2.147193602829    -1.129657174845     1.022011372214
    C           -4.667580990265    -0.311385516996     0.214747785139
    H           -3.318400267991     1.077843140736    -0.718828959055
    H           -3.264380734328     1.104460564098     1.020835062505
    H           -4.785916682709    -0.959731272385    -0.648912011709
    H           -5.507460434596     0.376167997874     0.229318981849
    H           -4.732660203115    -0.931678661897     1.104214258010
    C            3.885737773274     0.165805923797    -0.782473357619
    H            3.811485734132     1.213205839500    -1.036846843168
    H            4.448791352058    -0.363568179808    -1.535206718474
    H            4.363192564249     0.067374997457     0.181735254285

  Mulliken Charges: (a.u.)
   Center  Symbol    Alpha    Beta     Spin     Total
       1     O     4.28721  4.28721  0.00000 -0.57442
       2     C     2.60546  2.60546  0.00000  0.78907
       3     C     3.20733  3.20733  0.00000 -0.41466
       4     O     4.30490  4.30490  0.00000 -0.60980
       5     C     3.15977  3.15977  0.00000 -0.31954
       6     H     0.40031  0.40031  0.00000  0.19938
       7     H     0.40094  0.40094  0.00000  0.19812
       8     C     3.15267  3.15267  0.00000 -0.30535
       9     H     0.41753  0.41753  0.00000  0.16493
      10     H     0.40321  0.40321  0.00000  0.19357
      11     C     3.15205  3.15205  0.00000 -0.30409
      12     H     0.42323  0.42323  0.00000  0.15354
      13     H     0.42258  0.42258  0.00000  0.15483
      14     C     3.23971  3.23971  0.00000 -0.47941
      15     H     0.42202  0.42202  0.00000  0.15596
      16     H     0.42058  0.42058  0.00000  0.15884
      17     H     0.42174  0.42174  0.00000  0.15652
      18     H     0.41833  0.41833  0.00000  0.16334
      19     H     0.42135  0.42135  0.00000  0.15730
      20     C     3.09356  3.09356  0.00000 -0.18713
      21     H     0.40842  0.40842  0.00000  0.18317
      22     H     0.40837  0.40837  0.00000  0.18327
      23     H     0.40872  0.40872  0.00000  0.18256

   Total alpha = 36.00000, Total beta = 36.00000, Total charge =  0.00000
