  ==> Input File <==

--------------------------------------------------------------------------
set {
	reference rhf
	basis 6-31G*
}

set_num_threads( 1 )
memory 2 gb

molecule MOL {
0 1

O	 0.074228	 1.262779	 -0.000085
C	 0.028650	 0.075053	 -0.000277
C	 -1.233602	 -0.752807	 0.000328
O	 1.109162	 -0.694619	 -0.000298
C	 -2.501530	 0.091881	 0.000126
H	 -1.193807	 -1.406641	 -0.865785
H	 -1.193516	 -1.405779	 0.867015
H	 -2.545121	 0.729328	 -0.874513
H	 -3.377167	 -0.548497	 0.000561
H	 -2.544818	 0.730135	 0.874258
C	 1.632884	 -1.067020	 1.261693
H	 1.922551	 -0.192188	 1.825762
H	 2.495553	 -1.680535	 1.053691
H	 0.901682	 -1.627680	 1.826030

	symmetry c1
}
set optking {
	frozen_dihedral = ("
		4 2 3 6
	")
}

ee = energy('scf')
oeprop('DIPOLE', 'QUADRUPOLE', 'MULLIKEN_CHARGES')
f=open( 'psi4out.xyz', 'w' )
f.write( "14  " )
f.write( str(ee) + "\n" )
f.write( MOL.save_string_xyz() )
f.close()
--------------------------------------------------------------------------

    Molecular point group: c1

    Geometry (in Angstrom), charge = 0, multiplicity = 1:

       Center              X                  Y                   Z               Mass
    ------------   -----------------  -----------------  -----------------  -----------------
           O          0.205205711954     1.446660036636    -0.225861456552    15.994914619560
           C          0.159627711954     0.258934036636    -0.226053456552    12.000000000000
           C         -1.102624288046    -0.568925963364    -0.225448456552    12.000000000000
           O          1.240139711954    -0.510737963364    -0.226074456552    15.994914619560
           C         -2.370552288046     0.275762036636    -0.225650456552    12.000000000000
           H         -1.062829288046    -1.222759963364    -1.091561456552     1.007825032070
           H         -1.062538288046    -1.221897963364     0.641238543448     1.007825032070
           H         -2.414143288046     0.913209036636    -1.100289456552     1.007825032070
           H         -3.246189288046    -0.364615963364    -0.225215456552     1.007825032070
           H         -2.413840288046     0.914016036636     0.648481543448     1.007825032070
           C          1.763861711954    -0.883138963364     1.035916543448    12.000000000000
           H          2.053528711954    -0.008306963364     1.599985543448     1.007825032070
           H          2.626530711954    -1.496653963364     0.827914543448     1.007825032070
           H          1.032659711954    -1.443798963364     1.600253543448     1.007825032070

  Charge       = 0
  Multiplicity = 1
  Basis Set: 6-31G*
  Basis Set:

    Orbital Energies (a.u.)
    -----------------------

    Doubly Occupied:

       1A    -20.588122     2A    -20.555953     3A    -11.374352
       4A    -11.296209     5A    -11.240395     6A    -11.217515
       7A     -1.464986     8A     -1.368351     9A     -1.061917
      10A     -0.983717    11A     -0.891315    12A     -0.770015
      13A     -0.699498    14A     -0.681665    15A     -0.675355
      16A     -0.623625    17A     -0.614667    18A     -0.559840
      19A     -0.544776    20A     -0.523622    21A     -0.509382
      22A     -0.487869    23A     -0.458277    24A     -0.436444

  @DF-RHF Final Energy:  -305.85047626250901

   => Energetics <=

    Nuclear Repulsion Energy =            247.7067543633623643
    One-Electron Energy =                -907.8587727382250705
    Two-Electron Energy =                 354.3015421123539568
    DFT Exchange-Correlation Energy =       0.0000000000000000
    Empirical Dispersion Energy =           0.0000000000000000
    PCM Polarization Energy =               0.0000000000000000
    EFP Energy =                            0.0000000000000000
    Total Energy =                       -305.8504762625087210

  Mulliken Charges: (a.u.)
   Center  Symbol    Alpha    Beta     Spin     Total
       1     O     4.25784  4.25784  0.00000 -0.51569
       2     C     2.61806  2.61806  0.00000  0.76387
       3     C     3.20918  3.20918  0.00000 -0.41837
       4     O     4.30897  4.30897  0.00000 -0.61794
       5     C     3.23952  3.23952  0.00000 -0.47905
       6     H     0.39815  0.39815  0.00000  0.20370
       7     H     0.40794  0.40794  0.00000  0.18413
       8     H     0.40837  0.40837  0.00000  0.18327
       9     H     0.41871  0.41871  0.00000  0.16259
      10     H     0.41117  0.41117  0.00000  0.17766
      11     C     3.09334  3.09334  0.00000 -0.18667
      12     H     0.40709  0.40709  0.00000  0.18583
      13     H     0.40070  0.40070  0.00000  0.19861
      14     H     0.42097  0.42097  0.00000  0.15806

   Total alpha = 24.00000, Total beta = 24.00000, Total charge = -0.00000
