                              Psi4 1.0.54 Driver

  ==> Input File <==

--------------------------------------------------------------------------
set {
	reference rhf
	basis cc-pvtz
}

set_num_threads( 4 )
memory 2 gb

molecule MOL {
0 1

H	 2.324354	 -2.081213	 0.061337
N	 1.343288	 -1.906805	 0.062321
C	 0.937198	 -1.258733	 -1.168507
C	 0.962598	 -1.129354	 1.224426
H	 1.216080	 -1.884929	 -2.007229
H	 1.415174	 -0.286445	 -1.301972
C	 -0.567949	 -1.062370	 -1.161575
H	 1.259885	 -1.661799	 2.119677
H	 1.442178	 -0.148891	 1.242147
C	 -0.542583	 -0.933161	 1.228222
H	 -1.054341	 -2.041868	 -1.186021
H	 -0.866580	 -0.525319	 -2.054051
N	 -0.976577	 -0.298712	 -0.000000
H	 -0.822872	 -0.302683	 2.063719
H	 -1.027228	 -1.903757	 1.368412
C	 -2.391156	 -0.021003	 -0.000000
H	 -2.853954	 -0.458728	 -0.875714
H	 -2.853954	 -0.458728	 0.875714
H	 -2.614037	 1.049773	 -0.000000

	symmetry c1
}
set optking {
	frozen_dihedral = ("
		7 13 16 19
	")
}

ee,wfn = optimize('scf', return_wfn=True)
oeprop( wfn, 'DIPOLE', 'QUADRUPOLE', 'MULLIKEN_CHARGES')
f=open( 'psi4out.xyz', 'w' )
f.write( "19  " )
f.write( str(ee) + "\n" )
f.write( MOL.save_string_xyz() )
f.close()
--------------------------------------------------------------------------

    Molecular point group: c1
  Charge       = 0
  Multiplicity = 1
  Basis Set: CC-PVTZ
  Basis Set:
  @DF-RHF Final Energy:  -305.30225519312535
    Total Energy =                       -305.3022551931251769
    Molecular point group: c1
  Basis Set: CC-PVTZ
  Basis Set:
  Basis Set: CC-PVTZ
  Basis Set:
  @DF-RHF Final Energy:  -305.30127545262337
    Total Energy =                       -305.3012754526232584
  Basis Set: CC-PVTZ
  Basis Set:
  Basis Set: CC-PVTZ
  Basis Set:
  @DF-RHF Final Energy:  -305.30300826707781
    Total Energy =                       -305.3030082670774732
  Basis Set: CC-PVTZ
  Basis Set:
  Basis Set: CC-PVTZ
  Basis Set:
  @DF-RHF Final Energy:  -305.30305690326026
    Total Energy =                       -305.3030569032604262
  Basis Set: CC-PVTZ
  Basis Set:
  Basis Set: CC-PVTZ
  Basis Set:
  @DF-RHF Final Energy:  -305.30306163104137
    Total Energy =                       -305.3030616310415439
  Basis Set: CC-PVTZ
  Basis Set:
  Charge       = 0
  Multiplicity = 1
  Basis Set: CC-PVTZ
  Basis Set:

    Orbital Energies (a.u.)
    -----------------------

    Doubly Occupied:

       1A    -15.532535     2A    -15.530627     3A    -11.236469
       4A    -11.236450     5A    -11.235660     6A    -11.235616
       7A    -11.232937     8A     -1.246037     9A     -1.184993
      10A     -1.023611    11A     -0.964949    12A     -0.861317
      13A     -0.859041    14A     -0.756370    15A     -0.691816
      16A     -0.632165    17A     -0.624189    18A     -0.606196
      19A     -0.605262    20A     -0.582143    21A     -0.544205
      22A     -0.535354    23A     -0.512317    24A     -0.488259
      25A     -0.467644    26A     -0.457388    27A     -0.365434
      28A     -0.340236

  @DF-RHF Final Energy:  -305.30306217219413

   => Energetics <=

    Nuclear Repulsion Energy =            339.7018333404224677
    One-Electron Energy =               -1086.8313555701349742
    Two-Electron Energy =                 441.8264600575184318
    DFT Exchange-Correlation Energy =       0.0000000000000000
    Empirical Dispersion Energy =           0.0000000000000000
    PCM Polarization Energy =               0.0000000000000000
    EFP Energy =                            0.0000000000000000
    Total Energy =                       -305.3030621721940747
    Molecular point group: c1
  Basis Set: CC-PVTZ
  Basis Set:

  -Total Gradient:
     Atom            X                  Y                   Z
    ------   -----------------  -----------------  -----------------
       1       -0.000000640579     0.000001071595    -0.000002428132
       2       -0.000004637724     0.000013247791    -0.000003631789
       3        0.000020212791    -0.000011080766     0.000014258370
       4        0.000014139449    -0.000012141071    -0.000006212754
       5        0.000009852532    -0.000007530018    -0.000004414685
       6       -0.000005531712     0.000000981752    -0.000001038819
       7        0.000241994905     0.000958966056    -0.000373290325
       8        0.000009072606    -0.000007599606     0.000002725743
       9       -0.000006148936    -0.000000045515    -0.000002487758
      10       -0.000022638715    -0.000004047650    -0.000003013334
      11       -0.000002614920     0.000007653838     0.000012028368
      12       -0.000002414890     0.000003336242     0.000002783973
      13       -0.000314194229    -0.001274501762     0.000153483678
      14       -0.000004001146     0.000004238982    -0.000000375668
      15        0.000000066518     0.000006780981    -0.000005596224
      16       -0.000031957981     0.000134716308     0.001599709901
      17        0.000010285161    -0.000018092066    -0.000003303807
      18        0.000017510565    -0.000020731602    -0.000002024630
      19        0.000071646306     0.000224776512    -0.001377172106

  **** Optimization is complete! (in 6 steps) ****
    Final optimized geometry and variables:
    Molecular point group: c1

    Geometry (in Angstrom), charge = 0, multiplicity = 1:

    H            2.484171422199    -1.198333313921    -0.056596511919
    N            1.507382515892    -1.001010581934    -0.057131433091
    C            1.151748136637    -0.180594221089    -1.197164402504
    C            1.110045466488    -0.379640967072     1.189956382311
    H            1.448541083557    -0.689193447684    -2.106531445438
    H            1.648890543792     0.791286444598    -1.178231169220
    C           -0.349685225244     0.044055366011    -1.209832926156
    H            1.374871681301    -1.033404557206     2.012248596137
    H            1.605906379879     0.579720472986     1.350426983555
    C           -0.391201764887    -0.154460080635     1.185249873610
    H           -0.848812896694    -0.910618434248    -1.401135959726
    H           -0.602817930006     0.715518143886    -2.021316279242
    N           -0.784230193142     0.635274095953     0.038064206831
    H           -0.676453481840     0.373846967488     2.087347193072
    H           -0.895691029787    -1.125208009712     1.196974597346
    C           -2.183544956328     1.023121952738     0.051498135164
    H           -2.658365939092     0.802482239657    -0.897971536715
    H           -2.742412907019     0.491156479485     0.815399599133
    H           -2.295637362619     2.087474473931     0.229664037160

  Mulliken Charges: (a.u.)
   Center  Symbol    Alpha    Beta     Spin     Total
       1     H     0.43995  0.43995  0.00000  0.12010
       2     N     3.64274  3.64274  0.00000 -0.28547
       3     C     3.04200  3.04200  0.00000 -0.08400
       4     C     3.04201  3.04201  0.00000 -0.08403
       5     H     0.45274  0.45274  0.00000  0.09451
       6     H     0.46626  0.46626  0.00000  0.06749
       7     C     3.03438  3.03438  0.00000 -0.06876
       8     H     0.45276  0.45276  0.00000  0.09448
       9     H     0.46622  0.46622  0.00000  0.06757
      10     C     3.03474  3.03474  0.00000 -0.06948
      11     H     0.46897  0.46897  0.00000  0.06206
      12     H     0.45384  0.45384  0.00000  0.09233
      13     N     3.61679  3.61679  0.00000 -0.23359
      14     H     0.45368  0.45368  0.00000  0.09263
      15     H     0.46893  0.46893  0.00000  0.06215
      16     C     3.09133  3.09133  0.00000 -0.18266
      17     H     0.46021  0.46021  0.00000  0.07958
      18     H     0.46197  0.46197  0.00000  0.07606
      19     H     0.45049  0.45049  0.00000  0.09902

   Total alpha = 28.00000, Total beta = 28.00000, Total charge = -0.00000

*** Psi4 exiting successfully. Buy a developer a beer!
