                              Psi4 1.0.54 Driver

  ==> Input File <==

--------------------------------------------------------------------------
set {
	reference rhf
	basis cc-pvtz
}

set_num_threads( 4 )
memory 2 gb

molecule MOL {
0 1

O	 -2.081319	 -0.951530	 -0.502732
N	 -1.613558	 0.006676	 0.014756
C	 -0.329345	 -0.171618	 0.743966
O	 -2.068523	 1.100482	 -0.024385
C	 0.835904	 0.041968	 -0.213982
H	 -0.346048	 -1.174374	 1.137184
H	 -0.333613	 0.555559	 1.538590
C	 2.177039	 -0.130175	 0.494460
H	 0.754456	 -0.665923	 -1.030569
H	 0.765464	 1.037260	 -0.637266
C	 3.204921	 -0.848978	 -0.372293
H	 2.029768	 -0.685368	 1.416148
H	 2.562546	 0.844359	 0.779198
H	 2.861082	 -1.840455	 -0.645138
H	 3.396087	 -0.300448	 -1.287873
H	 4.146206	 -0.956916	 0.152582

	symmetry c1
}
set optking {
	frozen_dihedral = ("
		11 8 5 9
	")
}

ee,wfn = optimize('scf', return_wfn=True)
oeprop( wfn, 'DIPOLE', 'QUADRUPOLE', 'MULLIKEN_CHARGES')
f=open( 'psi4out.xyz', 'w' )
f.write( "16  " )
f.write( str(ee) + "\n" )
f.write( MOL.save_string_xyz() )
f.close()
--------------------------------------------------------------------------

    Molecular point group: c1
  Charge       = 0
  Multiplicity = 1
  Basis Set: CC-PVTZ
  Basis Set:
  @DF-RHF Final Energy:  -360.90538312753461
    Total Energy =                       -360.9053831275343782
    Molecular point group: c1
  Basis Set: CC-PVTZ
  Basis Set:
  Basis Set: CC-PVTZ
  Basis Set:
  @DF-RHF Final Energy:  -360.90565529600292
    Total Energy =                       -360.9056552960032604
  Basis Set: CC-PVTZ
  Basis Set:
  Basis Set: CC-PVTZ
  Basis Set:
  @DF-RHF Final Energy:  -360.90505757348416
    Total Energy =                       -360.9050575734840436
  Basis Set: CC-PVTZ
  Basis Set:
  Basis Set: CC-PVTZ
  Basis Set:
  @DF-RHF Final Energy:  -360.90563714193968
    Total Energy =                       -360.9056371419402467
  Basis Set: CC-PVTZ
  Basis Set:
  Basis Set: CC-PVTZ
  Basis Set:
  @DF-RHF Final Energy:  -360.90568541440069
    Total Energy =                       -360.9056854144009776
  Basis Set: CC-PVTZ
  Basis Set:
  Basis Set: CC-PVTZ
  Basis Set:
  @DF-RHF Final Energy:  -360.90570444379460
    Total Energy =                       -360.9057044437947752
  Basis Set: CC-PVTZ
  Basis Set:
  Charge       = 0
  Multiplicity = 1
  Basis Set: CC-PVTZ
  Basis Set:

    Orbital Energies (a.u.)
    -----------------------

    Doubly Occupied:

       1A    -20.589779     2A    -20.589646     3A    -15.836124
       4A    -11.296920     5A    -11.250312     6A    -11.241928
       7A    -11.226254     8A     -1.635205     9A     -1.419564
      10A     -1.135814    11A     -1.058978    12A     -0.948699
      13A     -0.844535    14A     -0.829530    15A     -0.758985
      16A     -0.737625    17A     -0.728311    18A     -0.672907
      19A     -0.621420    20A     -0.606964    21A     -0.564752
      22A     -0.546656    23A     -0.516339    24A     -0.504286
      25A     -0.492972    26A     -0.485822    27A     -0.469334
      28A     -0.451990

  @DF-RHF Final Energy:  -360.90570511072474

   => Energetics <=

    Nuclear Repulsion Energy =            313.0520844465127084
    One-Electron Energy =               -1111.7922726432886975
    Two-Electron Energy =                 437.8344830860512502
    DFT Exchange-Correlation Energy =       0.0000000000000000
    Empirical Dispersion Energy =           0.0000000000000000
    PCM Polarization Energy =               0.0000000000000000
    EFP Energy =                            0.0000000000000000
    Total Energy =                       -360.9057051107247389
    Molecular point group: c1
  Basis Set: CC-PVTZ
  Basis Set:

  -Total Gradient:
     Atom            X                  Y                   Z
    ------   -----------------  -----------------  -----------------
       1        0.000012614068    -0.000038678361     0.000004993787
       2       -0.000000989942     0.000020490541    -0.000004596091
       3        0.000005647768    -0.000037508063     0.000001388492
       4        0.000012754932     0.000035749902     0.000013854718
       5       -0.002281922730    -0.004289021599     0.003550934950
       6       -0.000016760067    -0.000007218830    -0.000007665432
       7       -0.000010111684    -0.000000714898     0.000007115347
       8        0.001542036765     0.004166202012    -0.002110549914
       9        0.001618497556     0.002636533611    -0.002492398394
      10        0.000019200830     0.000020654874     0.000006631885
      11       -0.000882115292    -0.002519697106     0.001049589318
      12       -0.000039308186     0.000002104063    -0.000013397212
      13        0.000007876921     0.000025073036    -0.000011935307
      14        0.000001083239    -0.000029255787     0.000004339099
      15       -0.000001779522     0.000000266275    -0.000016702985
      16        0.000013275346     0.000015020335     0.000018397739

  **** Optimization is complete! (in 7 steps) ****
    Final optimized geometry and variables:
    Molecular point group: c1

    Geometry (in Angstrom), charge = 0, multiplicity = 1:

    O           -2.103804358267    -0.764487803626    -0.501936644785
    N           -1.596227531276     0.174353937811     0.013745409961
    C           -0.311366109294    -0.053544828003     0.728283425020
    O           -2.011927340838     1.283976013605    -0.016020060101
    C            0.851407963024     0.122471783324    -0.238030078319
    H           -0.359394298014    -1.056578738613     1.117920545306
    H           -0.280320509989     0.670180367072     1.525863599272
    C            2.207994409132    -0.030237877062     0.469356906046
    H            0.765218425939    -0.587833550750    -1.050902535476
    H            0.780505865053     1.105115360281    -0.689054594117
    C            3.248500437162    -0.741729972941    -0.389047962119
    H            2.078538990713    -0.598773291381     1.386065186968
    H            2.573205649762     0.944692484743     0.770161526872
    H            2.926551832663    -1.748615181181    -0.629415036447
    H            3.416034953163    -0.215798708524    -1.322906074471
    H            4.198117113243    -0.808590809313     0.128045172096

  Mulliken Charges: (a.u.)
   Center  Symbol    Alpha    Beta     Spin     Total
       1     O     4.17405  4.17405  0.00000 -0.34810
       2     N     3.27644  3.27644  0.00000  0.44712
       3     C     3.04044  3.04044  0.00000 -0.08088
       4     O     4.17393  4.17393  0.00000 -0.34787
       5     C     3.10423  3.10423  0.00000 -0.20846
       6     H     0.43409  0.43409  0.00000  0.13183
       7     H     0.43325  0.43325  0.00000  0.13351
       8     C     3.09354  3.09354  0.00000 -0.18708
       9     H     0.43781  0.43781  0.00000  0.12439
      10     H     0.43614  0.43614  0.00000  0.12771
      11     C     3.14696  3.14696  0.00000 -0.29392
      12     H     0.45431  0.45431  0.00000  0.09138
      13     H     0.44538  0.44538  0.00000  0.10925
      14     H     0.45224  0.45224  0.00000  0.09553
      15     H     0.45097  0.45097  0.00000  0.09805
      16     H     0.44623  0.44623  0.00000  0.10755

   Total alpha = 28.00000, Total beta = 28.00000, Total charge = -0.00000

*** Psi4 exiting successfully. Buy a developer a beer!
