  ==> Input File <==

--------------------------------------------------------------------------
set {
	reference rhf
	basis 6-31G*
}

set_num_threads( 4 )
memory 2 gb

molecule MOL {
0 1

H	 -3.261111	 -0.295142	 1.469456
C	 -3.306842	 -0.277400	 0.373456
C	 -2.660244	 0.921717	 -0.272021
O	 -3.838538	 -1.161155	 -0.216482
C	 -3.263934	 1.248116	 -1.645075
H	 -2.740576	 1.761438	 0.408511
H	 -1.602813	 0.689079	 -0.391910
C	 -4.717518	 1.723030	 -1.575441
H	 -2.655759	 2.015630	 -2.114469
H	 -3.194376	 0.371879	 -2.287825
C	 -5.302328	 2.055548	 -2.949575
H	 -4.774993	 2.600231	 -0.934299
H	 -5.332142	 0.961588	 -1.099014
C	 -6.750887	 2.545470	 -2.874734
H	 -4.678755	 2.808629	 -3.424715
H	 -5.254335	 1.172289	 -3.585134
C	 -7.406693	 2.812632	 -4.234372
H	 -6.794128	 3.450941	 -2.271454
H	 -7.343007	 1.801116	 -2.346488
C	 -6.792570	 3.972969	 -5.019287
H	 -8.460920	 3.022335	 -4.071348
H	 -7.367739	 1.907597	 -4.837129
H	 -6.803189	 4.888784	 -4.434105
H	 -5.764546	 3.773165	 -5.302519
H	 -7.350749	 4.158430	 -5.931994

	symmetry c1
}
set optking {
	frozen_dihedral = ("
		6 3 2 4
	")
}

ee = optimize('scf')
oeprop('DIPOLE', 'QUADRUPOLE', 'MULLIKEN_CHARGES')
f=open( 'psi4out.xyz', 'w' )
f.write( "25  " )
f.write( str(ee) + "\n" )
f.write( MOL.save_string_xyz() )
f.close()
--------------------------------------------------------------------------

    Molecular point group: c1
  Charge       = 0
  Multiplicity = 1
  Basis Set: 6-31G*
  Basis Set:
  @DF-RHF Final Energy:  -387.12204920065534
    Total Energy =                       -387.1220492006557379
    Molecular point group: c1
  Basis Set: 6-31G*
  Basis Set:
  Basis Set: 6-31G*
  Basis Set:
  @DF-RHF Final Energy:  -387.12136452264593
    Total Energy =                       -387.1213645226458766
  Basis Set: 6-31G*
  Basis Set:
  Basis Set: 6-31G*
  Basis Set:
  @DF-RHF Final Energy:  -387.12239129488398
    Total Energy =                       -387.1223912948848920
  Basis Set: 6-31G*
  Basis Set:
  Basis Set: 6-31G*
  Basis Set:
  @DF-RHF Final Energy:  -387.12273267574602
    Total Energy =                       -387.1227326757460787
  Basis Set: 6-31G*
  Basis Set:
  Charge       = 0
  Multiplicity = 1
  Basis Set: 6-31G*
  Basis Set:

    Orbital Energies (a.u.)
    -----------------------

    Doubly Occupied:

       1A    -20.563661     2A    -11.328852     3A    -11.236989
       4A    -11.222884     5A    -11.215353     6A    -11.213864
       7A    -11.212801     8A    -11.212048     9A    -11.207248
      10A     -1.404027    11A     -1.096041    12A     -1.064176
      13A     -1.009804    14A     -0.941503    15A     -0.876340
      16A     -0.818313    17A     -0.777177    18A     -0.764012
      19A     -0.687402    20A     -0.646423    21A     -0.627769
      22A     -0.625773    23A     -0.604091    24A     -0.590210
      25A     -0.565769    26A     -0.545533    27A     -0.532045
      28A     -0.520552    29A     -0.500472    30A     -0.495963
      31A     -0.482366    32A     -0.472671    33A     -0.459100
      34A     -0.453486    35A     -0.436416    36A     -0.411321

  @DF-RHF Final Energy:  -387.12273349626196

   => Energetics <=

    Nuclear Repulsion Energy =            443.2216661014361989
    One-Electron Energy =               -1403.0438905514429280
    Two-Electron Energy =                 572.6994909537442027
    DFT Exchange-Correlation Energy =       0.0000000000000000
    Empirical Dispersion Energy =           0.0000000000000000
    PCM Polarization Energy =               0.0000000000000000
    EFP Energy =                            0.0000000000000000
    Total Energy =                       -387.1227334962625264
    Molecular point group: c1
  Basis Set: 6-31G*
  Basis Set:

  -Total Gradient:
     Atom            X                  Y                   Z
    ------   -----------------  -----------------  -----------------
       1       -0.000092252075    -0.000039962567    -0.000044912477
       2       -0.001895425168     0.001299418759     0.000574692522
       3       -0.001194898819    -0.000040424997    -0.000830890194
       4        0.001552795428    -0.000967897732    -0.000236163141
       5       -0.000077704253     0.000101195451    -0.000052084456
       6        0.001640203776    -0.000413165965     0.000596778059
       7        0.000053528933    -0.000040182626     0.000007377195
       8        0.000095078284     0.000064617369     0.000000805508
       9       -0.000045551000     0.000041369874     0.000026322563
      10        0.000051631735     0.000067733157     0.000000137712
      11       -0.000047310659    -0.000028695800    -0.000043340241
      12       -0.000041859218     0.000024345655    -0.000062799622
      13        0.000054159518    -0.000003257782     0.000093056782
      14       -0.000026677993    -0.000015947912    -0.000018814445
      15       -0.000009793911    -0.000034090900     0.000040970747
      16        0.000009514478    -0.000029243860    -0.000049844996
      17        0.000006808305     0.000010994725     0.000002236670
      18        0.000014057943    -0.000007627799     0.000006125553
      19       -0.000035976669     0.000014953033    -0.000005991003
      20       -0.000009371410     0.000001194281    -0.000001746453
      21       -0.000006879508    -0.000008151840    -0.000004886473
      22        0.000018817045     0.000001521300     0.000001394343
      23        0.000008460967    -0.000002238357     0.000007075503
      24       -0.000012337627    -0.000002543867    -0.000010365342
      25       -0.000009018101     0.000006088404     0.000004865687

  **** Optimization is complete! (in 5 steps) ****
    Final optimized geometry and variables:
    Molecular point group: c1

    Geometry (in Angstrom), charge = 0, multiplicity = 1:

    H            1.763302079035    -1.918061128690     3.521869519700
    C            1.629205653785    -1.851420838701     2.436472943060
    C            2.210470844026    -0.618015869974     1.786313557550
    O            1.102368361545    -2.739599481426     1.847413505183
    C            1.617339027991    -0.277750563159     0.418989054251
    H            2.135362140588     0.214470044830     2.481957361127
    H            3.279007082624    -0.817559902665     1.692742664496
    C            0.169100505828     0.212632721595     0.485427998891
    H            2.235300770385     0.488315577796    -0.042307593316
    H            1.677389122994    -1.155124670058    -0.215641646349
    C           -0.411212476075     0.537653007107    -0.892578850470
    H            0.118394664915     1.100370713114     1.114746301170
    H           -0.447072248156    -0.543867327364     0.963260777964
    C           -1.858035654052     1.033918238203    -0.825293326582
    H            0.216451214089     1.283390933541    -1.374257807523
    H           -0.366266584492    -0.352488678915    -1.517724274367
    C           -2.512473539501     1.287051744391    -2.188264233642
    H           -1.898741838837     1.947535787265    -0.233804545318
    H           -2.453197918446     0.298282875600    -0.288420345793
    C           -1.893803732411     2.435586334132    -2.987291555886
    H           -3.566428237056     1.501632775795    -2.029174373624
    H           -2.475216386768     0.374375401204    -2.779419102883
    H           -1.903669313162     3.359176565745    -2.414449747797
    H           -0.865546212767     2.229686862818    -3.265463178192
    H           -2.449316609129     2.610559403254    -3.903575470998

  Mulliken Charges: (a.u.)
   Center  Symbol    Alpha    Beta     Spin     Total
       1     H     0.42689  0.42689  0.00000  0.14622
       2     C     2.83724  2.83724  0.00000  0.32552
       3     C     3.21271  3.21271  0.00000 -0.42543
       4     O     4.23900  4.23900  0.00000 -0.47800
       5     C     3.15265  3.15265  0.00000 -0.30530
       6     H     0.41200  0.41200  0.00000  0.17599
       7     H     0.40177  0.40177  0.00000  0.19647
       8     C     3.15670  3.15670  0.00000 -0.31341
       9     H     0.41925  0.41925  0.00000  0.16149
      10     H     0.40600  0.40600  0.00000  0.18801
      11     C     3.15451  3.15451  0.00000 -0.30903
      12     H     0.42642  0.42642  0.00000  0.14717
      13     H     0.41289  0.41289  0.00000  0.17421
      14     C     3.15285  3.15285  0.00000 -0.30570
      15     H     0.42278  0.42278  0.00000  0.15444
      16     H     0.42065  0.42065  0.00000  0.15871
      17     C     3.15249  3.15249  0.00000 -0.30499
      18     H     0.42536  0.42536  0.00000  0.14929
      19     H     0.42070  0.42070  0.00000  0.15859
      20     C     3.24112  3.24112  0.00000 -0.48224
      21     H     0.42111  0.42111  0.00000  0.15779
      22     H     0.42247  0.42247  0.00000  0.15505
      23     H     0.42287  0.42287  0.00000  0.15426
      24     H     0.42025  0.42025  0.00000  0.15949
      25     H     0.41930  0.41930  0.00000  0.16140

   Total alpha = 36.00000, Total beta = 36.00000, Total charge =  0.00000
