  ==> Input File <==

--------------------------------------------------------------------------
set {
	reference rhf
	basis 6-31G*
}

set_num_threads( 4 )
memory 2 gb

molecule MOL {
0 1

H	 2.591676	 2.013956	 0.335017
O	 3.341076	 1.666752	 -0.126416
C	 3.569581	 0.339145	 0.272707
C	 2.286144	 -0.464700	 0.449759
H	 4.173161	 -0.103507	 -0.509230
H	 4.157958	 0.312657	 1.189162
C	 1.377961	 0.051291	 1.568609
H	 1.743624	 -0.460012	 -0.492057
H	 2.559143	 -1.498782	 0.653506
C	 0.124853	 -0.808413	 1.756886
H	 1.086309	 1.074453	 1.348508
H	 1.936243	 0.078638	 2.504511
C	 -0.777401	 -0.385094	 2.921823
H	 -0.453199	 -0.805468	 0.834555
H	 0.433339	 -1.839317	 1.917430
C	 -1.453388	 0.978118	 2.751016
H	 -1.549326	 -1.141342	 3.048458
H	 -0.198450	 -0.387641	 3.844128
C	 -2.423610	 1.308908	 3.887098
H	 -1.991067	 0.996079	 1.804080
H	 -0.703227	 1.762900	 2.690361
C	 -3.094927	 2.671939	 3.722351
H	 -3.186794	 0.535819	 3.945173
H	 -1.890229	 1.281892	 4.835075
H	 -3.663875	 2.719591	 2.798094
H	 -3.777498	 2.876263	 4.541487
H	 -2.359505	 3.471264	 3.697912

	symmetry c1
}
set optking {
	frozen_dihedral = ("
		4 3 2 1
	")
}

ee = optimize('scf')
oeprop('DIPOLE', 'QUADRUPOLE', 'MULLIKEN_CHARGES')
f=open( 'psi4out.xyz', 'w' )
f.write( "27  " )
f.write( str(ee) + "\n" )
f.write( MOL.save_string_xyz() )
f.close()
--------------------------------------------------------------------------

    Molecular point group: c1
  Charge       = 0
  Multiplicity = 1
  Basis Set: 6-31G*
  Basis Set:
  @DF-RHF Final Energy:  -388.28020514374413
    Total Energy =                       -388.2802051437440696
    Molecular point group: c1
  Basis Set: 6-31G*
  Basis Set:
  Basis Set: 6-31G*
  Basis Set:
  @DF-RHF Final Energy:  -388.28019639950594
    Total Energy =                       -388.2801963995057122
  Basis Set: 6-31G*
  Basis Set:
  Basis Set: 6-31G*
  Basis Set:
  @DF-RHF Final Energy:  -388.28036586697829
    Total Energy =                       -388.2803658669780589
  Basis Set: 6-31G*
  Basis Set:
  Basis Set: 6-31G*
  Basis Set:
  @DF-RHF Final Energy:  -388.28037315805409
    Total Energy =                       -388.2803731580544309
  Basis Set: 6-31G*
  Basis Set:
  Basis Set: 6-31G*
  Basis Set:
  @DF-RHF Final Energy:  -388.28036172805116
    Total Energy =                       -388.2803617280509343
  Basis Set: 6-31G*
  Basis Set:
  Basis Set: 6-31G*
  Basis Set:
  @DF-RHF Final Energy:  -388.28037832690757
    Total Energy =                       -388.2803783269066571
  Basis Set: 6-31G*
  Basis Set:
  Charge       = 0
  Multiplicity = 1
  Basis Set: 6-31G*
  Basis Set:

    Orbital Energies (a.u.)
    -----------------------

    Doubly Occupied:

       1A    -20.549702     2A    -11.266207     3A    -11.225130
       4A    -11.220693     5A    -11.220588     6A    -11.218063
       7A    -11.217620     8A    -11.216493     9A    -11.210607
      10A     -1.357252    11A     -1.098286    12A     -1.064122
      13A     -1.013395    14A     -0.950265    15A     -0.890603
      16A     -0.823794    17A     -0.805254    18A     -0.781284
      19A     -0.679872    20A     -0.656401    21A     -0.644614
      22A     -0.615577    23A     -0.607614    24A     -0.584506
      25A     -0.579696    26A     -0.559874    27A     -0.541314
      28A     -0.531752    29A     -0.506607    30A     -0.497371
      31A     -0.488528    32A     -0.478703    33A     -0.469143
      34A     -0.463206    35A     -0.451431    36A     -0.439109
      37A     -0.427629

  @DF-RHF Final Energy:  -388.28037812075667

   => Energetics <=

    Nuclear Repulsion Energy =            459.4674063483069517
    One-Electron Energy =               -1436.7909473549761969
    Two-Electron Energy =                 589.0431628859126931
    DFT Exchange-Correlation Energy =       0.0000000000000000
    Empirical Dispersion Energy =           0.0000000000000000
    PCM Polarization Energy =               0.0000000000000000
    EFP Energy =                            0.0000000000000000
    Total Energy =                       -388.2803781207566090
    Molecular point group: c1
  Basis Set: 6-31G*
  Basis Set:

  -Total Gradient:
     Atom            X                  Y                   Z
    ------   -----------------  -----------------  -----------------
       1       -0.001365964594    -0.000757733140    -0.001747550647
       2        0.001631544104     0.001269545186     0.002873807709
       3       -0.000156031363    -0.000949819961    -0.002674882990
       4       -0.000070461992     0.000443255609     0.001461763128
       5        0.000060942281    -0.000055283754     0.000023092234
       6       -0.000051201527     0.000051808247    -0.000012890247
       7       -0.000018379285    -0.000038982774     0.000043672768
       8        0.000032112025    -0.000001926854     0.000006939503
       9       -0.000001011243    -0.000007280958    -0.000002312554
      10       -0.000009451825     0.000052637229     0.000018617334
      11       -0.000047576271    -0.000002578841     0.000015940237
      12       -0.000015161488    -0.000008608174     0.000020377044
      13        0.000002823259    -0.000012182803     0.000007284430
      14       -0.000012048609    -0.000008390677    -0.000000168617
      15        0.000031145472     0.000027554321    -0.000000312713
      16       -0.000020233564    -0.000005514947    -0.000021131431
      17        0.000002965715    -0.000000082549    -0.000018337185
      18       -0.000012119290    -0.000016579357     0.000009956025
      19        0.000010895156     0.000011734666     0.000006561215
      20       -0.000018089174    -0.000002402192     0.000005270601
      21        0.000011651193     0.000004426264    -0.000020821264
      22        0.000012700230     0.000008013314     0.000007738296
      23        0.000001261692     0.000005915049    -0.000010576022
      24       -0.000001968960    -0.000008050078     0.000006952891
      25        0.000001106190    -0.000003607199     0.000001004528
      26        0.000002214709     0.000000591501     0.000001301775
      27       -0.000001662852     0.000003542868    -0.000001296046

  **** Optimization is complete! (in 7 steps) ****
    Final optimized geometry and variables:
    Molecular point group: c1

    Geometry (in Angstrom), charge = 0, multiplicity = 1:

    H            2.258915046879     1.402240626433    -1.636803441753
    O            3.013141309367     1.020176430288    -2.060335369476
    C            3.208564516844    -0.294230461923    -1.605248967100
    C            1.917263550832    -1.086748951214    -1.426969614883
    H            3.836380129318    -0.774776011256    -2.344683417615
    H            3.761403289409    -0.284955726617    -0.666429300672
    C            1.005017072761    -0.568207280250    -0.310346768741
    H            1.377284971891    -1.093613454955    -2.371088447206
    H            2.185781447341    -2.118969955298    -1.212221709562
    C           -0.248029577294    -1.429653111227    -0.128308162156
    H            0.705543497888     0.456270282059    -0.519797731998
    H            1.561977672691    -0.540002550469     0.624990487210
    C           -1.151931358807    -1.012956614681     1.037704776169
    H           -0.824976922067    -1.423910070412    -1.051364920369
    H            0.062310602696    -2.460499866138     0.028072176354
    C           -1.828428751797     0.350932951204     0.874261067284
    H           -1.923478657337    -1.770432180987     1.158322141198
    H           -0.574276679094    -1.020857511164     1.960627130082
    C           -2.798287731083     0.675118987635     2.012574897363
    H           -2.366666511054     0.373910521338    -0.072364185457
    H           -1.078613034373     1.136479682064     0.818426190540
    C           -3.468246614963     2.039829395764     1.856752350323
    H           -3.562085367072    -0.097693295149     2.065455292233
    H           -2.264745857353     0.641416357579     2.960174535149
    H           -4.037340442636     2.094074474526     0.932939348459
    H           -4.150537466546     2.239216873285     2.677260978983
    H           -2.732103819582     2.838605295256     1.837732230763

  Mulliken Charges: (a.u.)
   Center  Symbol    Alpha    Beta     Spin     Total
       1     H     0.27845  0.27845  0.00000  0.44309
       2     O     4.37605  4.37605  0.00000 -0.75210
       3     C     2.98460  2.98460  0.00000  0.03079
       4     C     3.17508  3.17508  0.00000 -0.35015
       5     H     0.41629  0.41629  0.00000  0.16742
       6     H     0.43198  0.43198  0.00000  0.13603
       7     C     3.16145  3.16145  0.00000 -0.32290
       8     H     0.41526  0.41526  0.00000  0.16948
       9     H     0.42034  0.42034  0.00000  0.15932
      10     C     3.15221  3.15221  0.00000 -0.30441
      11     H     0.42908  0.42908  0.00000  0.14183
      12     H     0.42034  0.42034  0.00000  0.15931
      13     C     3.15370  3.15370  0.00000 -0.30741
      14     H     0.42177  0.42177  0.00000  0.15646
      15     H     0.42049  0.42049  0.00000  0.15902
      16     C     3.15288  3.15288  0.00000 -0.30577
      17     H     0.42066  0.42066  0.00000  0.15868
      18     H     0.42334  0.42334  0.00000  0.15331
      19     C     3.15128  3.15128  0.00000 -0.30256
      20     H     0.42394  0.42394  0.00000  0.15212
      21     H     0.42363  0.42363  0.00000  0.15274
      22     C     3.23932  3.23932  0.00000 -0.47865
      23     H     0.42265  0.42265  0.00000  0.15470
      24     H     0.42278  0.42278  0.00000  0.15444
      25     H     0.42156  0.42156  0.00000  0.15688
      26     H     0.41884  0.41884  0.00000  0.16232
      27     H     0.42199  0.42199  0.00000  0.15601

   Total alpha = 37.00000, Total beta = 37.00000, Total charge = -0.00000
