  ==> Input File <==

--------------------------------------------------------------------------
set {
	reference rhf
	basis 6-31G*
}

set_num_threads( 4 )
memory 2 gb

molecule MOL {
0 1

H	 -0.000158	 1.970498	 0.756846
O	 -0.000074	 1.880206	 -0.189275
C	 -0.000015	 0.544847	 -0.545111
C	 -1.396815	 0.126959	 -0.992665
C	 0.562278	 -0.296309	 0.596065
H	 0.660988	 0.428851	 -1.391115
F	 -1.763471	 0.849359	 -2.029606
F	 -1.450733	 -1.141380	 -1.340183
F	 -2.279864	 0.328366	 -0.027649
F	 1.795743	 0.080544	 0.856993
F	 0.581034	 -1.580269	 0.307147
F	 -0.151962	 -0.131639	 1.698029

	symmetry c1
}
set optking {
	frozen_dihedral = ("
		6 3 2 1
	")
}

ee = optimize('scf')
oeprop('DIPOLE', 'QUADRUPOLE', 'MULLIKEN_CHARGES')
f=open( 'psi4out.xyz', 'w' )
f.write( "12  " )
f.write( str(ee) + "\n" )
f.write( MOL.save_string_xyz() )
f.close()
--------------------------------------------------------------------------

    Molecular point group: c1
  Charge       = 0
  Multiplicity = 1
  Basis Set: 6-31G*
  Basis Set:
  @DF-RHF Final Energy:  -786.27464797105699
    Total Energy =                       -786.2746479710564245
    Molecular point group: c1
  Basis Set: 6-31G*
  Basis Set:
  Basis Set: 6-31G*
  Basis Set:
  @DF-RHF Final Energy:  -786.27507764367920
    Total Energy =                       -786.2750776436788556
  Basis Set: 6-31G*
  Basis Set:
  Basis Set: 6-31G*
  Basis Set:
  @DF-RHF Final Energy:  -786.27519444284997
    Total Energy =                       -786.2751944428498518
  Basis Set: 6-31G*
  Basis Set:
  Basis Set: 6-31G*
  Basis Set:
  @DF-RHF Final Energy:  -786.27520430822653
    Total Energy =                       -786.2752043082268756
  Basis Set: 6-31G*
  Basis Set:
  Basis Set: 6-31G*
  Basis Set:
  @DF-RHF Final Energy:  -786.27520566064902
    Total Energy =                       -786.2752056606489077
  Basis Set: 6-31G*
  Basis Set:
  Charge       = 0
  Multiplicity = 1
  Basis Set: 6-31G*
  Basis Set:

    Orbital Energies (a.u.)
    -----------------------

    Doubly Occupied:

       1A    -26.369642     2A    -26.368662     3A    -26.365349
       4A    -26.355770     5A    -26.355300     6A    -26.352519
       7A    -20.614884     8A    -11.532978     9A    -11.520120
      10A    -11.349399    11A     -1.769479    12A     -1.754953
      13A     -1.667409    14A     -1.663111    15A     -1.652282
      16A     -1.650744    17A     -1.432985    18A     -1.103067
      19A     -0.997934    20A     -0.937994    21A     -0.867906
      22A     -0.863052    23A     -0.855352    24A     -0.841938
      25A     -0.831013    26A     -0.809161    27A     -0.745440
      28A     -0.732196    29A     -0.720424    30A     -0.717273
      31A     -0.695120    32A     -0.690214    33A     -0.684963
      34A     -0.671540    35A     -0.667520    36A     -0.666632
      37A     -0.653506    38A     -0.652391    39A     -0.617709
      40A     -0.549030    41A     -0.504222

  @DF-RHF Final Energy:  -786.27520585468790

   => Energetics <=

    Nuclear Repulsion Energy =            670.6301311169873998
    One-Electron Energy =               -2428.1083059620114000
    Two-Electron Energy =                 971.2029689903355347
    DFT Exchange-Correlation Energy =       0.0000000000000000
    Empirical Dispersion Energy =           0.0000000000000000
    PCM Polarization Energy =               0.0000000000000000
    EFP Energy =                            0.0000000000000000
    Total Energy =                       -786.2752058546885792
    Molecular point group: c1
  Basis Set: 6-31G*
  Basis Set:

  -Total Gradient:
     Atom            X                  Y                   Z
    ------   -----------------  -----------------  -----------------
       1        0.003783519010     0.000012216603     0.000109943957
       2       -0.004108494865    -0.000167788429     0.000390807289
       3       -0.002142722841     0.000656360782    -0.002650428510
       4        0.000006580127     0.000051539832     0.000036326773
       5       -0.000030202178    -0.000018211896     0.000036362529
       6        0.002465608051    -0.000492032717     0.002119903023
       7       -0.000016491990    -0.000016696194     0.000018368763
       8        0.000002987936    -0.000017355600     0.000005580252
       9        0.000019245527    -0.000008232134    -0.000017863740
      10        0.000059736567     0.000015266882    -0.000001552388
      11       -0.000013481047    -0.000003857955     0.000008985408
      12       -0.000026284299    -0.000011209170    -0.000056433351

  **** Optimization is complete! (in 6 steps) ****
    Final optimized geometry and variables:
    Molecular point group: c1

    Geometry (in Angstrom), charge = 0, multiplicity = 1:

    H            0.391004792238     1.966859506283     0.881751552988
    O            0.416326319323     1.844253887971    -0.058428036272
    C            0.430448888548     0.501944576726    -0.397574228433
    C           -0.964982463865     0.085162028072    -0.846866328950
    C            0.977058022555    -0.334121486336     0.754483752614
    H            1.110447602320     0.355788950827    -1.225505434233
    F           -1.370834885322     0.874417770780    -1.817445572446
    F           -0.974489202043    -1.153523687844    -1.301590547374
    F           -1.835855606199     0.166628271671     0.140605636114
    F            2.239305157157    -0.013612587222     0.966523737582
    F            0.915764041953    -1.623205995953     0.513977953481
    F            0.316440400235    -0.086401631985     1.874827671499

  Mulliken Charges: (a.u.)
   Center  Symbol    Alpha    Beta     Spin     Total
       1     H     0.26346  0.26346  0.00000  0.47307
       2     O     4.36875  4.36875  0.00000 -0.73749
       3     C     3.03104  3.03104  0.00000 -0.06207
       4     C     2.43969  2.43969  0.00000  1.12063
       5     C     2.46162  2.46162  0.00000  1.07677
       6     H     0.37909  0.37909  0.00000  0.24182
       7     F     4.67509  4.67509  0.00000 -0.35018
       8     F     4.67739  4.67739  0.00000 -0.35479
       9     F     4.67762  4.67762  0.00000 -0.35524
      10     F     4.67667  4.67667  0.00000 -0.35334
      11     F     4.67033  4.67033  0.00000 -0.34065
      12     F     4.67926  4.67926  0.00000 -0.35852

   Total alpha = 41.00000, Total beta = 41.00000, Total charge = -0.00000
