  ==> Input File <==

--------------------------------------------------------------------------
set {
	reference rhf
	basis 6-31G*
}

set_num_threads( 1 )
memory 2 gb

molecule MOL {
0 1

H	 2.591676	 2.013956	 0.335017
O	 3.341076	 1.666752	 -0.126416
C	 3.569581	 0.339145	 0.272707
C	 2.539767	 -0.640285	 -0.279495
H	 4.553106	 0.084646	 -0.100901
H	 3.608576	 0.269204	 1.359154
C	 2.088703	 -0.329087	 -1.708678
H	 2.960208	 -1.641778	 -0.239391
H	 1.675341	 -0.632346	 0.382374
C	 1.015684	 -1.297537	 -2.214200
H	 2.949666	 -0.363907	 -2.370414
H	 1.700432	 0.688598	 -1.752329
C	 0.466815	 -0.979066	 -3.609786
H	 1.415286	 -2.310017	 -2.207116
H	 0.186877	 -1.294345	 -1.509382
C	 1.476672	 -1.133982	 -4.750255
H	 -0.377942	 -1.636977	 -3.803055
H	 0.067749	 0.034117	 -3.616438
C	 0.856143	 -0.908510	 -6.130668
H	 1.911588	 -2.131712	 -4.711608
H	 2.300723	 -0.437073	 -4.617744
C	 1.863451	 -1.056241	 -7.270480
H	 0.039720	 -1.612329	 -6.277569
H	 0.412534	 0.084319	 -6.167916
H	 2.301311	 -2.050427	 -7.280334
H	 1.393191	 -0.892682	 -8.235228
H	 2.674611	 -0.340127	 -7.172686

	symmetry c1
}
set optking {
	frozen_dihedral = ("
		14 10 7 4,
		14 10 13 16,
		10 7 4 8,
		10 13 16 20,
		20 16 19 22,
		4 3 2 1
	")
}

ee = energy('scf')
oeprop('DIPOLE', 'QUADRUPOLE', 'MULLIKEN_CHARGES')
f=open( 'psi4out.xyz', 'w' )
f.write( "27  " )
f.write( str(ee) + "\n" )
f.write( MOL.save_string_xyz() )
f.close()
--------------------------------------------------------------------------

    Molecular point group: c1

    Geometry (in Angstrom), charge = 0, multiplicity = 1:

       Center              X                  Y                   Z               Mass
    ------------   -----------------  -----------------  -----------------  -----------------
           H          0.650780471218     2.457118583761     3.168608345795     1.007825032070
           O          1.400180471218     2.109914583761     2.707175345795    15.994914619560
           C          1.628685471218     0.782307583761     3.106298345795    12.000000000000
           C          0.598871471218    -0.197122416239     2.554096345795    12.000000000000
           H          2.612210471218     0.527808583761     2.732690345795     1.007825032070
           H          1.667680471218     0.712366583761     4.192745345795     1.007825032070
           C          0.147807471218     0.114075583761     1.124913345795    12.000000000000
           H          1.019312471218    -1.198615416239     2.594200345795     1.007825032070
           H         -0.265554528782    -0.189183416239     3.215965345795     1.007825032070
           C         -0.925211528782    -0.854374416239     0.619391345795    12.000000000000
           H          1.008770471218     0.079255583761     0.463177345795     1.007825032070
           H         -0.240463528782     1.131760583761     1.081262345795     1.007825032070
           C         -1.474080528782    -0.535903416239    -0.776194654205    12.000000000000
           H         -0.525609528782    -1.866854416239     0.626475345795     1.007825032070
           H         -1.754018528782    -0.851182416239     1.324209345795     1.007825032070
           C         -0.464223528782    -0.690819416239    -1.916663654205    12.000000000000
           H         -2.318837528782    -1.193814416239    -0.969463654205     1.007825032070
           H         -1.873146528782     0.477279583761    -0.782846654205     1.007825032070
           C         -1.084752528782    -0.465347416239    -3.297076654205    12.000000000000
           H         -0.029307528782    -1.688549416239    -1.878016654205     1.007825032070
           H          0.359827471218     0.006089583761    -1.784152654205     1.007825032070
           C         -0.077444528782    -0.613078416239    -4.436888654205    12.000000000000
           H         -1.901175528782    -1.169166416239    -3.443977654205     1.007825032070
           H         -1.528361528782     0.527481583761    -3.334324654205     1.007825032070
           H          0.360415471218    -1.607264416239    -4.446742654205     1.007825032070
           H         -0.547704528782    -0.449519416239    -5.401636654205     1.007825032070
           H          0.733715471218     0.103035583761    -4.339094654205     1.007825032070

  Charge       = 0
  Multiplicity = 1
  Basis Set: 6-31G*
  Basis Set:

    Orbital Energies (a.u.)
    -----------------------

    Doubly Occupied:

       1A    -20.553920     2A    -11.267586     3A    -11.214964
       4A    -11.212071     5A    -11.211335     6A    -11.210722
       7A    -11.209333     8A    -11.209301     9A    -11.205932
      10A     -1.360950    11A     -1.089618    12A     -1.057036
      13A     -1.008604    14A     -0.945029    15A     -0.883600
      16A     -0.818214    17A     -0.798479    18A     -0.772628
      19A     -0.684297    20A     -0.649435    21A     -0.639988
      22A     -0.610598    23A     -0.604368    24A     -0.584233
      25A     -0.569243    26A     -0.555512    27A     -0.538927
      28A     -0.517622    29A     -0.505688    30A     -0.492185
      31A     -0.477511    32A     -0.464695    33A     -0.462991
      34A     -0.455473    35A     -0.452918    36A     -0.438006
      37A     -0.421971

  @DF-RHF Final Energy:  -388.27934039347718

   => Energetics <=

    Nuclear Repulsion Energy =            460.3026015453211244
    One-Electron Energy =               -1438.8534039024254980
    Two-Electron Energy =                 590.2714619636253701
    DFT Exchange-Correlation Energy =       0.0000000000000000
    Empirical Dispersion Energy =           0.0000000000000000
    PCM Polarization Energy =               0.0000000000000000
    EFP Energy =                            0.0000000000000000
    Total Energy =                       -388.2793403934790604

  Mulliken Charges: (a.u.)
   Center  Symbol    Alpha    Beta     Spin     Total
       1     H     0.28301  0.28301  0.00000  0.43399
       2     O     4.36743  4.36743  0.00000 -0.73486
       3     C     2.99553  2.99553  0.00000  0.00894
       4     C     3.17479  3.17479  0.00000 -0.34958
       5     H     0.41641  0.41641  0.00000  0.16717
       6     H     0.42799  0.42799  0.00000  0.14401
       7     C     3.14783  3.14783  0.00000 -0.29565
       8     H     0.42052  0.42052  0.00000  0.15896
       9     H     0.42725  0.42725  0.00000  0.14550
      10     C     3.15312  3.15312  0.00000 -0.30624
      11     H     0.41969  0.41969  0.00000  0.16062
      12     H     0.41767  0.41767  0.00000  0.16466
      13     C     3.15254  3.15254  0.00000 -0.30509
      14     H     0.42550  0.42550  0.00000  0.14899
      15     H     0.42436  0.42436  0.00000  0.15129
      16     C     3.15301  3.15301  0.00000 -0.30602
      17     H     0.42280  0.42280  0.00000  0.15439
      18     H     0.42409  0.42409  0.00000  0.15182
      19     C     3.15105  3.15105  0.00000 -0.30209
      20     H     0.42533  0.42533  0.00000  0.14935
      21     H     0.42034  0.42034  0.00000  0.15932
      22     C     3.23918  3.23918  0.00000 -0.47836
      23     H     0.42383  0.42383  0.00000  0.15233
      24     H     0.42308  0.42308  0.00000  0.15385
      25     H     0.42227  0.42227  0.00000  0.15546
      26     H     0.41991  0.41991  0.00000  0.16019
      27     H     0.42148  0.42148  0.00000  0.15705

   Total alpha = 37.00000, Total beta = 37.00000, Total charge = -0.00000
