  ==> Input File <==

--------------------------------------------------------------------------
set {
	reference rhf
	basis 6-31G*
}

set_num_threads( 1 )
memory 2 gb

molecule MOL {
0 1

O	 -2.515157	 -0.964164	 -0.088328
C	 -1.921153	 0.064240	 -0.045697
C	 -2.517588	 1.417483	 -0.323808
O	 -0.632575	 0.154573	 0.251549
H	 -1.995118	 1.885119	 -1.150421
H	 -3.565279	 1.309965	 -0.561755
H	 -2.397296	 2.055898	 0.543782
C	 0.160891	 -1.019931	 0.106212
C	 1.589627	 -0.672828	 0.480843
H	 0.089836	 -1.367806	 -0.916050
H	 -0.238459	 -1.792301	 0.749618
C	 2.246377	 0.346236	 -0.452210
H	 2.163194	 -1.597435	 0.473358
H	 1.604769	 -0.303424	 1.502885
C	 3.691736	 0.652107	 -0.061850
H	 2.219579	 -0.032311	 -1.472055
H	 1.666466	 1.263317	 -0.447249
H	 4.134505	 1.377213	 -0.737283
H	 4.305508	 -0.243868	 -0.089969
H	 3.748266	 1.059562	 0.943567

	symmetry c1
}
set optking {
	frozen_dihedral = ("
		16 12 9 8,
		2 4 8 10,
		12 9 8 10
	")
}

ee = energy('scf')
oeprop('DIPOLE', 'QUADRUPOLE', 'MULLIKEN_CHARGES')
f=open( 'psi4out.xyz', 'w' )
f.write( "20  " )
f.write( str(ee) + "\n" )
f.write( MOL.save_string_xyz() )
f.close()
--------------------------------------------------------------------------

    Molecular point group: c1

    Geometry (in Angstrom), charge = 0, multiplicity = 1:

       Center              X                  Y                   Z               Mass
    ------------   -----------------  -----------------  -----------------  -----------------
           O         -2.519281443328    -0.965374791461    -0.070081899656    15.994914619560
           C         -1.925277443328     0.063029208539    -0.027450899656    12.000000000000
           C         -2.521712443328     1.416272208539    -0.305561899656    12.000000000000
           O         -0.636699443328     0.153362208539     0.269795100344    15.994914619560
           H         -1.999242443328     1.883908208539    -1.132174899656     1.007825032070
           H         -3.569403443328     1.308754208539    -0.543508899656     1.007825032070
           H         -2.401420443328     2.054687208539     0.562028100344     1.007825032070
           C          0.156766556672    -1.021141791461     0.124458100344    12.000000000000
           C          1.585502556672    -0.674038791461     0.499089100344    12.000000000000
           H          0.085711556672    -1.369016791461    -0.897803899656     1.007825032070
           H         -0.242583443328    -1.793511791461     0.767864100344     1.007825032070
           C          2.242252556672     0.345025208539    -0.433963899656    12.000000000000
           H          2.159069556672    -1.598645791461     0.491604100344     1.007825032070
           H          1.600644556672    -0.304634791461     1.521131100344     1.007825032070
           C          3.687611556672     0.650896208539    -0.043603899656    12.000000000000
           H          2.215454556672    -0.033521791461    -1.453808899656     1.007825032070
           H          1.662341556672     1.262106208539    -0.429002899656     1.007825032070
           H          4.130380556672     1.376002208539    -0.719036899656     1.007825032070
           H          4.301383556672    -0.245078791461    -0.071722899656     1.007825032070
           H          3.744141556672     1.058351208539     0.961813100344     1.007825032070

  Charge       = 0
  Multiplicity = 1
  Basis Set: 6-31G*
  Basis Set:

    Orbital Energies (a.u.)
    -----------------------

    Doubly Occupied:

       1A    -20.599552     2A    -20.545007     3A    -11.374781
       4A    -11.283451     5A    -11.233480     6A    -11.225941
       7A    -11.221187     8A    -11.213858     9A     -1.467347
      10A     -1.362476    11A     -1.086304    12A     -1.028095
      13A     -0.982051    14A     -0.880692    15A     -0.811738
      16A     -0.775895    17A     -0.691305    18A     -0.682948
      19A     -0.664065    20A     -0.632586    21A     -0.602326
      22A     -0.593193    23A     -0.571371    24A     -0.556862
      25A     -0.544773    26A     -0.524108    27A     -0.515215
      28A     -0.483374    29A     -0.475706    30A     -0.473406
      31A     -0.448579    32A     -0.437571

  @DF-RHF Final Energy:  -383.94322716681859

   => Energetics <=

    Nuclear Repulsion Energy =            385.2764303491348983
    One-Electron Energy =               -1286.4608300507775311
    Two-Electron Energy =                 517.2411725348256368
    DFT Exchange-Correlation Energy =       0.0000000000000000
    Empirical Dispersion Energy =           0.0000000000000000
    PCM Polarization Energy =               0.0000000000000000
    EFP Energy =                            0.0000000000000000
    Total Energy =                       -383.9432271668169960

  Mulliken Charges: (a.u.)
   Center  Symbol    Alpha    Beta     Spin     Total
       1     O     4.28105  4.28105  0.00000 -0.56210
       2     C     2.61889  2.61889  0.00000  0.76221
       3     C     3.28215  3.28215  0.00000 -0.56430
       4     O     4.30930  4.30930  0.00000 -0.61860
       5     H     0.40175  0.40175  0.00000  0.19649
       6     H     0.39719  0.39719  0.00000  0.20562
       7     H     0.40002  0.40002  0.00000  0.19995
       8     C     3.00351  3.00351  0.00000 -0.00701
       9     C     3.16490  3.16490  0.00000 -0.32979
      10     H     0.41504  0.41504  0.00000  0.16993
      11     H     0.40408  0.40408  0.00000  0.19185
      12     C     3.15513  3.15513  0.00000 -0.31026
      13     H     0.41823  0.41823  0.00000  0.16354
      14     H     0.41331  0.41331  0.00000  0.17338
      15     C     3.24038  3.24038  0.00000 -0.48076
      16     H     0.42368  0.42368  0.00000  0.15263
      17     H     0.41185  0.41185  0.00000  0.17630
      18     H     0.41766  0.41766  0.00000  0.16469
      19     H     0.42161  0.42161  0.00000  0.15678
      20     H     0.42027  0.42027  0.00000  0.15947

   Total alpha = 32.00000, Total beta = 32.00000, Total charge = -0.00000
