  ==> Input File <==

--------------------------------------------------------------------------
set {
	reference rhf
	basis 6-31G*
}

set_num_threads( 4 )
memory 2 gb

molecule MOL {
0 1

O	 -0.698508	 -0.484834	 2.215641
C	 -0.216929	 -0.805095	 1.176768
C	 1.003411	 -1.679431	 1.013751
O	 -0.698257	 -0.426125	 0.001050
C	 1.591275	 -2.138508	 2.342145
H	 1.729643	 -1.118768	 0.432812
H	 0.717400	 -2.524658	 0.394837
H	 1.890329	 -1.292642	 2.949140
H	 2.462782	 -2.761170	 2.170148
H	 0.869024	 -2.711551	 2.910738
C	 -1.853104	 0.406779	 0.000512
C	 -3.066105	 -0.499277	 -0.000959
H	 -1.828410	 1.043074	 -0.873618
H	 -1.829857	 1.042383	 0.875188
H	 -3.071820	 -1.133106	 -0.880383
H	 -3.972708	 0.097145	 -0.001528
H	 -3.073405	 -1.133813	 0.877999

	symmetry c1
}
set optking {
	frozen_dihedral = ("
		2 4 11 13
	")
}

ee = optimize('scf')
oeprop('DIPOLE', 'QUADRUPOLE', 'MULLIKEN_CHARGES')
f=open( 'psi4out.xyz', 'w' )
f.write( "17  " )
f.write( str(ee) + "\n" )
f.write( MOL.save_string_xyz() )
f.close()
--------------------------------------------------------------------------

    Molecular point group: c1
  Charge       = 0
  Multiplicity = 1
  Basis Set: 6-31G*
  Basis Set:
  @DF-RHF Final Energy:  -344.90966501562121
    Total Energy =                       -344.9096650156209876
    Molecular point group: c1
  Basis Set: 6-31G*
  Basis Set:
  Basis Set: 6-31G*
  Basis Set:
  @DF-RHF Final Energy:  -344.91074977695058
    Total Energy =                       -344.9107497769505244
  Basis Set: 6-31G*
  Basis Set:
  Basis Set: 6-31G*
  Basis Set:
  @DF-RHF Final Energy:  -344.90769792656999
    Total Energy =                       -344.9076979265699379
  Basis Set: 6-31G*
  Basis Set:
  Basis Set: 6-31G*
  Basis Set:
  @DF-RHF Final Energy:  -344.91111310783265
    Total Energy =                       -344.9111131078327048
  Basis Set: 6-31G*
  Basis Set:
  Basis Set: 6-31G*
  Basis Set:
  @DF-RHF Final Energy:  -344.91114636895128
    Total Energy =                       -344.9111463689511652
  Basis Set: 6-31G*
  Basis Set:
  Charge       = 0
  Multiplicity = 1
  Basis Set: 6-31G*
  Basis Set:

    Orbital Energies (a.u.)
    -----------------------

    Doubly Occupied:

       1A    -20.600442     2A    -20.544504     3A    -11.372615
       4A    -11.284234     5A    -11.237450     6A    -11.218807
       7A    -11.215770     8A     -1.466414     9A     -1.362211
      10A     -1.069018    11A     -1.028559    12A     -0.915159
      13A     -0.853277    14A     -0.761060    15A     -0.702693
      16A     -0.679840    17A     -0.659488    18A     -0.620841
      19A     -0.608632    20A     -0.568683    21A     -0.549056
      22A     -0.532539    23A     -0.520803    24A     -0.514714
      25A     -0.496523    26A     -0.491433    27A     -0.449275
      28A     -0.436573

  @DF-RHF Final Energy:  -344.91114715714241

   => Energetics <=

    Nuclear Repulsion Energy =            317.9512153188742332
    One-Electron Energy =               -1100.2034967417394000
    Two-Electron Energy =                 437.3411342657232694
    DFT Exchange-Correlation Energy =       0.0000000000000000
    Empirical Dispersion Energy =           0.0000000000000000
    PCM Polarization Energy =               0.0000000000000000
    EFP Energy =                            0.0000000000000000
    Total Energy =                       -344.9111471571418974
    Molecular point group: c1
  Basis Set: 6-31G*
  Basis Set:

  -Total Gradient:
     Atom            X                  Y                   Z
    ------   -----------------  -----------------  -----------------
       1       -0.000029125416     0.000009529412    -0.000039987234
       2        0.000505505538     0.000640198707     0.000037273183
       3        0.000001744671     0.000004639625     0.000016065594
       4       -0.000596594106    -0.000913067149     0.000040441812
       5        0.000027777205    -0.000007881843    -0.000002600094
       6        0.000004922060    -0.000008776551     0.000003215090
       7        0.000000195291     0.000002786398     0.000001389139
       8        0.000000248737    -0.000003957733    -0.000000257523
       9        0.000007099454    -0.000002097265     0.000009859716
      10       -0.000002502678     0.000003142294    -0.000006975516
      11       -0.000373274546    -0.000401416211    -0.000524558503
      12        0.000059406591    -0.000000195487     0.000001942660
      13        0.000431162187     0.000643996063     0.000492649968
      14       -0.000035938528     0.000030705832    -0.000013683068
      15       -0.000017934232    -0.000012817107    -0.000003531553
      16        0.000009878313     0.000002126001    -0.000003493790
      17        0.000007429459     0.000013085012    -0.000007749880

  **** Optimization is complete! (in 6 steps) ****
    Final optimized geometry and variables:
    Molecular point group: c1

    Geometry (in Angstrom), charge = 0, multiplicity = 1:

    O           -0.118048457214     0.272162890974     1.268516285458
    C            0.366815837063    -0.017159204700     0.221876629268
    C            1.609077840858    -0.856851178968     0.042427996737
    O           -0.124089486713     0.363723034850    -0.950121697308
    C            2.210332997486    -1.325780354117     1.361385568353
    H            2.319778404044    -0.266984920843    -0.528618778120
    H            1.343786246054    -1.697115681269    -0.592188471855
    H            2.487752730327    -0.484238285053     1.984379523011
    H            3.097736199910    -1.921824002751     1.176786388982
    H            1.504157293214    -1.928633485431     1.919303816244
    C           -1.286530235211     1.188736661601    -0.967804454364
    C           -2.550524579705     0.350771665818    -0.996167333392
    H           -1.188595066030     1.784911727949    -1.863894431948
    H           -1.270930529010     1.843474920352    -0.110283796551
    H           -2.544065826495    -0.324085705665    -1.845086664268
    H           -3.419920183086     0.995780185132    -1.078415745511
    H           -2.644323907678    -0.231386303207    -0.087274027735

  Mulliken Charges: (a.u.)
   Center  Symbol    Alpha    Beta     Spin     Total
       1     O     4.28750  4.28750  0.00000 -0.57501
       2     C     2.60564  2.60564  0.00000  0.78873
       3     C     3.20509  3.20509  0.00000 -0.41017
       4     O     4.31393  4.31393  0.00000 -0.62786
       5     C     3.23878  3.23878  0.00000 -0.47757
       6     H     0.40053  0.40053  0.00000  0.19894
       7     H     0.40065  0.40065  0.00000  0.19869
       8     H     0.40994  0.40994  0.00000  0.18013
       9     H     0.41821  0.41821  0.00000  0.16357
      10     H     0.41023  0.41023  0.00000  0.17953
      11     C     3.00814  3.00814  0.00000 -0.01628
      12     C     3.25285  3.25285  0.00000 -0.50570
      13     H     0.41052  0.41052  0.00000  0.17895
      14     H     0.40129  0.40129  0.00000  0.19743
      15     H     0.41397  0.41397  0.00000  0.17206
      16     H     0.41773  0.41773  0.00000  0.16455
      17     H     0.40499  0.40499  0.00000  0.19001

   Total alpha = 28.00000, Total beta = 28.00000, Total charge = -0.00000
