                              Psi4 1.0.54 Driver

  ==> Input File <==

--------------------------------------------------------------------------
set {
	reference rhf
	basis cc-pvtz
}

set_num_threads( 4 )
memory 2 gb

molecule MOL {
0 1

H	 -2.516205	 1.967581	 1.518807
O	 -1.833716	 1.381876	 1.247966
C	 -2.302264	 0.528872	 0.237390
C	 -1.175688	 -0.398187	 -0.171891
H	 -3.150150	 -0.052844	 0.593014
H	 -2.638166	 1.105418	 -0.622025
C	 0.196029	 0.106276	 0.266738
H	 -1.201873	 -0.515469	 -1.250677
H	 -1.365975	 -1.378728	 0.252664
C	 1.330220	 -0.826136	 -0.155230
H	 0.359542	 1.097229	 -0.145561
H	 0.212134	 0.218135	 1.348778
C	 2.719700	 -0.407669	 0.328325
H	 1.339388	 -0.911200	 -1.239363
H	 1.119001	 -1.821953	 0.224128
C	 3.241564	 0.893452	 -0.276737
H	 3.418299	 -1.204729	 0.093035
H	 2.711776	 -0.323368	 1.411960
H	 3.254204	 0.841071	 -1.360784
H	 2.634460	 1.745075	 0.005842
H	 4.254264	 1.092401	 0.054971

	symmetry c1
}
set optking {
	frozen_dihedral = ("
		2 3 4 8
	")
}

ee,wfn = optimize('scf', return_wfn=True)
oeprop( wfn, 'DIPOLE', 'QUADRUPOLE', 'MULLIKEN_CHARGES')
f=open( 'psi4out.xyz', 'w' )
f.write( "21  " )
f.write( str(ee) + "\n" )
f.write( MOL.save_string_xyz() )
f.close()
--------------------------------------------------------------------------

    Molecular point group: c1
  Charge       = 0
  Multiplicity = 1
  Basis Set: CC-PVTZ
  Basis Set:
  @DF-RHF Final Energy:  -310.32422770515609
    Total Energy =                       -310.3242277051561473
    Molecular point group: c1
  Basis Set: CC-PVTZ
  Basis Set:
  Basis Set: CC-PVTZ
  Basis Set:
  @DF-RHF Final Energy:  -310.32477083782413
    Total Energy =                       -310.3247708378243601
  Basis Set: CC-PVTZ
  Basis Set:
  Basis Set: CC-PVTZ
  Basis Set:
  @DF-RHF Final Energy:  -310.32600222481915
    Total Energy =                       -310.3260022248189216
  Basis Set: CC-PVTZ
  Basis Set:
  Basis Set: CC-PVTZ
  Basis Set:
  @DF-RHF Final Energy:  -310.32605846411980
    Total Energy =                       -310.3260584641199671
  Basis Set: CC-PVTZ
  Basis Set:
  Basis Set: CC-PVTZ
  Basis Set:
  @DF-RHF Final Energy:  -310.32606164437919
    Total Energy =                       -310.3260616443791378
  Basis Set: CC-PVTZ
  Basis Set:
  Basis Set: CC-PVTZ
  Basis Set:
  @DF-RHF Final Energy:  -310.32606487817259
    Total Energy =                       -310.3260648781725877
  Basis Set: CC-PVTZ
  Basis Set:
  Charge       = 0
  Multiplicity = 1
  Basis Set: CC-PVTZ
  Basis Set:

    Orbital Energies (a.u.)
    -----------------------

    Doubly Occupied:

       1A    -20.545930     2A    -11.266679     3A    -11.211081
       4A    -11.207501     5A    -11.205053     6A    -11.201337
       7A    -11.200639     8A     -1.364024     9A     -1.079640
      10A     -1.027423    11A     -0.952188    12A     -0.876127
      13A     -0.800361    14A     -0.772203    15A     -0.698886
      16A     -0.657677    17A     -0.617148    18A     -0.604279
      19A     -0.585775    20A     -0.565745    21A     -0.532501
      22A     -0.523518    23A     -0.498108    24A     -0.493059
      25A     -0.480613    26A     -0.456552    27A     -0.449982
      28A     -0.435934    29A     -0.427481

  @DF-RHF Final Energy:  -310.32606493532973

   => Energetics <=

    Nuclear Repulsion Energy =            318.5744709347397361
    One-Electron Energy =               -1052.3261857743564178
    Two-Electron Energy =                 423.4256499042866153
    DFT Exchange-Correlation Energy =       0.0000000000000000
    Empirical Dispersion Energy =           0.0000000000000000
    PCM Polarization Energy =               0.0000000000000000
    EFP Energy =                            0.0000000000000000
    Total Energy =                       -310.3260649353300096
    Molecular point group: c1
  Basis Set: CC-PVTZ
  Basis Set:

  -Total Gradient:
     Atom            X                  Y                   Z
    ------   -----------------  -----------------  -----------------
       1        0.000001518430    -0.000006113188    -0.000014167502
       2        0.001406368316     0.002935549477    -0.002766226886
       3       -0.001111103352    -0.002964420643     0.003636584534
       4       -0.003682797141    -0.004198081321    -0.000632560220
       5        0.000006242897    -0.000013979310    -0.000009287877
       6        0.000001680718    -0.000010919216    -0.000008803093
       7        0.000012109672     0.000001714585     0.000018527772
       8        0.003372972971     0.004248851029    -0.000229691650
       9       -0.000002378204     0.000006047383     0.000002620532
      10       -0.000000412745    -0.000006099365     0.000011532078
      11        0.000012853696     0.000013374104    -0.000002987207
      12        0.000002534659     0.000000341517     0.000004302878
      13        0.000004270518    -0.000010215337    -0.000019639918
      14        0.000005569696    -0.000008948877    -0.000000390291
      15       -0.000009122174     0.000002989278     0.000007643241
      16       -0.000007504385     0.000001630716     0.000004301833
      17        0.000000226652     0.000001745905    -0.000007336362
      18        0.000002057177    -0.000006622501    -0.000001184509
      19        0.000003719208    -0.000003750883     0.000003626113
      20       -0.000018023470     0.000010551005    -0.000001614011
      21       -0.000000783147     0.000006355642     0.000004750548

  **** Optimization is complete! (in 7 steps) ****
    Final optimized geometry and variables:
    Molecular point group: c1

    Geometry (in Angstrom), charge = 0, multiplicity = 1:

    H           -2.896719019974     1.717661095744     1.388539573774
    O           -2.176297317781     1.177077374804     1.122729552296
    C           -2.572732130247     0.353566411339     0.055998923188
    C           -1.430266185440    -0.581953782213    -0.366420501814
    H           -3.445194951686    -0.231507531817     0.331263730397
    H           -2.855929784581     0.976747095655    -0.788428097727
    C           -0.034586619250    -0.118647814420     0.056414618737
    H           -1.432367436892    -0.640526359756    -1.450193621944
    H           -1.604591717309    -1.581095991852     0.016921337996
    C            1.056353764539    -1.048049720989    -0.472476641636
    H            0.127923554669     0.891592019097    -0.300990830841
    H            0.022390073838    -0.069956386029     1.136840411450
    C            2.472013783816    -0.697486433184    -0.010800670611
    H            1.029530541273    -1.059083978041    -1.560266868788
    H            0.834508545138    -2.063857148087    -0.155328519421
    C            3.002185374538     0.634370850725    -0.536311488087
    H            3.143624560697    -1.489104359986    -0.329468311916
    H            2.502764516657    -0.693266441952     1.075468373339
    H            2.976444451757     0.662748823724    -1.621191254661
    H            2.423588096000     1.473355941257    -0.169646218324
    H            4.030103557127     0.787764505829    -0.227565913779

  Mulliken Charges: (a.u.)
   Center  Symbol    Alpha    Beta     Spin     Total
       1     H     0.39930  0.39930  0.00000  0.20141
       2     O     4.19042  4.19042  0.00000 -0.38083
       3     C     2.96849  2.96849  0.00000  0.06303
       4     C     3.10279  3.10279  0.00000 -0.20557
       5     H     0.46899  0.46899  0.00000  0.06201
       6     H     0.47313  0.47313  0.00000  0.05374
       7     C     3.08600  3.08600  0.00000 -0.17200
       8     H     0.45550  0.45550  0.00000  0.08900
       9     H     0.45252  0.45252  0.00000  0.09496
      10     C     3.09588  3.09588  0.00000 -0.19176
      11     H     0.45083  0.45083  0.00000  0.09834
      12     H     0.44534  0.44534  0.00000  0.10932
      13     C     3.08928  3.08928  0.00000 -0.17857
      14     H     0.45662  0.45662  0.00000  0.08677
      15     H     0.45166  0.45166  0.00000  0.09669
      16     C     3.15277  3.15277  0.00000 -0.30555
      17     H     0.45002  0.45002  0.00000  0.09995
      18     H     0.45476  0.45476  0.00000  0.09047
      19     H     0.45627  0.45627  0.00000  0.08747
      20     H     0.45197  0.45197  0.00000  0.09606
      21     H     0.44748  0.44748  0.00000  0.10504

   Total alpha = 29.00000, Total beta = 29.00000, Total charge = -0.00000

*** Psi4 exiting successfully. Buy a developer a beer!
