                              Psi4 1.0.54 Driver

  ==> Input File <==

--------------------------------------------------------------------------
set {
	reference rhf
	basis cc-pvtz
}

set_num_threads( 4 )
memory 2 gb

molecule MOL {
0 1

H	 -2.644180	 -0.653737	 1.272255
C	 -2.092774	 -0.380414	 0.391915
O	 -0.808934	 -0.154049	 0.752536
F	 -2.163230	 -1.351640	 -0.507133
F	 -2.627232	 0.691260	 -0.169301
C	 0.085006	 0.250800	 -0.215074
C	 1.370439	 -0.548013	 -0.012993
Cl	 0.421658	 1.987697	 -0.091007
H	 -0.272219	 0.063284	 -1.212508
F	 2.402994	 0.253781	 0.050076
F	 1.541872	 -1.347841	 -1.038762
F	 1.336914	 -1.273757	 1.070715

	symmetry c1
}
set optking {
	frozen_dihedral = ("
		10 7 6 9
	")
}

ee,wfn = optimize('scf', return_wfn=True)
oeprop( wfn, 'DIPOLE', 'QUADRUPOLE', 'MULLIKEN_CHARGES')
f=open( 'psi4out.xyz', 'w' )
f.write( "12  " )
f.write( str(ee) + "\n" )
f.write( MOL.save_string_xyz() )
f.close()
--------------------------------------------------------------------------

    Molecular point group: c1
  Charge       = 0
  Multiplicity = 1
  Basis Set: CC-PVTZ
  Basis Set:
  @DF-RHF Final Energy: -1146.60896518887421
    Total Energy =                      -1146.6089651888742083
    Molecular point group: c1
  Basis Set: CC-PVTZ
  Basis Set:
  Basis Set: CC-PVTZ
  Basis Set:
  @DF-RHF Final Energy: -1146.60847092311133
    Total Energy =                      -1146.6084709231113266
  Basis Set: CC-PVTZ
  Basis Set:
  Basis Set: CC-PVTZ
  Basis Set:
  @DF-RHF Final Energy: -1146.61112997296959
    Total Energy =                      -1146.6111299729686834
  Basis Set: CC-PVTZ
  Basis Set:
  Basis Set: CC-PVTZ
  Basis Set:
  @DF-RHF Final Energy: -1146.61130150236772
    Total Energy =                      -1146.6113015023693151
  Basis Set: CC-PVTZ
  Basis Set:
  Basis Set: CC-PVTZ
  Basis Set:
  @DF-RHF Final Energy: -1146.61131379006156
    Total Energy =                      -1146.6113137900608763
  Basis Set: CC-PVTZ
  Basis Set:
  Basis Set: CC-PVTZ
  Basis Set:
  @DF-RHF Final Energy: -1146.61131606473805
    Total Energy =                      -1146.6113160647378209
  Basis Set: CC-PVTZ
  Basis Set:
  Charge       = 0
  Multiplicity = 1
  Basis Set: CC-PVTZ
  Basis Set:

    Orbital Energies (a.u.)
    -----------------------

    Doubly Occupied:

       1A   -104.855762     2A    -26.354275     3A    -26.353494
       4A    -26.351842     5A    -26.342988     6A    -26.342713
       7A    -20.638908     8A    -11.522711     9A    -11.483215
      10A    -11.402201    11A    -10.581378    12A     -8.048162
      13A     -8.046180    14A     -8.046103    15A     -1.768534
      16A     -1.724191    17A     -1.662057    18A     -1.660814
      19A     -1.644338    20A     -1.485757    21A     -1.175179
      22A     -1.049333    23A     -0.990459    24A     -0.923774
      25A     -0.862260    26A     -0.857685    27A     -0.852321
      28A     -0.830675    29A     -0.818739    30A     -0.795854
      31A     -0.732897    32A     -0.730479    33A     -0.711196
      34A     -0.708103    35A     -0.684732    36A     -0.680104
      37A     -0.665339    38A     -0.662597    39A     -0.650358
      40A     -0.634396    41A     -0.597955    42A     -0.579568
      43A     -0.523791    44A     -0.476630    45A     -0.469072

  @DF-RHF Final Energy: -1146.61131662590628

   => Energetics <=

    Nuclear Repulsion Energy =            735.5481998390262106
    One-Electron Energy =               -3054.3607921742600411
    Two-Electron Energy =                1172.2012757093284563
    DFT Exchange-Correlation Energy =       0.0000000000000000
    Empirical Dispersion Energy =           0.0000000000000000
    PCM Polarization Energy =               0.0000000000000000
    EFP Energy =                            0.0000000000000000
    Total Energy =                      -1146.6113166259051468
    Molecular point group: c1
  Basis Set: CC-PVTZ
  Basis Set:

  -Total Gradient:
     Atom            X                  Y                   Z
    ------   -----------------  -----------------  -----------------
       1        0.000004210265     0.000006368561     0.000007840875
       2       -0.000082048097     0.000024108497     0.000021723829
       3        0.000040826404    -0.000045820141    -0.000038594427
       4        0.000021304832     0.000020036837    -0.000008819740
       5        0.000081137499    -0.000018199220     0.000007888367
       6        0.002053402052     0.002796195839    -0.000287292091
       7        0.000109931895    -0.000727346622    -0.003238854110
       8       -0.000037351045    -0.000010698395    -0.000013903397
       9       -0.001796422738    -0.002269750867     0.000957727577
      10       -0.000341463150     0.000195074623     0.002594327907
      11       -0.000031871928     0.000012834384    -0.000043373335
      12       -0.000021655995     0.000017196573     0.000041328538

  **** Optimization is complete! (in 7 steps) ****
    Final optimized geometry and variables:
    Molecular point group: c1

    Geometry (in Angstrom), charge = 0, multiplicity = 1:

    H           -2.743861950746    -0.517047158659     1.135880439943
    C           -2.124781708233    -0.277933197345     0.291249999067
    O           -0.862362438999    -0.088013285127     0.734248692416
    F           -2.165922310978    -1.264888217149    -0.594325081360
    F           -2.586273971483     0.798002058876    -0.324488175311
    C            0.104294760854     0.280001660418    -0.179633007554
    C            1.355350403282    -0.621284082145     0.033618534155
    CL           0.481483963581     2.002525654847    -0.016810664573
    H           -0.236229904613     0.117330252096    -1.185583036030
    F            2.467379403513     0.052856094109     0.128929169744
    F            1.461312852558    -1.433224244828    -0.995891394183
    F            1.241513971588    -1.352216024674     1.109448627330

  Mulliken Charges: (a.u.)
   Center  Symbol    Alpha    Beta     Spin     Total
       1     H     0.45187  0.45187  0.00000  0.09626
       2     C     2.73896  2.73896  0.00000  0.52208
       3     O     4.15014  4.15014  0.00000 -0.30029
       4     F     4.61895  4.61895  0.00000 -0.23791
       5     F     4.61538  4.61538  0.00000 -0.23076
       6     C     2.96307  2.96307  0.00000  0.07386
       7     C     2.66197  2.66197  0.00000  0.67605
       8    CL     8.56777  8.56777  0.00000 -0.13554
       9     H     0.43177  0.43177  0.00000  0.13646
      10     F     4.59580  4.59580  0.00000 -0.19159
      11     F     4.60643  4.60643  0.00000 -0.21285
      12     F     4.59789  4.59789  0.00000 -0.19578

   Total alpha = 45.00000, Total beta = 45.00000, Total charge =  0.00000

*** Psi4 exiting successfully. Buy a developer a beer!
