  ==> Input File <==

--------------------------------------------------------------------------
set {
	reference rhf
	basis 6-31G*
}

set_num_threads( 4 )
memory 2 gb

molecule MOL {
0 1

H	 -2.469670	 -0.126946	 0.657605
N	 -1.852125	 0.165761	 -0.074816
C	 -0.563778	 -0.502042	 0.037919
H	 -1.742869	 1.157865	 0.017642
C	 0.575259	 0.508231	 -0.048326
H	 -0.482092	 -1.204004	 -0.786564
H	 -0.460411	 -1.085169	 0.956626
C	 1.954651	 -0.143624	 0.035137
H	 0.475158	 1.060484	 -0.977307
H	 0.469181	 1.234488	 0.755973
H	 2.103292	 -0.853109	 -0.774172
H	 2.742821	 0.599562	 -0.030094
H	 2.083613	 -0.679371	 0.971560

	symmetry c1
}
set optking {
	frozen_dihedral = ("
		1 2 3 6
	")
}

ee = optimize('scf')
oeprop('DIPOLE', 'QUADRUPOLE', 'MULLIKEN_CHARGES')
f=open( 'psi4out.xyz', 'w' )
f.write( "13  " )
f.write( str(ee) + "\n" )
f.write( MOL.save_string_xyz() )
f.close()
--------------------------------------------------------------------------

    Molecular point group: c1
  Charge       = 0
  Multiplicity = 1
  Basis Set: 6-31G*
  Basis Set:
  @DF-RHF Final Energy:  -173.27766402896933
    Total Energy =                       -173.2776640289692409
    Molecular point group: c1
  Basis Set: 6-31G*
  Basis Set:
  Basis Set: 6-31G*
  Basis Set:
  @DF-RHF Final Energy:  -173.27809593899417
    Total Energy =                       -173.2780959389941700
  Basis Set: 6-31G*
  Basis Set:
  Basis Set: 6-31G*
  Basis Set:
  @DF-RHF Final Energy:  -173.27818753748986
    Total Energy =                       -173.2781875374899130
  Basis Set: 6-31G*
  Basis Set:
  Basis Set: 6-31G*
  Basis Set:
  @DF-RHF Final Energy:  -173.27818935486189
    Total Energy =                       -173.2781893548618086
  Basis Set: 6-31G*
  Basis Set:
  Basis Set: 6-31G*
  Basis Set:
  @DF-RHF Final Energy:  -173.27819077541261
    Total Energy =                       -173.2781907754125541
  Basis Set: 6-31G*
  Basis Set:
  Charge       = 0
  Multiplicity = 1
  Basis Set: 6-31G*
  Basis Set:

    Orbital Energies (a.u.)
    -----------------------

    Doubly Occupied:

       1A    -15.529703     2A    -11.239848     3A    -11.219249
       4A    -11.212885     5A     -1.173996     6A     -1.038411
       7A     -0.900166     8A     -0.807319     9A     -0.657411
      10A     -0.630646    11A     -0.604420    12A     -0.554407
      13A     -0.546892    14A     -0.497874    15A     -0.482093
      16A     -0.470909    17A     -0.376473

  @DF-RHF Final Energy:  -173.27819093012232

   => Energetics <=

    Nuclear Repulsion Energy =            131.7420656443281928
    One-Electron Energy =                -494.1551110058012455
    Two-Electron Energy =                 189.1348544313506750
    DFT Exchange-Correlation Energy =       0.0000000000000000
    Empirical Dispersion Energy =           0.0000000000000000
    PCM Polarization Energy =               0.0000000000000000
    EFP Energy =                            0.0000000000000000
    Total Energy =                       -173.2781909301223777
    Molecular point group: c1
  Basis Set: 6-31G*
  Basis Set:

  -Total Gradient:
     Atom            X                  Y                   Z
    ------   -----------------  -----------------  -----------------
       1        0.000480305885     0.001181297392     0.000870924504
       2       -0.000487945444    -0.001231143188    -0.001290983978
       3       -0.000562337463    -0.000931495156     0.001228339921
       4        0.000006709613    -0.000002910277     0.000002993051
       5       -0.000021343723    -0.000004756602    -0.000016778145
       6        0.000567745859     0.000993581772    -0.000808449018
       7        0.000002548065    -0.000003243171     0.000005596313
       8        0.000007631642     0.000003550100     0.000007908197
       9       -0.000000312363    -0.000003096336     0.000007337891
      10        0.000001407761    -0.000001310255    -0.000004737790
      11       -0.000001019641     0.000002342444    -0.000002483319
      12        0.000008308711    -0.000001910546     0.000003501104
      13       -0.000001698903    -0.000000906176    -0.000003168730

  **** Optimization is complete! (in 6 steps) ****
    Final optimized geometry and variables:
    Molecular point group: c1

    Geometry (in Angstrom), charge = 0, multiplicity = 1:

    H           -2.500353513757    -0.141311057990     0.639727557995
    N           -1.875791276331     0.137531779526    -0.089620349705
    C           -0.567907688880    -0.502574848196     0.050324374610
    H           -1.795454962984     1.133497531271    -0.031230318122
    C            0.579170888794     0.502336459304    -0.028534785774
    H           -0.443700375063    -1.230139965069    -0.747319799621
    H           -0.496296283749    -1.049219338854     0.988785370635
    C            1.954586286698    -0.160800284266     0.017418050044
    H            0.480586935555     1.073027621669    -0.949444309538
    H            0.488222361851     1.213311462559     0.790624244697
    H            2.084596492301    -0.850936027325    -0.810903050398
    H            2.747085504162     0.578240087171    -0.040634278938
    H            2.091181810285    -0.719925138455     0.938772474032

  Mulliken Charges: (a.u.)
   Center  Symbol    Alpha    Beta     Spin     Total
       1     H     0.33215  0.33215  0.00000  0.33570
       2     N     3.93056  3.93056  0.00000 -0.86112
       3     C     3.04520  3.04520  0.00000 -0.09041
       4     H     0.33226  0.33226  0.00000  0.33549
       5     C     3.16783  3.16783  0.00000 -0.33566
       6     H     0.42067  0.42067  0.00000  0.15866
       7     H     0.42994  0.42994  0.00000  0.14012
       8     C     3.24245  3.24245  0.00000 -0.48491
       9     H     0.41723  0.41723  0.00000  0.16554
      10     H     0.42465  0.42465  0.00000  0.15069
      11     H     0.41866  0.41866  0.00000  0.16267
      12     H     0.41735  0.41735  0.00000  0.16529
      13     H     0.42104  0.42104  0.00000  0.15792

   Total alpha = 17.00000, Total beta = 17.00000, Total charge = -0.00000
