  ==> Input File <==

--------------------------------------------------------------------------
set {
	reference rhf
	basis 6-31G*
}

set_num_threads( 4 )
memory 2 gb

molecule MOL {
0 1

H	 2.176868	 -0.646004	 -0.217325
O	 1.337496	 -0.537251	 0.205931
C	 0.702312	 0.627605	 -0.264544
C	 -0.714990	 0.596302	 0.266387
H	 0.682322	 0.642550	 -1.350929
H	 1.215941	 1.520383	 0.085680
O	 -1.405996	 -0.526611	 -0.195820
H	 -1.257453	 1.468809	 -0.075599
H	 -0.688972	 0.618407	 1.353696
H	 -1.291695	 -0.568947	 -1.136647

	symmetry c1
}
set optking {
	frozen_dihedral = ("
		10 7 4 3
	")
}

ee = optimize('scf')
oeprop('DIPOLE', 'QUADRUPOLE', 'MULLIKEN_CHARGES')
f=open( 'psi4out.xyz', 'w' )
f.write( "10  " )
f.write( str(ee) + "\n" )
f.write( MOL.save_string_xyz() )
f.close()
--------------------------------------------------------------------------

    Molecular point group: c1
  Charge       = 0
  Multiplicity = 1
  Basis Set: 6-31G*
  Basis Set:
  @DF-RHF Final Energy:  -228.91639208678916
    Total Energy =                       -228.9163920867891306
    Molecular point group: c1
  Basis Set: 6-31G*
  Basis Set:
  Basis Set: 6-31G*
  Basis Set:
  @DF-RHF Final Energy:  -228.91852650311247
    Total Energy =                       -228.9185265031125311
  Basis Set: 6-31G*
  Basis Set:
  Basis Set: 6-31G*
  Basis Set:
  @DF-RHF Final Energy:  -228.91879188017614
    Total Energy =                       -228.9187918801761441
  Basis Set: 6-31G*
  Basis Set:
  Basis Set: 6-31G*
  Basis Set:
  @DF-RHF Final Energy:  -228.91881210947511
    Total Energy =                       -228.9188121094750841
  Basis Set: 6-31G*
  Basis Set:
  Basis Set: 6-31G*
  Basis Set:
  @DF-RHF Final Energy:  -228.91881362446978
    Total Energy =                       -228.9188136244697489
  Basis Set: 6-31G*
  Basis Set:
  Charge       = 0
  Multiplicity = 1
  Basis Set: 6-31G*
  Basis Set:

    Orbital Energies (a.u.)
    -----------------------

    Doubly Occupied:

       1A    -20.560507     2A    -20.552315     3A    -11.278789
       4A    -11.270234     5A     -1.376524     6A     -1.353521
       7A     -1.003439     8A     -0.846996     9A     -0.720073
      10A     -0.674426    11A     -0.658785    12A     -0.597906
      13A     -0.571039    14A     -0.544049    15A     -0.475115
      16A     -0.447481    17A     -0.437340

  @DF-RHF Final Energy:  -228.91881370497407

   => Energetics <=

    Nuclear Repulsion Energy =            133.4880439237202268
    One-Electron Energy =                -578.0766392860514316
    Two-Electron Energy =                 215.6697816573571629
    DFT Exchange-Correlation Energy =       0.0000000000000000
    Empirical Dispersion Energy =           0.0000000000000000
    PCM Polarization Energy =               0.0000000000000000
    EFP Energy =                            0.0000000000000000
    Total Energy =                       -228.9188137049740419
    Molecular point group: c1
  Basis Set: 6-31G*
  Basis Set:

  -Total Gradient:
     Atom            X                  Y                   Z
    ------   -----------------  -----------------  -----------------
       1       -0.000003888895     0.000000320443     0.000002848851
       2        0.000002176093     0.000007023579    -0.000004576429
       3       -0.000062148699     0.000122970419    -0.000229897655
       4        0.000197618328    -0.000276292120     0.000353098504
       5        0.000009278327     0.000007639364    -0.000018048398
       6       -0.000008435617    -0.000004411295    -0.000004601749
       7       -0.000455578466     0.000426359566    -0.000151278520
       8       -0.000017840061    -0.000004243190     0.000001100916
       9       -0.000015888756    -0.000006990899     0.000003392904
      10        0.000354707739    -0.000272375865     0.000047961577

  **** Optimization is complete! (in 6 steps) ****
    Final optimized geometry and variables:
    Molecular point group: c1

    Geometry (in Angstrom), charge = 0, multiplicity = 1:

    H            2.274989836655    -0.561110572813    -0.106503676528
    O            1.387682478699    -0.550707606949     0.222917037954
    C            0.720224865993     0.582896451742    -0.251147355418
    C           -0.701891161343     0.578918301462     0.272623830429
    H            0.707744042333     0.599731545163    -1.342628074730
    H            1.209216602029     1.497740228454     0.081068421374
    O           -1.461109846784    -0.508891382175    -0.167871451804
    H           -1.173279568402     1.521502645625    -0.005301637953
    H           -0.684097095493     0.519411070887     1.352216267333
    H           -1.387524481100    -0.594199256468    -1.108181405981

  Mulliken Charges: (a.u.)
   Center  Symbol    Alpha    Beta     Spin     Total
       1     H     0.27950  0.27950  0.00000  0.44101
       2     O     4.36142  4.36142  0.00000 -0.72283
       3     C     3.01372  3.01372  0.00000 -0.02744
       4     C     2.99298  2.99298  0.00000  0.01405
       5     H     0.43672  0.43672  0.00000  0.12656
       6     H     0.42892  0.42892  0.00000  0.14216
       7     O     4.36372  4.36372  0.00000 -0.72743
       8     H     0.43175  0.43175  0.00000  0.13650
       9     H     0.40812  0.40812  0.00000  0.18377
      10     H     0.28316  0.28316  0.00000  0.43367

   Total alpha = 17.00000, Total beta = 17.00000, Total charge =  0.00000
