  ==> Input File <==

--------------------------------------------------------------------------
set {
	reference rhf
	basis 6-31G*
}

set_num_threads( 4 )
memory 2 gb

molecule MOL {
0 1

H	 2.591676	 2.013956	 0.335017
O	 3.341076	 1.666752	 -0.126416
C	 3.569581	 0.339145	 0.272707
C	 2.539767	 -0.640285	 -0.279495
H	 4.553106	 0.084646	 -0.100901
H	 3.608576	 0.269204	 1.359154
C	 2.889293	 -1.197377	 -1.661648
H	 2.429238	 -1.459056	 0.426738
H	 1.578831	 -0.130704	 -0.327396
C	 1.810524	 -2.134809	 -2.211462
H	 3.835762	 -1.727696	 -1.603988
H	 3.034182	 -0.371881	 -2.358718
C	 2.070793	 -2.654002	 -3.630278
H	 1.691815	 -2.979538	 -1.535305
H	 0.858853	 -1.607548	 -2.207042
C	 3.279045	 -3.584933	 -3.764336
H	 1.183856	 -3.186491	 -3.967346
H	 2.190062	 -1.808524	 -4.306132
C	 3.435219	 -4.159727	 -5.173825
H	 3.182395	 -4.403378	 -3.052355
H	 4.190750	 -3.055578	 -3.498106
C	 4.644259	 -5.084274	 -5.312026
H	 2.532496	 -4.704118	 -5.442557
H	 3.522179	 -3.343250	 -5.887750
H	 4.571142	 -5.929403	 -4.633327
H	 4.726515	 -5.476782	 -6.320890
H	 5.567932	 -4.559013	 -5.085549

	symmetry c1
}
set optking {
	frozen_dihedral = ("
		8 4 3 2
	")
}

ee = optimize('scf')
oeprop('DIPOLE', 'QUADRUPOLE', 'MULLIKEN_CHARGES')
f=open( 'psi4out.xyz', 'w' )
f.write( "27  " )
f.write( str(ee) + "\n" )
f.write( MOL.save_string_xyz() )
f.close()
--------------------------------------------------------------------------

    Molecular point group: c1
  Charge       = 0
  Multiplicity = 1
  Basis Set: 6-31G*
  Basis Set:
  @DF-RHF Final Energy:  -388.27898173688681
    Total Energy =                       -388.2789817368870899
    Molecular point group: c1
  Basis Set: 6-31G*
  Basis Set:
  Basis Set: 6-31G*
  Basis Set:
  @DF-RHF Final Energy:  -388.27943219326477
    Total Energy =                       -388.2794321932642561
  Basis Set: 6-31G*
  Basis Set:
  Basis Set: 6-31G*
  Basis Set:
  @DF-RHF Final Energy:  -388.27947821601282
    Total Energy =                       -388.2794782160131035
  Basis Set: 6-31G*
  Basis Set:
  Basis Set: 6-31G*
  Basis Set:
  @DF-RHF Final Energy:  -388.27947468726006
    Total Energy =                       -388.2794746872594942
  Basis Set: 6-31G*
  Basis Set:
  Basis Set: 6-31G*
  Basis Set:
  @DF-RHF Final Energy:  -388.27948404392095
    Total Energy =                       -388.2794840439207746
  Basis Set: 6-31G*
  Basis Set:
  Basis Set: 6-31G*
  Basis Set:
  @DF-RHF Final Energy:  -388.27947913809123
    Total Energy =                       -388.2794791380912329
  Basis Set: 6-31G*
  Basis Set:
  Basis Set: 6-31G*
  Basis Set:
  @DF-RHF Final Energy:  -388.27948452818248
    Total Energy =                       -388.2794845281824792
  Basis Set: 6-31G*
  Basis Set:
  Charge       = 0
  Multiplicity = 1
  Basis Set: 6-31G*
  Basis Set:

    Orbital Energies (a.u.)
    -----------------------

    Doubly Occupied:

       1A    -20.551878     2A    -11.267380     3A    -11.217247
       4A    -11.214026     5A    -11.213560     6A    -11.213303
       7A    -11.212456     8A    -11.211306     9A    -11.207321
      10A     -1.358859    11A     -1.092111    12A     -1.059304
      13A     -1.009347    14A     -0.944370    15A     -0.883291
      16A     -0.822827    17A     -0.802855    18A     -0.776033
      19A     -0.681346    20A     -0.649757    21A     -0.636519
      22A     -0.610826    23A     -0.607662    24A     -0.582989
      25A     -0.573543    26A     -0.556415    27A     -0.536298
      28A     -0.519943    29A     -0.511774    30A     -0.489167
      31A     -0.480108    32A     -0.474892    33A     -0.464713
      34A     -0.457795    35A     -0.454313    36A     -0.440973
      37A     -0.417945

  @DF-RHF Final Energy:  -388.27948449380011

   => Energetics <=

    Nuclear Repulsion Energy =            456.4368992144224535
    One-Electron Energy =               -1431.0238700672946379
    Two-Electron Energy =                 586.3074863590718451
    DFT Exchange-Correlation Energy =       0.0000000000000000
    Empirical Dispersion Energy =           0.0000000000000000
    PCM Polarization Energy =               0.0000000000000000
    EFP Energy =                            0.0000000000000000
    Total Energy =                       -388.2794844938002825
    Molecular point group: c1
  Basis Set: 6-31G*
  Basis Set:

  -Total Gradient:
     Atom            X                  Y                   Z
    ------   -----------------  -----------------  -----------------
       1        0.000006026345    -0.000010001196     0.000004194866
       2       -0.002379236238     0.000705803992     0.003217587250
       3        0.002298972964    -0.000299902230    -0.003821679231
       4        0.003860743890    -0.003039730460    -0.001642143923
       5       -0.000008901923    -0.000011314656    -0.000002865666
       6        0.000010000261     0.000001269964     0.000000254698
       7        0.000005504244     0.000015172636    -0.000012777769
       8       -0.003803568408     0.002647859182     0.002262927700
       9        0.000010781218    -0.000004999136    -0.000000288718
      10       -0.000002406271    -0.000008548275     0.000001779985
      11        0.000000551832     0.000004931809    -0.000000700305
      12        0.000002512304    -0.000001362580    -0.000001729535
      13        0.000003012779    -0.000003922277     0.000002385706
      14       -0.000001461200    -0.000000070814     0.000005421317
      15       -0.000002995172    -0.000003838323    -0.000005610119
      16        0.000004134383     0.000009342279    -0.000004481317
      17       -0.000000680761     0.000000950824    -0.000005729236
      18        0.000006279764     0.000001147696     0.000004797246
      19       -0.000004670955    -0.000003267711     0.000000957986
      20        0.000002059198     0.000003426604     0.000004009953
      21       -0.000003122010     0.000001700887    -0.000006567713
      22       -0.000003562796    -0.000004166073     0.000001139051
      23       -0.000002295695     0.000001114887    -0.000003800179
      24        0.000003100742    -0.000000771494     0.000002653431
      25        0.000001060341    -0.000001023476     0.000000327319
      26       -0.000000447739    -0.000000782043     0.000000145881
      27       -0.000001391097     0.000000979975    -0.000000208687

  **** Optimization is complete! (in 8 steps) ****
    Final optimized geometry and variables:
    Molecular point group: c1

    Geometry (in Angstrom), charge = 0, multiplicity = 1:

    H           -0.570283074251     3.843755323419     2.560937153823
    O            0.258217374554     3.542230390497     2.216072909697
    C            0.498272753334     2.235328580558     2.673943321408
    C           -0.520203552311     1.223520010110     2.142004675668
    H            1.499097236638     1.983098626910     2.347528126019
    H            0.502770390184     2.221915801444     3.762353944306
    C           -0.179631753983     0.675038988702     0.756776891710
    H           -0.650168922623     0.420536448705     2.864803229013
    H           -1.489481559345     1.720450016687     2.101744070008
    C           -1.264141204850    -0.248196855868     0.196257651514
    H            0.768520418860     0.146454396448     0.813130482927
    H           -0.027445431242     1.512119967257     0.079026168987
    C           -1.003831935377    -0.754943817730    -1.227163963991
    H           -1.393742786549    -1.099794144761     0.862746460870
    H           -2.211735431964     0.286747156053     0.201988242866
    C            0.195379134948    -1.696662899108    -1.366210179039
    H           -1.894762106605    -1.274340770903    -1.574338019205
    H           -0.872071012845     0.097006565431    -1.892122939065
    C            0.351723807566    -2.257593195812    -2.781258433270
    H            0.086984744560    -2.522218055570    -0.663863815147
    H            1.110809886057    -1.179210285448    -1.090362041975
    C            1.550463042040    -3.194799786789    -2.923934477523
    H           -0.556020164727    -2.788181668323    -3.060777316689
    H            0.452234958259    -1.434214150852    -3.485292955632
    H            1.463823058090    -4.046784856787    -2.255341568740
    H            1.633432622012    -3.576824138541    -3.936799497711
    H            2.478919653815    -2.682966486984    -2.686715522595

  Mulliken Charges: (a.u.)
   Center  Symbol    Alpha    Beta     Spin     Total
       1     H     0.28325  0.28325  0.00000  0.43350
       2     O     4.36946  4.36946  0.00000 -0.73893
       3     C     2.99790  2.99790  0.00000  0.00419
       4     C     3.16521  3.16521  0.00000 -0.33043
       5     H     0.41521  0.41521  0.00000  0.16958
       6     H     0.42903  0.42903  0.00000  0.14194
       7     C     3.15731  3.15731  0.00000 -0.31463
       8     H     0.42212  0.42212  0.00000  0.15576
       9     H     0.42691  0.42691  0.00000  0.14618
      10     C     3.15353  3.15353  0.00000 -0.30706
      11     H     0.42121  0.42121  0.00000  0.15759
      12     H     0.41363  0.41363  0.00000  0.17275
      13     C     3.15322  3.15322  0.00000 -0.30645
      14     H     0.42473  0.42473  0.00000  0.15053
      15     H     0.42230  0.42230  0.00000  0.15540
      16     C     3.15267  3.15267  0.00000 -0.30533
      17     H     0.42232  0.42232  0.00000  0.15537
      18     H     0.42290  0.42290  0.00000  0.15421
      19     C     3.15116  3.15116  0.00000 -0.30233
      20     H     0.42519  0.42519  0.00000  0.14961
      21     H     0.42178  0.42178  0.00000  0.15643
      22     C     3.23914  3.23914  0.00000 -0.47828
      23     H     0.42345  0.42345  0.00000  0.15309
      24     H     0.42274  0.42274  0.00000  0.15452
      25     H     0.42221  0.42221  0.00000  0.15558
      26     H     0.41955  0.41955  0.00000  0.16091
      27     H     0.42185  0.42185  0.00000  0.15630

   Total alpha = 37.00000, Total beta = 37.00000, Total charge = -0.00000
