  ==> Input File <==

--------------------------------------------------------------------------
set {
	reference rhf
	basis 6-31G*
}

set_num_threads( 4 )
memory 2 gb

molecule MOL {
0 1

H	 2.814378	 -0.456350	 0.513088
O	 1.992254	 -0.890853	 0.307888
C	 1.025918	 0.026614	 0.316759
C	 -0.318135	 -0.576402	 0.000164
O	 1.242455	 1.170815	 0.551092
C	 -1.454360	 0.441875	 -0.000474
H	 -0.232276	 -1.072037	 -0.963152
H	 -0.497434	 -1.366743	 0.724193
C	 -2.826123	 -0.230780	 0.000056
H	 -1.357605	 1.085198	 -0.868380
H	 -1.357504	 1.086451	 0.866496
H	 -2.959731	 -0.858053	 -0.876869
H	 -3.619374	 0.509403	 -0.000080
H	 -2.959371	 -0.857318	 0.877556

	symmetry c1
}
set optking {
	frozen_dihedral = ("
		7 4 6 10
	")
}

ee = optimize('scf')
oeprop('DIPOLE', 'QUADRUPOLE', 'MULLIKEN_CHARGES')
f=open( 'psi4out.xyz', 'w' )
f.write( "14  " )
f.write( str(ee) + "\n" )
f.write( MOL.save_string_xyz() )
f.close()
--------------------------------------------------------------------------

    Molecular point group: c1
  Charge       = 0
  Multiplicity = 1
  Basis Set: 6-31G*
  Basis Set:
  @DF-RHF Final Energy:  -305.88027047837988
    Total Energy =                       -305.8802704783800550
    Molecular point group: c1
  Basis Set: 6-31G*
  Basis Set:
  Basis Set: 6-31G*
  Basis Set:
  @DF-RHF Final Energy:  -305.88033795841170
    Total Energy =                       -305.8803379584117010
  Basis Set: 6-31G*
  Basis Set:
  Basis Set: 6-31G*
  Basis Set:
  @DF-RHF Final Energy:  -305.88032830723580
    Total Energy =                       -305.8803283072355725
  Basis Set: 6-31G*
  Basis Set:
  Basis Set: 6-31G*
  Basis Set:
  @DF-RHF Final Energy:  -305.88034546246297
    Total Energy =                       -305.8803454624629694
  Basis Set: 6-31G*
  Basis Set:
  Basis Set: 6-31G*
  Basis Set:
  @DF-RHF Final Energy:  -305.88035639693965
    Total Energy =                       -305.8803563969398169
  Basis Set: 6-31G*
  Basis Set:
  Charge       = 0
  Multiplicity = 1
  Basis Set: 6-31G*
  Basis Set:

    Orbital Energies (a.u.)
    -----------------------

    Doubly Occupied:

       1A    -20.613031     2A    -20.552169     3A    -11.381646
       4A    -11.241488     5A    -11.225546     6A    -11.216899
       7A     -1.475123     8A     -1.366189     9A     -1.082880
      10A     -0.979656    11A     -0.857040    12A     -0.790902
      13A     -0.699985    14A     -0.688645    15A     -0.667499
      16A     -0.615662    17A     -0.594060    18A     -0.572434
      19A     -0.546569    20A     -0.503645    21A     -0.491490
      22A     -0.482928    23A     -0.479145    24A     -0.444513

  @DF-RHF Final Energy:  -305.88035675418780

   => Energetics <=

    Nuclear Repulsion Energy =            239.9655409922021647
    One-Electron Energy =                -892.5535073106898381
    Two-Electron Energy =                 346.7076095642999007
    DFT Exchange-Correlation Energy =       0.0000000000000000
    Empirical Dispersion Energy =           0.0000000000000000
    PCM Polarization Energy =               0.0000000000000000
    EFP Energy =                            0.0000000000000000
    Total Energy =                       -305.8803567541878010
    Molecular point group: c1
  Basis Set: 6-31G*
  Basis Set:

  -Total Gradient:
     Atom            X                  Y                   Z
    ------   -----------------  -----------------  -----------------
       1        0.000003979229    -0.000001651202     0.000001251614
       2        0.000000235645     0.000008061125     0.000005328330
       3        0.000007153715    -0.000023032992    -0.000021378755
       4       -0.002104860144    -0.002354326567     0.000592159068
       5       -0.000007153909    -0.000003038040     0.000004966705
       6        0.001919834793     0.002145161364     0.001336063818
       7        0.001462751508     0.001604556363    -0.000691385773
       8        0.000005530140    -0.000004874101    -0.000000144964
       9        0.000007508974     0.000025842112    -0.000035381227
      10       -0.001302382884    -0.001426973111    -0.001186400315
      11       -0.000001439298     0.000025173012     0.000003011826
      12       -0.000009528916    -0.000010109613    -0.000006231584
      13       -0.000005712050     0.000000062431     0.000002452614
      14        0.000024083199     0.000015149220    -0.000004311358

  **** Optimization is complete! (in 6 steps) ****
    Final optimized geometry and variables:
    Molecular point group: c1

    Geometry (in Angstrom), charge = 0, multiplicity = 1:

    H            2.834570745536    -0.438941884286     0.278644707041
    O            2.008883684055    -0.873831856111     0.089203745232
    C            1.042924592498     0.043987079322     0.112642576096
    C           -0.306676799672    -0.561769283916    -0.179348889762
    O            1.264730363471     1.188799104297     0.338867299355
    C           -1.441066305083     0.460455652307    -0.180179643043
    H           -0.222545770357    -1.055982689928    -1.143278958703
    H           -0.474977956921    -1.346175156779     0.553171357443
    C           -2.813579979347    -0.212094111236    -0.212187083811
    H           -1.339934979431     1.103325069883    -1.048547851451
    H           -1.358039109126     1.096634068769     0.692861328460
    H           -2.924942277035    -0.845074682224    -1.088233485806
    H           -3.606330153732     0.528266106565    -0.237911576049
    H           -2.969462955851    -0.832863942389     0.665600404725

  Mulliken Charges: (a.u.)
   Center  Symbol    Alpha    Beta     Spin     Total
       1     H     0.26776  0.26776  0.00000  0.46447
       2     O     4.35100  4.35100  0.00000 -0.70201
       3     C     2.62458  2.62458  0.00000  0.75085
       4     C     3.20915  3.20915  0.00000 -0.41829
       5     O     4.27901  4.27901  0.00000 -0.55802
       6     C     3.15295  3.15295  0.00000 -0.30589
       7     H     0.39825  0.39825  0.00000  0.20350
       8     H     0.39866  0.39866  0.00000  0.20268
       9     C     3.24311  3.24311  0.00000 -0.48621
      10     H     0.41301  0.41301  0.00000  0.17397
      11     H     0.40597  0.40597  0.00000  0.18805
      12     H     0.42116  0.42116  0.00000  0.15768
      13     H     0.41474  0.41474  0.00000  0.17051
      14     H     0.42065  0.42065  0.00000  0.15870

   Total alpha = 24.00000, Total beta = 24.00000, Total charge =  0.00000
