  ==> Input File <==

--------------------------------------------------------------------------
set {
	reference rhf
	basis 6-31G*
}

set_num_threads( 1 )
memory 2 gb

molecule MOL {
0 1

O	 0.008443	 -0.256292	 -0.173229
C	 1.122059	 0.121804	 -0.000188
C	 1.535718	 1.552624	 0.243811
O	 2.172624	 -0.688929	 0.000216
C	 0.363883	 2.529386	 0.252809
H	 2.076622	 1.578025	 1.185899
H	 2.261649	 1.815649	 -0.520778
C	 0.810485	 3.970933	 0.501518
H	 -0.348079	 2.227955	 1.014881
H	 -0.163112	 2.465559	 -0.694136
C	 -0.357268	 4.956463	 0.510866
H	 1.338628	 4.029106	 1.451127
H	 1.525651	 4.266956	 -0.263321
H	 -1.073538	 4.707342	 1.288394
H	 -0.013642	 5.970537	 0.689339
H	 -0.884783	 4.947341	 -0.438494
C	 3.452279	 -0.082609	 0.000533
H	 3.583069	 0.529321	 -0.880332
H	 4.163299	 -0.894027	 0.001117
H	 3.582335	 0.529955	 0.881077

	symmetry c1
}
set optking {
	frozen_dihedral = ("
		9 5 8 12,
		1 2 3 6,
		9 5 3 6
	")
}

ee = energy('scf')
oeprop('DIPOLE', 'QUADRUPOLE', 'MULLIKEN_CHARGES')
f=open( 'psi4out.xyz', 'w' )
f.write( "20  " )
f.write( str(ee) + "\n" )
f.write( MOL.save_string_xyz() )
f.close()
--------------------------------------------------------------------------

    Molecular point group: c1

    Geometry (in Angstrom), charge = 0, multiplicity = 1:

       Center              X                  Y                   Z               Mass
    ------------   -----------------  -----------------  -----------------  -----------------
           O         -1.147494432132    -1.754262152705    -0.337668074422    15.994914619560
           C         -0.033878432132    -1.376166152705    -0.164627074422    12.000000000000
           C          0.379780567868     0.054653847295     0.079371925578    12.000000000000
           O          1.016686567868    -2.186899152705    -0.164223074422    15.994914619560
           C         -0.792054432132     1.031415847295     0.088369925578    12.000000000000
           H          0.920684567868     0.080054847295     1.021459925578     1.007825032070
           H          1.105711567868     0.317678847295    -0.685217074422     1.007825032070
           C         -0.345452432132     2.472962847295     0.337078925578    12.000000000000
           H         -1.504016432132     0.729984847295     0.850441925578     1.007825032070
           H         -1.319049432132     0.967588847295    -0.858575074422     1.007825032070
           C         -1.513205432132     3.458492847295     0.346426925578    12.000000000000
           H          0.182690567868     2.531135847295     1.286687925578     1.007825032070
           H          0.369713567868     2.768985847295    -0.427760074422     1.007825032070
           H         -2.229475432132     3.209371847295     1.123954925578     1.007825032070
           H         -1.169579432132     4.472566847295     0.524899925578     1.007825032070
           H         -2.040720432132     3.449370847295    -0.602933074422     1.007825032070
           C          2.296341567868    -1.580579152705    -0.163906074422    12.000000000000
           H          2.427131567868    -0.968649152705    -1.044771074422     1.007825032070
           H          3.007361567868    -2.391997152705    -0.163322074422     1.007825032070
           H          2.426397567868    -0.968015152705     0.716637925578     1.007825032070

  Charge       = 0
  Multiplicity = 1
  Basis Set: 6-31G*
  Basis Set:

    Orbital Energies (a.u.)
    -----------------------

    Doubly Occupied:

       1A    -20.608359     2A    -20.543196     3A    -11.374900
       4A    -11.297670     5A    -11.242667     6A    -11.224713
       7A    -11.223312     8A    -11.213870     9A     -1.468871
      10A     -1.369045    11A     -1.093117    12A     -1.019475
      13A     -0.989411    14A     -0.908170    15A     -0.813495
      16A     -0.763128    17A     -0.704191    18A     -0.702102
      19A     -0.677224    20A     -0.647839    21A     -0.605445
      22A     -0.590450    23A     -0.584903    24A     -0.559717
      25A     -0.548473    26A     -0.527286    27A     -0.513188
      28A     -0.482024    29A     -0.476893    30A     -0.474507
      31A     -0.449568    32A     -0.428727

  @DF-RHF Final Energy:  -383.91406964127776

   => Energetics <=

    Nuclear Repulsion Energy =            387.0673609331525427
    One-Electron Energy =               -1289.7110149150112193
    Two-Electron Energy =                 518.7295843405804590
    DFT Exchange-Correlation Energy =       0.0000000000000000
    Empirical Dispersion Energy =           0.0000000000000000
    PCM Polarization Energy =               0.0000000000000000
    EFP Energy =                            0.0000000000000000
    Total Energy =                       -383.9140696412782745

  Mulliken Charges: (a.u.)
   Center  Symbol    Alpha    Beta     Spin     Total
       1     O     4.27342  4.27342  0.00000 -0.54684
       2     C     2.58727  2.58727  0.00000  0.82547
       3     C     3.24830  3.24830  0.00000 -0.49659
       4     O     4.30095  4.30095  0.00000 -0.60190
       5     C     3.14523  3.14523  0.00000 -0.29047
       6     H     0.40058  0.40058  0.00000  0.19883
       7     H     0.40356  0.40356  0.00000  0.19288
       8     C     3.15417  3.15417  0.00000 -0.30835
       9     H     0.40981  0.40981  0.00000  0.18037
      10     H     0.41031  0.41031  0.00000  0.17939
      11     C     3.23957  3.23957  0.00000 -0.47915
      12     H     0.42407  0.42407  0.00000  0.15186
      13     H     0.42442  0.42442  0.00000  0.15117
      14     H     0.41905  0.41905  0.00000  0.16190
      15     H     0.41853  0.41853  0.00000  0.16294
      16     H     0.41923  0.41923  0.00000  0.16155
      17     C     3.10076  3.10076  0.00000 -0.20152
      18     H     0.41207  0.41207  0.00000  0.17586
      19     H     0.39448  0.39448  0.00000  0.21104
      20     H     0.41423  0.41423  0.00000  0.17155

   Total alpha = 32.00000, Total beta = 32.00000, Total charge =  0.00000
