  ==> Input File <==

--------------------------------------------------------------------------
set {
	reference rhf
	basis cc-pvtz
}

set_num_threads( 4 )
memory 2 gb

molecule MOL {
0 1

H	 -2.816458	 -0.841657	 -0.064679
N	 -1.878861	 -0.711874	 0.250184
C	 -1.341419	 0.551458	 -0.220231
H	 -1.333674	 -1.468530	 -0.105118
C	 0.082190	 0.731516	 0.254705
H	 -1.357065	 0.652078	 -1.304747
H	 -1.939897	 1.357530	 0.189797
O	 0.881195	 -0.248324	 -0.336237
H	 0.440901	 1.722476	 -0.020063
H	 0.119896	 0.643586	 1.338114
C	 0.290507	 -1.502945	 -0.415193
H	 0.996422	 -2.173887	 -0.883069
H	 0.043311	 -1.888929	 0.571522
H	 -0.618091	 -1.478057	 -1.012178

	symmetry c1
}
set optking {
	frozen_dihedral = ("
		11 8 5 3
	")
}

ee = optimize('scf')
oeprop('DIPOLE', 'QUADRUPOLE', 'MULLIKEN_CHARGES')
f=open( 'psi4out.xyz', 'w' )
f.write( "14  " )
f.write( str(ee) + "\n" )
f.write( MOL.save_string_xyz() )
f.close()
--------------------------------------------------------------------------

    Molecular point group: c1
  Charge       = 0
  Multiplicity = 1
  Basis Set: CC-PVTZ
  Basis Set:
  @DF-RHF Final Energy:  -248.14710931183160
    Total Energy =                       -248.1471093118315139
    Molecular point group: c1
  Basis Set: CC-PVTZ
  Basis Set:
  Basis Set: CC-PVTZ
  Basis Set:
  @DF-RHF Final Energy:  -248.19408580698715
    Total Energy =                       -248.1940858069873457
  Basis Set: CC-PVTZ
  Basis Set:
  Basis Set: CC-PVTZ
  Basis Set:
  @DF-RHF Final Energy:  -248.20790606745749
    Total Energy =                       -248.2079060674574293
  Basis Set: CC-PVTZ
  Basis Set:
  Basis Set: CC-PVTZ
  Basis Set:
  @DF-RHF Final Energy:  -248.21154113826182
    Total Energy =                       -248.2115411382618504
  Basis Set: CC-PVTZ
  Basis Set:
  @DF-RHF Final Energy:  -248.21366448327953
    Total Energy =                       -248.2136644832794445
  @DF-RHF Final Energy:  -248.21474302247464
    Total Energy =                       -248.2147430224744653
  @DF-RHF Final Energy:  -248.21507606534092
    Total Energy =                       -248.2150760653406678
  @DF-RHF Final Energy:  -248.21516899575371
    Total Energy =                       -248.2151689957534018
  Basis Set: CC-PVTZ
  Basis Set:
  @DF-RHF Final Energy:  -248.21521607118760
    Total Energy =                       -248.2152160711875695
  Basis Set: CC-PVTZ
  Basis Set:
  Basis Set: CC-PVTZ
  Basis Set:
  @DF-RHF Final Energy:  -248.21523184102409
    Total Energy =                       -248.2152318410242060
  Basis Set: CC-PVTZ
  Basis Set:
  Basis Set: CC-PVTZ
  Basis Set:
  @DF-RHF Final Energy:  -248.21523537594476
    Total Energy =                       -248.2152353759446441
  Basis Set: CC-PVTZ
  Basis Set:
  Charge       = 0
  Multiplicity = 1
  Basis Set: CC-PVTZ
  Basis Set:

    Orbital Energies (a.u.)
    -----------------------

    Doubly Occupied:

       1A    -20.543860     2A    -15.534942     3A    -11.262909
       4A    -11.262072     5A    -11.247601     6A     -1.374933
       7A     -1.184305     8A     -1.002425     9A     -0.919351
      10A     -0.808761    11A     -0.691177    12A     -0.674119
      13A     -0.641468    14A     -0.621081    15A     -0.603766
      16A     -0.549855    17A     -0.536696    18A     -0.514423
      19A     -0.458107    20A     -0.412299    21A     -0.391482

  @DF-RHF Final Energy:  -248.21523621760261

   => Energetics <=

    Nuclear Repulsion Energy =            197.1089476018175048
    One-Electron Energy =                -728.1771063850097789
    Two-Electron Energy =                 282.8529225655897790
    DFT Exchange-Correlation Energy =       0.0000000000000000
    Empirical Dispersion Energy =           0.0000000000000000
    PCM Polarization Energy =               0.0000000000000000
    EFP Energy =                            0.0000000000000000
    Total Energy =                       -248.2152362176025235
    Molecular point group: c1
  Basis Set: CC-PVTZ
  Basis Set:

  -Total Gradient:
     Atom            X                  Y                   Z
    ------   -----------------  -----------------  -----------------
       1       -0.000011732243     0.000002005627    -0.000009992263
       2        0.000077414728    -0.000048763772    -0.000003149817
       3       -0.000681938983    -0.002364792588     0.002504986554
       4       -0.000027117945     0.000036241666     0.000022038823
       5        0.000487407978     0.003967409480    -0.005550896539
       6       -0.000005473957     0.000001032175    -0.000001330315
       7        0.000001284860     0.000007709811     0.000011884220
       8        0.001410688282    -0.002616246116     0.006655001813
       9       -0.000016348665     0.000005233222    -0.000012010966
      10       -0.000003326860     0.000012951868     0.000008630879
      11       -0.001269588139     0.000984382554    -0.003601402243
      12        0.000002901834    -0.000006621035    -0.000006175081
      13       -0.000002457048     0.000009207611    -0.000009036566
      14        0.000038286156     0.000010249498    -0.000008548499

  **** Optimization is complete! (in 12 steps) ****
    Final optimized geometry and variables:
    Molecular point group: c1

    Geometry (in Angstrom), charge = 0, multiplicity = 1:

    H           -2.753762708661    -0.102846654278     0.369740387063
    N           -1.777514378985    -0.260835751815     0.498021037465
    C           -1.001368689364     0.782505777651    -0.155789324144
    H           -1.577142067514    -1.166385668138     0.135153431835
    C            0.434221069530     0.893675820864     0.345991379970
    H           -1.001029841198     0.709899485076    -1.242904003963
    H           -1.474081183697     1.726613217097     0.089117850313
    O            1.382113204754     0.019748421220    -0.203589113794
    H            0.803827148440     1.884499505317     0.117802952679
    H            0.416652320002     0.779559874393     1.427139058075
    C            1.027911969447    -1.300254625742    -0.444762793477
    H            1.916083438936    -1.808640955408    -0.791781490648
    H            0.676508819713    -1.799585404539     0.455118562196
    H            0.268969753925    -1.388489939529    -1.216947413400

  Mulliken Charges: (a.u.)
   Center  Symbol    Alpha    Beta     Spin     Total
       1     H     0.42710  0.42710  0.00000  0.14580
       2     N     3.68868  3.68868  0.00000 -0.37736
       3     C     3.05906  3.05906  0.00000 -0.11812
       4     H     0.42817  0.42817  0.00000  0.14365
       5     C     2.96870  2.96870  0.00000  0.06260
       6     H     0.45551  0.45551  0.00000  0.08897
       7     H     0.44947  0.44947  0.00000  0.10106
       8     O     4.17825  4.17825  0.00000 -0.35649
       9     H     0.45551  0.45551  0.00000  0.08899
      10     H     0.46668  0.46668  0.00000  0.06664
      11     C     3.03574  3.03574  0.00000 -0.07148
      12     H     0.44275  0.44275  0.00000  0.11449
      13     H     0.46865  0.46865  0.00000  0.06270
      14     H     0.47573  0.47573  0.00000  0.04854

   Total alpha = 21.00000, Total beta = 21.00000, Total charge = -0.00000
