                              Psi4 1.0.54 Driver

  ==> Input File <==

--------------------------------------------------------------------------
set {
	reference rhf
	basis cc-pvtz
}

set_num_threads( 4 )
memory 2 gb

molecule MOL {
0 1

H	 -3.023686	 -1.318283	 0.207018
O	 -2.201047	 -0.983904	 -0.098749
C	 -2.021813	 0.336996	 0.342658
C	 -0.669613	 0.837286	 -0.127252
H	 -2.804751	 0.976909	 -0.056395
H	 -2.078014	 0.385579	 1.428414
C	 0.490865	 -0.082543	 0.241244
H	 -0.708709	 0.967192	 -1.204587
H	 -0.507562	 1.822272	 0.303070
C	 1.839800	 0.429565	 -0.255472
H	 0.305636	 -1.070211	 -0.165276
H	 0.527397	 -0.195943	 1.322876
C	 3.001144	 -0.485193	 0.119072
H	 1.804373	 0.541073	 -1.335756
H	 2.020437	 1.423114	 0.146921
H	 2.866892	 -1.477297	 -0.298806
H	 3.943543	 -0.095749	 -0.249061
H	 3.085064	 -0.590459	 1.195790

	symmetry c1
}
set optking {
	frozen_dihedral = ("
		2 3 4 8
	")
}

ee,wfn = optimize('scf', return_wfn=True)
oeprop( wfn, 'DIPOLE', 'QUADRUPOLE', 'MULLIKEN_CHARGES')
f=open( 'psi4out.xyz', 'w' )
f.write( "18  " )
f.write( str(ee) + "\n" )
f.write( MOL.save_string_xyz() )
f.close()
--------------------------------------------------------------------------

    Molecular point group: c1
  Charge       = 0
  Multiplicity = 1
  Basis Set: CC-PVTZ
  Basis Set:
  @DF-RHF Final Energy:  -271.28616891604008
    Total Energy =                       -271.2861689160399123
    Molecular point group: c1
  Basis Set: CC-PVTZ
  Basis Set:
  Basis Set: CC-PVTZ
  Basis Set:
  @DF-RHF Final Energy:  -271.28630544726741
    Total Energy =                       -271.2863054472675230
  Basis Set: CC-PVTZ
  Basis Set:
  Basis Set: CC-PVTZ
  Basis Set:
  @DF-RHF Final Energy:  -271.28633961077651
    Total Energy =                       -271.2863396107766221
  Basis Set: CC-PVTZ
  Basis Set:
  Basis Set: CC-PVTZ
  Basis Set:
  @DF-RHF Final Energy:  -271.28634100964064
    Total Energy =                       -271.2863410096406938
  Basis Set: CC-PVTZ
  Basis Set:
  Charge       = 0
  Multiplicity = 1
  Basis Set: CC-PVTZ
  Basis Set:

    Orbital Energies (a.u.)
    -----------------------

    Doubly Occupied:

       1A    -20.546157     2A    -11.266170     3A    -11.210730
       4A    -11.208699     5A    -11.204196     6A    -11.202319
       7A     -1.364257     8A     -1.076031     9A     -1.009896
      10A     -0.914687    11A     -0.818157    12A     -0.784272
      13A     -0.706563    14A     -0.647768    15A     -0.623894
      16A     -0.582942    17A     -0.572909    18A     -0.556977
      19A     -0.523498    20A     -0.503243    21A     -0.489133
      22A     -0.467453    23A     -0.458109    24A     -0.447415
      25A     -0.432831

  @DF-RHF Final Energy:  -271.28634135024402

   => Energetics <=

    Nuclear Repulsion Energy =            249.6135816671777548
    One-Electron Energy =                -862.5632266379622024
    Two-Electron Energy =                 341.6633036205403755
    DFT Exchange-Correlation Energy =       0.0000000000000000
    Empirical Dispersion Energy =           0.0000000000000000
    PCM Polarization Energy =               0.0000000000000000
    EFP Energy =                            0.0000000000000000
    Total Energy =                       -271.2863413502440721
    Molecular point group: c1
  Basis Set: CC-PVTZ
  Basis Set:

  -Total Gradient:
     Atom            X                  Y                   Z
    ------   -----------------  -----------------  -----------------
       1        0.000027668823    -0.000000194081    -0.000005087618
       2        0.000881604492    -0.000692857893     0.001909154525
       3       -0.001371907221     0.001605461545    -0.002405939145
       4        0.001319390918    -0.003639969941     0.000199609963
       5       -0.000002504490    -0.000041643563    -0.000010173970
       6       -0.000014943425    -0.000014484742    -0.000006778156
       7       -0.000025079251     0.000043454775    -0.000019518377
       8       -0.000842221718     0.002728057538     0.000314558292
       9        0.000020589995     0.000017520049     0.000008556617
      10        0.000010496749     0.000006141781     0.000031867415
      11       -0.000009281940     0.000008760199    -0.000000341808
      12        0.000014006240     0.000001957538    -0.000016016213
      13        0.000011995632    -0.000004225046    -0.000017333288
      14       -0.000010059951    -0.000008838191     0.000024639833
      15       -0.000005745927    -0.000009497037    -0.000002739407
      16        0.000001775401     0.000002588966     0.000006306468
      17       -0.000003243158    -0.000009162372    -0.000001021715
      18       -0.000002541176     0.000006930477    -0.000009743414

  **** Optimization is complete! (in 5 steps) ****
    Final optimized geometry and variables:
    Molecular point group: c1

    Geometry (in Angstrom), charge = 0, multiplicity = 1:

    H           -3.097554616424    -1.268064773691     0.140843295616
    O           -2.253853887732    -0.970540699209    -0.144516260039
    C           -2.044459666907     0.354169918135     0.270258169738
    C           -0.687185191897     0.829847049473    -0.214262111776
    H           -2.819865282703     1.005700347601    -0.123945864768
    H           -2.084598997763     0.414314979604     1.356328059831
    C            0.475162568081    -0.068663950144     0.194041823777
    H           -0.717577783737     0.947658876727    -1.293532802101
    H           -0.533098387161     1.828169580488     0.189457552408
    C            1.828544870791     0.465197205464    -0.266484343307
    H            0.319504861444    -1.061842646789    -0.209228921112
    H            0.481067987664    -0.175002776324     1.276899759434
    C            2.993231859739    -0.432713545810     0.137193303043
    H            1.819922728863     0.577590833357    -1.347285320432
    H            1.983871411549     1.460684446233     0.141408692263
    H            2.884096156009    -1.426455971324    -0.283966434268
    H            3.938924193319    -0.029393850309    -0.206761729503
    H            3.051083090697    -0.537268516411     1.215649676768

  Mulliken Charges: (a.u.)
   Center  Symbol    Alpha    Beta     Spin     Total
       1     H     0.39589  0.39589  0.00000  0.20821
       2     O     4.19794  4.19794  0.00000 -0.39588
       3     C     2.97432  2.97432  0.00000  0.05137
       4     C     3.09155  3.09155  0.00000 -0.18309
       5     H     0.46563  0.46563  0.00000  0.06874
       6     H     0.47327  0.47327  0.00000  0.05346
       7     C     3.08486  3.08486  0.00000 -0.16973
       8     H     0.45292  0.45292  0.00000  0.09416
       9     H     0.45613  0.45613  0.00000  0.08773
      10     C     3.08375  3.08375  0.00000 -0.16749
      11     H     0.44303  0.44303  0.00000  0.11394
      12     H     0.45938  0.45938  0.00000  0.08124
      13     C     3.14974  3.14974  0.00000 -0.29949
      14     H     0.45490  0.45490  0.00000  0.09021
      15     H     0.45682  0.45682  0.00000  0.08636
      16     H     0.45442  0.45442  0.00000  0.09116
      17     H     0.44952  0.44952  0.00000  0.10096
      18     H     0.45593  0.45593  0.00000  0.08814

   Total alpha = 25.00000, Total beta = 25.00000, Total charge = -0.00000

*** Psi4 exiting successfully. Buy a developer a beer!
