  ==> Input File <==

--------------------------------------------------------------------------
set {
	reference rhf
	basis 6-31G*
}

set_num_threads( 4 )
memory 2 gb

molecule MOL {
0 1

O	 0.625848	 1.349995	 -0.000749
C	 0.486307	 0.169203	 0.000779
C	 1.608116	 -0.841643	 0.000302
O	 -0.698257	 -0.426125	 0.001050
C	 2.990107	 -0.200498	 -0.000684
H	 1.468623	 -1.481519	 -0.865924
H	 1.469683	 -1.481289	 0.866878
H	 3.129736	 0.423364	 -0.875135
H	 3.757882	 -0.966877	 -0.001197
H	 3.130964	 0.423383	 0.873533
C	 -1.187206	 -0.917634	 1.244733
C	 -2.540725	 -1.544210	 0.984540
H	 -1.254724	 -0.097142	 1.946031
H	 -0.483266	 -1.636670	 1.641022
H	 -3.232548	 -0.812628	 0.582884
H	 -2.951715	 -1.933521	 1.910376
H	 -2.456970	 -2.360648	 0.276253

	symmetry c1
}
set optking {
	frozen_dihedral = ("
		11 4 2 3
	")
}

ee = optimize('scf')
oeprop('DIPOLE', 'QUADRUPOLE', 'MULLIKEN_CHARGES')
f=open( 'psi4out.xyz', 'w' )
f.write( "17  " )
f.write( str(ee) + "\n" )
f.write( MOL.save_string_xyz() )
f.close()
--------------------------------------------------------------------------

    Molecular point group: c1
  Charge       = 0
  Multiplicity = 1
  Basis Set: 6-31G*
  Basis Set:
  @DF-RHF Final Energy:  -344.88959487339309
    Total Energy =                       -344.8895948733933210
    Molecular point group: c1
  Basis Set: 6-31G*
  Basis Set:
  Basis Set: 6-31G*
  Basis Set:
  @DF-RHF Final Energy:  -344.89091790587833
    Total Energy =                       -344.8909179058782684
  Basis Set: 6-31G*
  Basis Set:
  Basis Set: 6-31G*
  Basis Set:
  @DF-RHF Final Energy:  -344.89151739677516
    Total Energy =                       -344.8915173967753844
  Basis Set: 6-31G*
  Basis Set:
  Basis Set: 6-31G*
  Basis Set:
  @DF-RHF Final Energy:  -344.89158780801819
    Total Energy =                       -344.8915878080177890
  Basis Set: 6-31G*
  Basis Set:
  Basis Set: 6-31G*
  Basis Set:
  @DF-RHF Final Energy:  -344.89159168944411
    Total Energy =                       -344.8915916894442262
  Basis Set: 6-31G*
  Basis Set:
  Basis Set: 6-31G*
  Basis Set:
  @DF-RHF Final Energy:  -344.89159868357677
    Total Energy =                       -344.8915986835767171
  Basis Set: 6-31G*
  Basis Set:
  Charge       = 0
  Multiplicity = 1
  Basis Set: 6-31G*
  Basis Set:

    Orbital Energies (a.u.)
    -----------------------

    Doubly Occupied:

       1A    -20.583288     2A    -20.555278     3A    -11.373996
       4A    -11.297063     5A    -11.242574     6A    -11.225027
       7A    -11.219008     8A     -1.457019     9A     -1.366452
      10A     -1.064573    11A     -1.038574    12A     -0.903229
      13A     -0.867604    14A     -0.769940    15A     -0.701619
      16A     -0.684391    17A     -0.655798    18A     -0.638196
      19A     -0.602792    20A     -0.563680    21A     -0.556628
      22A     -0.532636    23A     -0.527095    24A     -0.520118
      25A     -0.507220    26A     -0.485281    27A     -0.451384
      28A     -0.434247

  @DF-RHF Final Energy:  -344.89159875021625

   => Energetics <=

    Nuclear Repulsion Energy =            314.2792399563974755
    One-Electron Energy =               -1092.6922502136117146
    Two-Electron Energy =                 433.5214115069974810
    DFT Exchange-Correlation Energy =       0.0000000000000000
    Empirical Dispersion Energy =           0.0000000000000000
    PCM Polarization Energy =               0.0000000000000000
    EFP Energy =                            0.0000000000000000
    Total Energy =                       -344.8915987502167013
    Molecular point group: c1
  Basis Set: 6-31G*
  Basis Set:

  -Total Gradient:
     Atom            X                  Y                   Z
    ------   -----------------  -----------------  -----------------
       1        0.000001104562     0.000022339606     0.000006147796
       2        0.000153883532    -0.000393138876    -0.001189884868
       3       -0.000004347753     0.000006591018     0.000761717274
       4       -0.000527051839     0.001109660489     0.000587733665
       5        0.000002377983    -0.000005201437     0.000000297083
       6        0.000002160303    -0.000001012653    -0.000000747293
       7        0.000007547558     0.000000224216    -0.000009007772
       8       -0.000002081254    -0.000001315748     0.000000067109
       9       -0.000000326622     0.000001119486     0.000001402544
      10       -0.000000107703    -0.000000091316     0.000000715072
      11        0.000374354088    -0.000739795764    -0.000163257597
      12       -0.000003347402    -0.000009714124     0.000001825407
      13        0.000013821121     0.000002497195    -0.000006770938
      14       -0.000012677878     0.000005114628     0.000012373803
      15       -0.000000906670     0.000000326588    -0.000000023341
      16       -0.000001532537     0.000003799485    -0.000001230416
      17       -0.000002869487    -0.000001402800    -0.000001357529

  **** Optimization is complete! (in 7 steps) ****
    Final optimized geometry and variables:
    Molecular point group: c1

    Geometry (in Angstrom), charge = 0, multiplicity = 1:

    O            0.424418081855     1.648265980710    -0.378209624593
    C            0.332999471001     0.472048480505    -0.312712785234
    C            1.510787430223    -0.475827756175    -0.295290670024
    O           -0.873949591308    -0.136999786669    -0.309440229342
    C            2.858537361742     0.233610526623    -0.339034538976
    H            1.388912983031    -1.145541768486    -1.142256633949
    H            1.433993326287    -1.103451509925     0.588122002260
    H            2.949034211171     0.839425025830    -1.232067670738
    H            3.664749894322    -0.492168199042    -0.333941467272
    H            2.982668893801     0.887863282416     0.515518166255
    C           -1.384983955737    -0.618511069233     0.923243824774
    C           -2.790288640108    -1.122909898691     0.673189999800
    H           -1.387726766663     0.188992844703     1.647377807558
    H           -0.754485498547    -1.416154952710     1.302495500510
    H           -3.416473586947    -0.322066245438     0.299272025995
    H           -3.220518710823    -1.500953960247     1.595031106806
    H           -2.781277381494    -1.922595915376    -0.058293540040

  Mulliken Charges: (a.u.)
   Center  Symbol    Alpha    Beta     Spin     Total
       1     O     4.25102  4.25102  0.00000 -0.50203
       2     C     2.61297  2.61297  0.00000  0.77406
       3     C     3.21408  3.21408  0.00000 -0.42816
       4     O     4.32108  4.32108  0.00000 -0.64215
       5     C     3.23824  3.23824  0.00000 -0.47647
       6     H     0.39858  0.39858  0.00000  0.20284
       7     H     0.40715  0.40715  0.00000  0.18570
       8     H     0.40770  0.40770  0.00000  0.18461
       9     H     0.41820  0.41820  0.00000  0.16361
      10     H     0.41074  0.41074  0.00000  0.17853
      11     C     3.00295  3.00295  0.00000 -0.00590
      12     C     3.24580  3.24580  0.00000 -0.49159
      13     H     0.41380  0.41380  0.00000  0.17239
      14     H     0.42358  0.42358  0.00000  0.15284
      15     H     0.40579  0.40579  0.00000  0.18842
      16     H     0.41784  0.41784  0.00000  0.16432
      17     H     0.41051  0.41051  0.00000  0.17898

   Total alpha = 28.00000, Total beta = 28.00000, Total charge = -0.00000
