  ==> Input File <==

--------------------------------------------------------------------------
set {
	reference rhf
	basis 6-31G*
}

set_num_threads( 1 )
memory 2 gb

molecule MOL {
0 1

O	 3.005264	 0.717056	 -0.988654
C	 2.701189	 0.057885	 -0.047330
C	 1.557611	 0.344411	 0.895496
O	 3.347903	 -1.046386	 0.304773
C	 0.773921	 1.601208	 0.523463
H	 0.927511	 -0.538752	 0.909197
H	 1.976068	 0.426036	 1.895460
C	 -0.323913	 1.964246	 1.529176
H	 0.340721	 1.474481	 -0.464159
H	 1.468594	 2.430127	 0.441331
C	 -1.479420	 0.962780	 1.612722
H	 -0.725935	 2.936176	 1.252674
H	 0.116711	 2.090396	 2.517076
C	 -2.599885	 1.423780	 2.547087
H	 -1.886263	 0.802069	 0.615491
H	 -1.113932	 -0.003479	 1.952918
C	 -3.757582	 0.428402	 2.642441
H	 -2.980602	 2.384817	 2.205477
H	 -2.191578	 1.594984	 3.541910
C	 -4.874028	 0.898021	 3.574485
H	 -4.166115	 0.255409	 1.649055
H	 -3.379719	 -0.531623	 2.987916
H	 -5.679609	 0.171750	 3.621138
H	 -5.297022	 1.839710	 3.236115
H	 -4.504333	 1.047174	 4.585105
C	 4.728119	 -1.109107	 -0.004993
H	 4.882018	 -1.033965	 -1.071845
H	 5.068212	 -2.067527	 0.355250
H	 5.265056	 -0.311663	 0.488280

	symmetry c1
}
set optking {
	frozen_dihedral = ("
		21 17 14 11,
		17 14 11 15,
		15 11 8 5,
		6 3 5 9,
		11 8 5 9,
		2 4 26 27,
		6 3 2 1
	")
}

ee = energy('scf')
oeprop('DIPOLE', 'QUADRUPOLE', 'MULLIKEN_CHARGES')
f=open( 'psi4out.xyz', 'w' )
f.write( "29  " )
f.write( str(ee) + "\n" )
f.write( MOL.save_string_xyz() )
f.close()
--------------------------------------------------------------------------

    Molecular point group: c1

    Geometry (in Angstrom), charge = 0, multiplicity = 1:

       Center              X                  Y                   Z               Mass
    ------------   -----------------  -----------------  -----------------  -----------------
           O          2.686810125595     0.169031497900    -2.122467548277    15.994914619560
           C          2.382735125595    -0.490139502100    -1.181143548277    12.000000000000
           C          1.239157125595    -0.203613502100    -0.238317548277    12.000000000000
           O          3.029449125595    -1.594410502100    -0.829040548277    15.994914619560
           C          0.455467125595     1.053183497900    -0.610350548277    12.000000000000
           H          0.609057125595    -1.086776502100    -0.224616548277     1.007825032070
           H          1.657614125595    -0.121988502100     0.761646451723     1.007825032070
           C         -0.642366874405     1.416221497900     0.395362451723    12.000000000000
           H          0.022267125595     0.926456497900    -1.597972548277     1.007825032070
           H          1.150140125595     1.882102497900    -0.692482548277     1.007825032070
           C         -1.797873874405     0.414755497900     0.478908451723    12.000000000000
           H         -1.044388874405     2.388151497900     0.118860451723     1.007825032070
           H         -0.201742874405     1.542371497900     1.383262451723     1.007825032070
           C         -2.918338874405     0.875755497900     1.413273451723    12.000000000000
           H         -2.204716874405     0.254044497900    -0.518322548277     1.007825032070
           H         -1.432385874405    -0.551503502100     0.819104451723     1.007825032070
           C         -4.076035874405    -0.119622502100     1.508627451723    12.000000000000
           H         -3.299055874405     1.836792497900     1.071663451723     1.007825032070
           H         -2.510031874405     1.046959497900     2.408096451723     1.007825032070
           C         -5.192481874405     0.349996497900     2.440671451723    12.000000000000
           H         -4.484568874405    -0.292615502100     0.515241451723     1.007825032070
           H         -3.698172874405    -1.079647502100     1.854102451723     1.007825032070
           H         -5.998062874405    -0.376274502100     2.487324451723     1.007825032070
           H         -5.615475874405     1.291685497900     2.102301451723     1.007825032070
           H         -4.822786874405     0.499149497900     3.451291451723     1.007825032070
           C          4.409665125595    -1.657131502100    -1.138806548277    12.000000000000
           H          4.563564125595    -1.581989502100    -2.205658548277     1.007825032070
           H          4.749758125595    -2.615551502100    -0.778563548277     1.007825032070
           H          4.946602125595    -0.859687502100    -0.645533548277     1.007825032070

  Charge       = 0
  Multiplicity = 1
  Basis Set: 6-31G*
  Basis Set:

    Orbital Energies (a.u.)
    -----------------------

    Doubly Occupied:

       1A    -20.598747     2A    -20.546920     3A    -11.372416
       4A    -11.283017     5A    -11.234895     6A    -11.219018
       7A    -11.217722     8A    -11.215954     9A    -11.215789
      10A    -11.214446    11A    -11.209030    12A     -1.467649
      13A     -1.362944    14A     -1.098037    15A     -1.066594
      16A     -1.018855    17A     -0.977520    18A     -0.929811
      19A     -0.862104    20A     -0.799584    21A     -0.790683
      22A     -0.763788    23A     -0.700629    24A     -0.680514
      25A     -0.672731    26A     -0.650600    27A     -0.628576
      28A     -0.606990    29A     -0.594684    30A     -0.583166
      31A     -0.565784    32A     -0.552210    33A     -0.533827
      34A     -0.528596    35A     -0.518805    36A     -0.508930
      37A     -0.494539    38A     -0.477961    39A     -0.471016
      40A     -0.462521    41A     -0.460086    42A     -0.453661
      43A     -0.441343    44A     -0.433219

  @DF-RHF Final Energy:  -501.03887438895697

   => Energetics <=

    Nuclear Repulsion Energy =            610.2203937828877542
    One-Electron Energy =               -1891.5467311367722232
    Two-Electron Energy =                 780.2874629649292046
    DFT Exchange-Correlation Energy =       0.0000000000000000
    Empirical Dispersion Energy =           0.0000000000000000
    PCM Polarization Energy =               0.0000000000000000
    EFP Energy =                            0.0000000000000000
    Total Energy =                       -501.0388743889551506

  Mulliken Charges: (a.u.)
   Center  Symbol    Alpha    Beta     Spin     Total
       1     O     4.28091  4.28091  0.00000 -0.56181
       2     C     2.60446  2.60446  0.00000  0.79108
       3     C     3.21093  3.21093  0.00000 -0.42186
       4     O     4.30879  4.30879  0.00000 -0.61759
       5     C     3.15415  3.15415  0.00000 -0.30830
       6     H     0.39782  0.39782  0.00000  0.20435
       7     H     0.40323  0.40323  0.00000  0.19354
       8     C     3.15652  3.15652  0.00000 -0.31304
       9     H     0.41259  0.41259  0.00000  0.17481
      10     H     0.40937  0.40937  0.00000  0.18125
      11     C     3.15503  3.15503  0.00000 -0.31007
      12     H     0.41826  0.41826  0.00000  0.16348
      13     H     0.42428  0.42428  0.00000  0.15143
      14     C     3.15027  3.15027  0.00000 -0.30054
      15     H     0.42236  0.42236  0.00000  0.15527
      16     H     0.42359  0.42359  0.00000  0.15282
      17     C     3.15147  3.15147  0.00000 -0.30294
      18     H     0.42333  0.42333  0.00000  0.15334
      19     H     0.42413  0.42413  0.00000  0.15175
      20     C     3.23935  3.23935  0.00000 -0.47870
      21     H     0.42268  0.42268  0.00000  0.15464
      22     H     0.42340  0.42340  0.00000  0.15321
      23     H     0.41919  0.41919  0.00000  0.16162
      24     H     0.42155  0.42155  0.00000  0.15689
      25     H     0.42190  0.42190  0.00000  0.15619
      26     C     3.09444  3.09444  0.00000 -0.18889
      27     H     0.40324  0.40324  0.00000  0.19351
      28     H     0.40738  0.40738  0.00000  0.18524
      29     H     0.41534  0.41534  0.00000  0.16931

   Total alpha = 44.00000, Total beta = 44.00000, Total charge =  0.00000
