  ==> Input File <==

--------------------------------------------------------------------------
set {
	reference rhf
	basis cc-pvtz
}

set_num_threads( 4 )
memory 2 gb

molecule MOL {
0 1

H	 -3.144994	 -1.202467	 -0.018751
O	 -2.321472	 -0.864941	 -0.318626
C	 -2.021813	 0.336996	 0.342658
C	 -0.669613	 0.837286	 -0.127252
H	 -2.780861	 1.084746	 0.127159
H	 -2.006390	 0.184138	 1.420053
C	 0.490865	 -0.082543	 0.241244
H	 -0.708709	 0.967192	 -1.204587
H	 -0.507562	 1.822272	 0.303070
C	 1.839800	 0.429565	 -0.255472
H	 0.305636	 -1.070211	 -0.165276
H	 0.527397	 -0.195943	 1.322876
C	 2.803416	 0.770226	 0.876421
H	 2.292185	 -0.320136	 -0.898899
H	 1.687211	 1.309724	 -0.874929
H	 3.003704	 -0.099346	 1.493385
H	 3.751528	 1.128604	 0.491773
H	 2.394483	 1.542623	 1.519556

	symmetry c1
}
set optking {
	frozen_dihedral = ("
		14 10 7 11
	")
}

ee = optimize('scf')
oeprop('DIPOLE', 'QUADRUPOLE', 'MULLIKEN_CHARGES')
f=open( 'psi4out.xyz', 'w' )
f.write( "18  " )
f.write( str(ee) + "\n" )
f.write( MOL.save_string_xyz() )
f.close()
--------------------------------------------------------------------------

    Molecular point group: c1
  Charge       = 0
  Multiplicity = 1
  Basis Set: CC-PVTZ
  Basis Set:
  @DF-RHF Final Energy:  -271.28094695393133
    Total Energy =                       -271.2809469539314478
    Molecular point group: c1
  Basis Set: CC-PVTZ
  Basis Set:
  Basis Set: CC-PVTZ
  Basis Set:
  @DF-RHF Final Energy:  -271.28120736166193
    Total Energy =                       -271.2812073616615294
  Basis Set: CC-PVTZ
  Basis Set:
  Basis Set: CC-PVTZ
  Basis Set:
  @DF-RHF Final Energy:  -271.28127650308875
    Total Energy =                       -271.2812765030888613
  Basis Set: CC-PVTZ
  Basis Set:
  Charge       = 0
  Multiplicity = 1
  Basis Set: CC-PVTZ
  Basis Set:

    Orbital Energies (a.u.)
    -----------------------

    Doubly Occupied:

       1A    -20.546230     2A    -11.265784     3A    -11.211058
       4A    -11.208959     5A    -11.204749     6A    -11.204350
       7A     -1.364122     8A     -1.074505     9A     -1.009456
      10A     -0.914387    11A     -0.821912    12A     -0.783585
      13A     -0.708349    14A     -0.639081    15A     -0.618679
      16A     -0.598943    17A     -0.573473    18A     -0.551821
      19A     -0.521611    20A     -0.506556    21A     -0.494783
      22A     -0.465646    23A     -0.453074    24A     -0.449041
      25A     -0.430769

  @DF-RHF Final Energy:  -271.28127688775305

   => Energetics <=

    Nuclear Repulsion Energy =            249.5636044983294539
    One-Electron Energy =                -862.4479161742544875
    Two-Electron Energy =                 341.6030347881719536
    DFT Exchange-Correlation Energy =       0.0000000000000000
    Empirical Dispersion Energy =           0.0000000000000000
    PCM Polarization Energy =               0.0000000000000000
    EFP Energy =                            0.0000000000000000
    Total Energy =                       -271.2812768877530516
    Molecular point group: c1
  Basis Set: CC-PVTZ
  Basis Set:

  -Total Gradient:
     Atom            X                  Y                   Z
    ------   -----------------  -----------------  -----------------
       1        0.000001240604     0.000002281427     0.000002544239
       2       -0.000023561763     0.000033848570     0.000002646700
       3        0.000010901934    -0.000015475348     0.000040947590
       4        0.000010314230    -0.000007059647    -0.000029069370
       5       -0.000020278038    -0.000022676841    -0.000006441025
       6       -0.000020036759    -0.000007843980    -0.000001624696
       7       -0.000486222939     0.000501006862    -0.000968118827
       8        0.000016820235     0.000004773353    -0.000008789666
       9        0.000004964455    -0.000010923367    -0.000004922339
      10        0.000494418803    -0.000509472199     0.000963382877
      11        0.000345851655    -0.000320087808     0.000649208963
      12       -0.000000953512     0.000006233757    -0.000003723114
      13        0.000017664585     0.000006551046     0.000006035840
      14       -0.000346915446     0.000343434795    -0.000632517482
      15        0.000004901848     0.000000875952     0.000012571358
      16       -0.000011685278    -0.000001732401    -0.000005570330
      17        0.000008219741     0.000001445449    -0.000007228406
      18       -0.000005644356    -0.000005179627    -0.000009332315

  **** Optimization is complete! (in 4 steps) ****
    Final optimized geometry and variables:
    Molecular point group: c1

    Geometry (in Angstrom), charge = 0, multiplicity = 1:

    H           -3.125851759891    -1.406141174527    -0.125756760307
    O           -2.302238405318    -1.076297636127    -0.433552299412
    C           -1.989782787189     0.127794884032     0.217746506179
    C           -0.639145911369     0.617370867130    -0.267087430143
    H           -2.746475092756     0.878622501594     0.004410699813
    H           -1.965613847202    -0.018621440850     1.295873116750
    C            0.520878788197    -0.307742153106     0.094097960738
    H           -0.686089458621     0.743040987998    -1.344495022777
    H           -0.465983511567     1.603249677811     0.157517865279
    C            1.891063715706     0.214473128009    -0.385023638235
    H            0.328294929031    -1.289950261918    -0.316460942722
    H            0.540723955243    -0.434906791908     1.173416611447
    C            2.844695055410     0.563578689017     0.753931245796
    H            2.360532813367    -0.520347258306    -1.029696711370
    H            1.747646094042     1.095672452968    -1.002912568364
    H            3.058621636816    -0.307343681508     1.364388099132
    H            3.787450753125     0.943970156955     0.376729786937
    H            2.417258438409     1.321921830345     1.402341386395

  Mulliken Charges: (a.u.)
   Center  Symbol    Alpha    Beta     Spin     Total
       1     H     0.39575  0.39575  0.00000  0.20849
       2     O     4.19865  4.19865  0.00000 -0.39730
       3     C     2.97434  2.97434  0.00000  0.05131
       4     C     3.09071  3.09071  0.00000 -0.18142
       5     H     0.46558  0.46558  0.00000  0.06884
       6     H     0.47357  0.47357  0.00000  0.05285
       7     C     3.09523  3.09523  0.00000 -0.19046
       8     H     0.45134  0.45134  0.00000  0.09732
       9     H     0.45381  0.45381  0.00000  0.09238
      10     C     3.08882  3.08882  0.00000 -0.17765
      11     H     0.43951  0.43951  0.00000  0.12099
      12     H     0.45935  0.45935  0.00000  0.08130
      13     C     3.14725  3.14725  0.00000 -0.29450
      14     H     0.44897  0.44897  0.00000  0.10206
      15     H     0.45589  0.45589  0.00000  0.08821
      16     H     0.45464  0.45464  0.00000  0.09073
      17     H     0.45001  0.45001  0.00000  0.09999
      18     H     0.45657  0.45657  0.00000  0.08686

   Total alpha = 25.00000, Total beta = 25.00000, Total charge = -0.00000
