  ==> Input File <==

--------------------------------------------------------------------------
set {
	reference rhf
	basis cc-pvtz
}

set_num_threads( 4 )
memory 2 gb

molecule MOL {
0 1

H	 -2.816458	 -0.841657	 -0.064679
N	 -1.878861	 -0.711874	 0.250184
C	 -1.341419	 0.551458	 -0.220231
H	 -1.333674	 -1.468530	 -0.105118
C	 0.082190	 0.731516	 0.254705
H	 -1.357065	 0.652078	 -1.304747
H	 -1.939897	 1.357530	 0.189797
O	 0.112672	 0.604256	 1.644159
H	 0.722693	 -0.020545	 -0.203914
H	 0.444434	 1.713675	 -0.040374
C	 1.360766	 0.817843	 2.215002
H	 1.263722	 0.690861	 3.283573
H	 2.094873	 0.105674	 1.844060
H	 1.723981	 1.822734	 2.012933

	symmetry c1
}
set optking {
	frozen_dihedral = ("
		8 5 3 6
	")
}

ee = optimize('scf')
oeprop('DIPOLE', 'QUADRUPOLE', 'MULLIKEN_CHARGES')
f=open( 'psi4out.xyz', 'w' )
f.write( "14  " )
f.write( str(ee) + "\n" )
f.write( MOL.save_string_xyz() )
f.close()
--------------------------------------------------------------------------

    Molecular point group: c1
  Charge       = 0
  Multiplicity = 1
  Basis Set: CC-PVTZ
  Basis Set:
  @DF-RHF Final Energy:  -248.21987687804014
    Total Energy =                       -248.2198768780400542
    Molecular point group: c1
  Basis Set: CC-PVTZ
  Basis Set:
  Basis Set: CC-PVTZ
  Basis Set:
  @DF-RHF Final Energy:  -248.22045723392935
    Total Energy =                       -248.2204572339292667
  Basis Set: CC-PVTZ
  Basis Set:
  Basis Set: CC-PVTZ
  Basis Set:
  @DF-RHF Final Energy:  -248.22055139008927
    Total Energy =                       -248.2205513900894402
  Basis Set: CC-PVTZ
  Basis Set:
  Basis Set: CC-PVTZ
  Basis Set:
  @DF-RHF Final Energy:  -248.22055532312197
    Total Energy =                       -248.2205553231218573
  Basis Set: CC-PVTZ
  Basis Set:
  Charge       = 0
  Multiplicity = 1
  Basis Set: CC-PVTZ
  Basis Set:

    Orbital Energies (a.u.)
    -----------------------

    Doubly Occupied:

       1A    -20.544334     2A    -15.524454     3A    -11.266254
       4A    -11.259912     5A    -11.242183     6A     -1.381322
       7A     -1.176657     8A     -0.999844     9A     -0.905559
      10A     -0.817415    11A     -0.684563    12A     -0.666605
      13A     -0.652507    14A     -0.616920    15A     -0.587915
      16A     -0.567128    17A     -0.517733    18A     -0.501954
      19A     -0.465368    20A     -0.415585    21A     -0.381977

  @DF-RHF Final Energy:  -248.22055625909320

   => Energetics <=

    Nuclear Repulsion Energy =            193.9754785644431649
    One-Electron Energy =                -722.0396875153929841
    Two-Electron Energy =                 279.8436526918567324
    DFT Exchange-Correlation Energy =       0.0000000000000000
    Empirical Dispersion Energy =           0.0000000000000000
    PCM Polarization Energy =               0.0000000000000000
    EFP Energy =                            0.0000000000000000
    Total Energy =                       -248.2205562590930867
    Molecular point group: c1
  Basis Set: CC-PVTZ
  Basis Set:

  -Total Gradient:
     Atom            X                  Y                   Z
    ------   -----------------  -----------------  -----------------
       1       -0.000011430117    -0.000015752190    -0.000017974825
       2        0.000017033767     0.000036463533    -0.000007598509
       3       -0.000481899746     0.003043707313     0.000286227046
       4        0.000015475959    -0.000008897487     0.000018963495
       5       -0.000547021118     0.002798720740     0.000317204072
       6        0.000538763286    -0.003270006727    -0.000267615803
       7       -0.000001277814     0.000038741909    -0.000008106973
       8        0.000474550636    -0.002645378169    -0.000331773312
       9       -0.000004191947    -0.000012516191    -0.000006816005
      10        0.000005634959     0.000037681647    -0.000001443399
      11        0.000013528882    -0.000007593725     0.000021908463
      12       -0.000007423740     0.000004788329    -0.000006763917
      13       -0.000005588042    -0.000000813344     0.000000506359
      14       -0.000006154966     0.000000854365     0.000003283309

  **** Optimization is complete! (in 5 steps) ****
    Final optimized geometry and variables:
    Molecular point group: c1

    Geometry (in Angstrom), charge = 0, multiplicity = 1:

    H           -2.502310777916    -1.239964622570    -0.967755598804
    N           -1.573508751760    -1.123136742197    -0.623443665650
    C           -1.021642402469     0.150440321970    -1.048033775552
    H           -1.028449073828    -1.885757030808    -0.967608747179
    C            0.392923652229     0.355580417483    -0.544632340840
    H           -0.983109123419     0.243905217553    -2.134524335568
    H           -1.654574565886     0.941616164566    -0.665401976293
    O            0.448317805811     0.254772356447     0.837759656969
    H            1.050881533405    -0.389547473145    -0.997327906660
    H            0.744620119036     1.333211814601    -0.873901870810
    C            1.716348132711     0.429179452159     1.372947186563
    H            1.639279488285     0.328137468113     2.445689644531
    H            2.413422491101    -0.319449488590     1.001035738957
    H            2.117776013593     1.414412598563     1.142441667670

  Mulliken Charges: (a.u.)
   Center  Symbol    Alpha    Beta     Spin     Total
       1     H     0.43006  0.43006  0.00000  0.13987
       2     N     3.67950  3.67950  0.00000 -0.35900
       3     C     3.02485  3.02485  0.00000 -0.04969
       4     H     0.43400  0.43400  0.00000  0.13200
       5     C     2.96945  2.96945  0.00000  0.06110
       6     H     0.47021  0.47021  0.00000  0.05958
       7     H     0.45502  0.45502  0.00000  0.08997
       8     O     4.16304  4.16304  0.00000 -0.32607
       9     H     0.47860  0.47860  0.00000  0.04279
      10     H     0.47034  0.47034  0.00000  0.05932
      11     C     3.03177  3.03177  0.00000 -0.06355
      12     H     0.44605  0.44605  0.00000  0.10790
      13     H     0.47360  0.47360  0.00000  0.05280
      14     H     0.47351  0.47351  0.00000  0.05299

   Total alpha = 21.00000, Total beta = 21.00000, Total charge = -0.00000
