  ==> Input File <==

--------------------------------------------------------------------------
set {
	reference rhf
	basis 6-31G*
}

set_num_threads( 4 )
memory 2 gb

molecule MOL {
0 1

H	 -3.261111	 -0.295142	 1.469456
C	 -3.306842	 -0.277400	 0.373456
C	 -2.660244	 0.921717	 -0.272021
O	 -3.838538	 -1.161155	 -0.216482
C	 -1.220012	 1.144545	 0.209990
H	 -2.705793	 0.797307	 -1.347733
H	 -3.263782	 1.790044	 -0.010477
C	 -0.252658	 0.041456	 -0.226725
H	 -0.873521	 2.100229	 -0.171974
H	 -1.211708	 1.231594	 1.295398
C	 1.180775	 0.282413	 0.250794
H	 -0.266029	 -0.034465	 -1.312038
H	 -0.597733	 -0.921000	 0.146291
C	 2.148627	 -0.814315	 -0.201312
H	 1.516199	 1.249228	 -0.115937
H	 1.192670	 0.346017	 1.338083
C	 3.580890	 -0.659131	 0.322722
H	 2.166869	 -0.852443	 -1.289387
H	 1.762857	 -1.776509	 0.128956
C	 3.968018	 -1.653489	 1.418625
H	 3.696386	 0.349518	 0.711613
H	 4.279390	 -0.745476	 -0.507076
H	 3.276355	 -1.600809	 2.255342
H	 3.972166	 -2.676185	 1.056617
H	 4.962323	 -1.439492	 1.798833

	symmetry c1
}
set optking {
	frozen_dihedral = ("
		20 17 14 18
	")
}

ee = optimize('scf')
oeprop('DIPOLE', 'QUADRUPOLE', 'MULLIKEN_CHARGES')
f=open( 'psi4out.xyz', 'w' )
f.write( "25  " )
f.write( str(ee) + "\n" )
f.write( MOL.save_string_xyz() )
f.close()
--------------------------------------------------------------------------

    Molecular point group: c1
  Charge       = 0
  Multiplicity = 1
  Basis Set: 6-31G*
  Basis Set:
  @DF-RHF Final Energy:  -387.11809574264657
    Total Energy =                       -387.1180957426465739
    Molecular point group: c1
  Basis Set: 6-31G*
  Basis Set:
  Basis Set: 6-31G*
  Basis Set:
  @DF-RHF Final Energy:  -387.11828101463220
    Total Energy =                       -387.1182810146318616
  Basis Set: 6-31G*
  Basis Set:
  Basis Set: 6-31G*
  Basis Set:
  @DF-RHF Final Energy:  -387.11842141747633
    Total Energy =                       -387.1184214174767249
  Basis Set: 6-31G*
  Basis Set:
  Basis Set: 6-31G*
  Basis Set:
  @DF-RHF Final Energy:  -387.11852697762879
    Total Energy =                       -387.1185269776290170
  Basis Set: 6-31G*
  Basis Set:
  @DF-RHF Final Energy:  -387.11854934867563
    Total Energy =                       -387.1185493486758560
  Basis Set: 6-31G*
  Basis Set:
  @DF-RHF Final Energy:  -387.11855787322395
    Total Energy =                       -387.1185578732237218
  Basis Set: 6-31G*
  Basis Set:
  Basis Set: 6-31G*
  Basis Set:
  @DF-RHF Final Energy:  -387.11855585204142
    Total Energy =                       -387.1185558520415952
  Basis Set: 6-31G*
  Basis Set:
  Basis Set: 6-31G*
  Basis Set:
  @DF-RHF Final Energy:  -387.11855850859746
    Total Energy =                       -387.1185585085972889
  Basis Set: 6-31G*
  Basis Set:
  Charge       = 0
  Multiplicity = 1
  Basis Set: 6-31G*
  Basis Set:

    Orbital Energies (a.u.)
    -----------------------

    Doubly Occupied:

       1A    -20.562063     2A    -11.326215     3A    -11.235459
       4A    -11.234744     5A    -11.223875     6A    -11.220808
       7A    -11.217411     8A    -11.216401     9A    -11.210800
      10A     -1.402001    11A     -1.103607    12A     -1.068455
      13A     -1.014325    14A     -0.942940    15A     -0.869792
      16A     -0.817119    17A     -0.791908    18A     -0.787009
      19A     -0.664174    20A     -0.662218    21A     -0.631374
      22A     -0.622851    23A     -0.604174    24A     -0.595432
      25A     -0.567717    26A     -0.556122    27A     -0.532455
      28A     -0.521153    29A     -0.512746    30A     -0.496868
      31A     -0.485951    32A     -0.481326    33A     -0.467239
      34A     -0.457319    35A     -0.439790    36A     -0.409589

  @DF-RHF Final Energy:  -387.11855902681214

   => Energetics <=

    Nuclear Repulsion Energy =            437.3337039938071484
    One-Electron Energy =               -1390.9976710317482684
    Two-Electron Energy =                 566.5454080111284156
    DFT Exchange-Correlation Energy =       0.0000000000000000
    Empirical Dispersion Energy =           0.0000000000000000
    PCM Polarization Energy =               0.0000000000000000
    EFP Energy =                            0.0000000000000000
    Total Energy =                       -387.1185590268127044
    Molecular point group: c1
  Basis Set: 6-31G*
  Basis Set:

  -Total Gradient:
     Atom            X                  Y                   Z
    ------   -----------------  -----------------  -----------------
       1       -0.000011108933     0.000004520231    -0.000000529681
       2        0.000012428457    -0.000013165656    -0.000008308431
       3       -0.000023006420     0.000012142538     0.000008059886
       4       -0.000011541697     0.000001394490     0.000004405428
       5        0.000006971464    -0.000001987499     0.000009920167
       6        0.000002969099     0.000001583726    -0.000000143011
       7       -0.000001419082    -0.000014236232     0.000002006776
       8        0.000015000623     0.000012629097    -0.000003899985
       9        0.000012829966    -0.000004310125    -0.000004083780
      10       -0.000003076048     0.000006920631    -0.000002099267
      11        0.000016437310     0.000006811540     0.000010729405
      12        0.000003439005    -0.000002630073    -0.000002040379
      13        0.000002012904     0.000002626562     0.000001130520
      14       -0.000098379286     0.002533076740    -0.000643598046
      15       -0.000004767361     0.000009276609    -0.000000191834
      16       -0.000007930788     0.000002505915     0.000000183699
      17       -0.000754793405     0.000991819856     0.001709434363
      18        0.000286991247    -0.002407639531     0.000119003217
      19        0.000022483553    -0.000016300201     0.000011221817
      20        0.000572411957    -0.001139185202    -0.001202000568
      21       -0.000025367732    -0.000000362828    -0.000002672271
      22       -0.000006129134     0.000019491202    -0.000014615321
      23        0.000008129811     0.000004787216     0.000015633070
      24       -0.000016109754    -0.000003133091     0.000002202559
      25        0.000001524233    -0.000006635914    -0.000009748333

  **** Optimization is complete! (in 9 steps) ****
    Final optimized geometry and variables:
    Molecular point group: c1

    Geometry (in Angstrom), charge = 0, multiplicity = 1:

    H           -3.233490717743    -0.042649833306     1.270336009145
    C           -3.271542653904    -0.015133897863     0.174154011622
    C           -2.613639837467     1.185883044731    -0.456361065790
    O           -3.809856166548    -0.887659290728    -0.426480357244
    C           -1.173161527483     1.392671229175     0.032365824569
    H           -2.656470944445     1.073010067578    -1.533507109123
    H           -3.211515780760     2.055859468279    -0.187744092601
    C           -0.211438406451     0.289351620516    -0.416383919724
    H           -0.819143108085     2.351384466960    -0.335329235491
    H           -1.167375692148     1.464641409918     1.118722917953
    C            1.222994565216     0.518224769009     0.061286360379
    H           -0.225875729592     0.225195230685    -1.502506839579
    H           -0.560664922418    -0.675547955290    -0.053323235729
    C            2.193329604315    -0.572464640783    -0.396883343833
    H            1.573090493551     1.483846191234    -0.299289291874
    H            1.236570591249     0.576737937592     1.148780269451
    C            3.632302406272    -0.381932179736     0.130012789096
    H            2.196605810138    -0.624096674270    -1.482542496758
    H            1.816126223865    -1.538215058748    -0.066345748210
    C            4.009304368120    -1.369444880056     1.235299877421
    H            3.758041392424     0.634043152322     0.495797212277
    H            4.339626434782    -0.492639140082    -0.686996410836
    H            3.334121169326    -1.289965590799     2.083336625258
    H            3.963787401586    -2.392344909371     0.873413635119
    H            5.016914046305    -1.189757624522     1.597731036227

  Mulliken Charges: (a.u.)
   Center  Symbol    Alpha    Beta     Spin     Total
       1     H     0.43261  0.43261  0.00000  0.13478
       2     C     2.83084  2.83084  0.00000  0.33833
       3     C     3.20813  3.20813  0.00000 -0.41626
       4     O     4.23774  4.23774  0.00000 -0.47549
       5     C     3.16659  3.16659  0.00000 -0.33319
       6     H     0.39970  0.39970  0.00000  0.20060
       7     H     0.40660  0.40660  0.00000  0.18680
       8     C     3.15565  3.15565  0.00000 -0.31130
       9     H     0.41278  0.41278  0.00000  0.17445
      10     H     0.41962  0.41962  0.00000  0.16075
      11     C     3.15384  3.15384  0.00000 -0.30769
      12     H     0.41799  0.41799  0.00000  0.16402
      13     H     0.41822  0.41822  0.00000  0.16356
      14     C     3.15589  3.15589  0.00000 -0.31179
      15     H     0.42228  0.42228  0.00000  0.15544
      16     H     0.42318  0.42318  0.00000  0.15364
      17     C     3.15559  3.15559  0.00000 -0.31117
      18     H     0.41966  0.41966  0.00000  0.16068
      19     H     0.42008  0.42008  0.00000  0.15984
      20     C     3.23972  3.23972  0.00000 -0.47944
      21     H     0.42073  0.42073  0.00000  0.15855
      22     H     0.41953  0.41953  0.00000  0.16093
      23     H     0.42262  0.42262  0.00000  0.15476
      24     H     0.42043  0.42043  0.00000  0.15913
      25     H     0.41997  0.41997  0.00000  0.16006

   Total alpha = 36.00000, Total beta = 36.00000, Total charge =  0.00000
