  ==> Input File <==

--------------------------------------------------------------------------
set {
	reference rhf
	basis 6-31G*
}

set_num_threads( 4 )
memory 2 gb

molecule MOL {
0 1

H	 2.591676	 2.013956	 0.335017
O	 3.341076	 1.666752	 -0.126416
C	 3.569581	 0.339145	 0.272707
C	 2.539767	 -0.640285	 -0.279495
H	 4.553106	 0.084646	 -0.100901
H	 3.608576	 0.269204	 1.359154
C	 1.577429	 -0.023373	 -1.297431
H	 3.066912	 -1.474688	 -0.734749
H	 1.971618	 -1.042642	 0.557573
C	 0.522731	 -1.017332	 -1.791876
H	 2.145720	 0.353348	 -2.143298
H	 1.076865	 0.834730	 -0.848617
C	 -0.519287	 -0.427415	 -2.749235
H	 1.020218	 -1.856721	 -2.274349
H	 0.003392	 -1.428707	 -0.928882
C	 0.032364	 0.021029	 -4.105353
H	 -1.290013	 -1.176386	 -2.919056
H	 -1.016211	 0.412617	 -2.266275
C	 -1.059289	 0.503473	 -5.062943
H	 0.571951	 -0.805998	 -4.564682
H	 0.757591	 0.819602	 -3.968860
C	 -0.510651	 0.957726	 -6.415096
H	 -1.781687	 -0.295230	 -5.216901
H	 -1.605837	 1.323477	 -4.601679
H	 0.014061	 0.149535	 -6.916821
H	 -1.308242	 1.291656	 -7.071582
H	 0.187974	 1.781550	 -6.298477

	symmetry c1
}
set optking {
	frozen_dihedral = ("
		8 4 3 2
	")
}

ee = optimize('scf')
oeprop('DIPOLE', 'QUADRUPOLE', 'MULLIKEN_CHARGES')
f=open( 'psi4out.xyz', 'w' )
f.write( "27  " )
f.write( str(ee) + "\n" )
f.write( MOL.save_string_xyz() )
f.close()
--------------------------------------------------------------------------

    Molecular point group: c1
  Charge       = 0
  Multiplicity = 1
  Basis Set: 6-31G*
  Basis Set:
  @DF-RHF Final Energy:  -388.27315922886720
    Total Energy =                       -388.2731592288666889
    Molecular point group: c1
  Basis Set: 6-31G*
  Basis Set:
  Basis Set: 6-31G*
  Basis Set:
  @DF-RHF Final Energy:  -388.27380264671211
    Total Energy =                       -388.2738026467123973
  Basis Set: 6-31G*
  Basis Set:
  Basis Set: 6-31G*
  Basis Set:
  @DF-RHF Final Energy:  -388.27451397913399
    Total Energy =                       -388.2745139791343263
  Basis Set: 6-31G*
  Basis Set:
  Basis Set: 6-31G*
  Basis Set:
  @DF-RHF Final Energy:  -388.27450374578683
    Total Energy =                       -388.2745037457864328
  Basis Set: 6-31G*
  Basis Set:
  Basis Set: 6-31G*
  Basis Set:
  @DF-RHF Final Energy:  -388.27456267590458
    Total Energy =                       -388.2745626759043489
  Basis Set: 6-31G*
  Basis Set:
  Basis Set: 6-31G*
  Basis Set:
  @DF-RHF Final Energy:  -388.27456118186200
    Total Energy =                       -388.2745611818622820
  Basis Set: 6-31G*
  Basis Set:
  Charge       = 0
  Multiplicity = 1
  Basis Set: 6-31G*
  Basis Set:

    Orbital Energies (a.u.)
    -----------------------

    Doubly Occupied:

       1A    -20.553570     2A    -11.267967     3A    -11.215986
       4A    -11.213214     5A    -11.212805     6A    -11.212618
       7A    -11.212006     8A    -11.210060     9A    -11.206324
      10A     -1.359552    11A     -1.090724    12A     -1.056497
      13A     -1.006775    14A     -0.945057    15A     -0.886137
      16A     -0.818488    17A     -0.798497    18A     -0.773406
      19A     -0.688509    20A     -0.644929    21A     -0.638254
      22A     -0.613650    23A     -0.601308    24A     -0.585117
      25A     -0.570790    26A     -0.556598    27A     -0.539962
      28A     -0.522755    29A     -0.499028    30A     -0.495978
      31A     -0.477438    32A     -0.468906    33A     -0.462455
      34A     -0.456803    35A     -0.447613    36A     -0.440590
      37A     -0.422077

  @DF-RHF Final Energy:  -388.27456144755848

   => Energetics <=

    Nuclear Repulsion Energy =            460.8532171520005818
    One-Electron Energy =               -1439.9106696727353665
    Two-Electron Energy =                 590.7828910731752785
    DFT Exchange-Correlation Energy =       0.0000000000000000
    Empirical Dispersion Energy =           0.0000000000000000
    PCM Polarization Energy =               0.0000000000000000
    EFP Energy =                            0.0000000000000000
    Total Energy =                       -388.2745614475595630
    Molecular point group: c1
  Basis Set: 6-31G*
  Basis Set:

  -Total Gradient:
     Atom            X                  Y                   Z
    ------   -----------------  -----------------  -----------------
       1        0.000021609846     0.000071575636    -0.000027169143
       2        0.001310862428    -0.000416719756    -0.002182190546
       3       -0.001967776490     0.000970371111     0.002190030529
       4        0.000603803507    -0.001988106137     0.002860151866
       5        0.000036111561    -0.000132822543     0.000050252031
       6       -0.000055519372    -0.000066539974     0.000003807716
       7       -0.000031584880     0.000001782898     0.000027156920
       8        0.000007953675     0.001598672283    -0.002944035019
       9       -0.000007863554    -0.000020458445     0.000071663360
      10       -0.000003024024     0.000002937368     0.000021516591
      11        0.000033989395     0.000061850867    -0.000132172641
      12       -0.000016628201    -0.000093645375    -0.000016658593
      13       -0.000015459893     0.000007416011     0.000028026610
      14       -0.000038929095    -0.000024095831     0.000001025116
      15        0.000053673283     0.000036726414     0.000047278625
      16        0.000018042642    -0.000031190111    -0.000005718584
      17        0.000061280671    -0.000019846091    -0.000011732804
      18       -0.000065460860    -0.000033511993    -0.000012343927
      19        0.000011071554     0.000059090276     0.000007471788
      20       -0.000034887017     0.000000391844    -0.000012958036
      21        0.000070446437     0.000010576969     0.000026384942
      22       -0.000000390182     0.000007092808     0.000003650424
      23        0.000018327541    -0.000002307293     0.000005141959
      24       -0.000010205311     0.000001126405    -0.000000532121
      25        0.000001039486    -0.000002252393     0.000001956823
      26        0.000001734131    -0.000001372815     0.000002629073
      27       -0.000002217275     0.000003257866    -0.000002632964

  **** Optimization is complete! (in 7 steps) ****
    Final optimized geometry and variables:
    Molecular point group: c1

    Geometry (in Angstrom), charge = 0, multiplicity = 1:

    H            1.629493418176     1.890855096311     2.655963930924
    O            2.359964429828     1.488759339361     2.207854362503
    C            2.496697335225     0.152731476758     2.621231783128
    C            1.380252792097    -0.801372912001     2.132502893527
    H            3.447463723062    -0.162924872963     2.213558255717
    H            2.585661706873     0.101343232490     3.703632967016
    C            0.436630179743    -0.200327528911     1.084896655399
    H            1.848925383118    -1.675023553758     1.687311685211
    H            0.794564627706    -1.157762558796     2.976442885576
    C           -0.578811360477    -1.226054382060     0.573570932875
    H            1.022649650179     0.196132120497     0.263613363605
    H           -0.101160218680     0.645047687896     1.508706105767
    C           -1.625372575654    -0.662069114590    -0.394549180446
    H           -0.050948336420    -2.047417521721     0.091409506716
    H           -1.098019165892    -1.660627720113     1.425787070465
    C           -1.064678592773    -0.169469425716    -1.731406485792
    H           -2.363360463208    -1.437119839878    -0.591478883054
    H           -2.163427755806     0.150367207130     0.091647633415
    C           -2.153790066290     0.301963058782    -2.697318146966
    H           -0.494688063441    -0.971543260242    -2.198532427899
    H           -0.364775794961     0.645462708508    -1.565304179808
    C           -1.596085191422     0.798392353225    -4.030818517809
    H           -2.851626504882    -0.512710157284    -2.879186167618
    H           -2.729915165849     1.097530497075    -2.229239016736
    H           -1.041597921795     0.014907999098    -4.539761157344
    H           -2.391769160081     1.124119704811    -4.693834499044
    H           -0.921971372055     1.637863208662    -3.885821324993

  Mulliken Charges: (a.u.)
   Center  Symbol    Alpha    Beta     Spin     Total
       1     H     0.28207  0.28207  0.00000  0.43586
       2     O     4.36848  4.36848  0.00000 -0.73696
       3     C     2.99380  2.99380  0.00000  0.01240
       4     C     3.18366  3.18366  0.00000 -0.36732
       5     H     0.41461  0.41461  0.00000  0.17078
       6     H     0.42814  0.42814  0.00000  0.14372
       7     C     3.14717  3.14717  0.00000 -0.29434
       8     H     0.41799  0.41799  0.00000  0.16401
       9     H     0.42173  0.42173  0.00000  0.15654
      10     C     3.15422  3.15422  0.00000 -0.30845
      11     H     0.40981  0.40981  0.00000  0.18039
      12     H     0.43170  0.43170  0.00000  0.13660
      13     C     3.15276  3.15276  0.00000 -0.30552
      14     H     0.42398  0.42398  0.00000  0.15203
      15     H     0.42370  0.42370  0.00000  0.15260
      16     C     3.15318  3.15318  0.00000 -0.30637
      17     H     0.42244  0.42244  0.00000  0.15513
      18     H     0.42494  0.42494  0.00000  0.15012
      19     C     3.15104  3.15104  0.00000 -0.30207
      20     H     0.42485  0.42485  0.00000  0.15030
      21     H     0.42004  0.42004  0.00000  0.15992
      22     C     3.23915  3.23915  0.00000 -0.47830
      23     H     0.42372  0.42372  0.00000  0.15256
      24     H     0.42354  0.42354  0.00000  0.15292
      25     H     0.42201  0.42201  0.00000  0.15599
      26     H     0.41992  0.41992  0.00000  0.16017
      27     H     0.42136  0.42136  0.00000  0.15729

   Total alpha = 37.00000, Total beta = 37.00000, Total charge = -0.00000
