  ==> Input File <==

--------------------------------------------------------------------------
set {
	reference rhf
	basis 6-31G*
}

set_num_threads( 4 )
memory 2 gb

molecule MOL {
0 1

H	 2.176868	 -0.646004	 -0.217325
O	 1.337496	 -0.537251	 0.205931
C	 0.702312	 0.627605	 -0.264544
C	 -0.714990	 0.596302	 0.266387
H	 0.682322	 0.642550	 -1.350929
H	 1.215941	 1.520383	 0.085680
O	 -1.405996	 -0.526611	 -0.195820
H	 -1.257453	 1.468809	 -0.075599
H	 -0.688972	 0.618407	 1.353696
H	 -2.320071	 -0.417816	 0.033623

	symmetry c1
}
set optking {
	frozen_dihedral = ("
		10 7 4 3
	")
}

ee = optimize('scf')
oeprop('DIPOLE', 'QUADRUPOLE', 'MULLIKEN_CHARGES')
f=open( 'psi4out.xyz', 'w' )
f.write( "10  " )
f.write( str(ee) + "\n" )
f.write( MOL.save_string_xyz() )
f.close()
--------------------------------------------------------------------------

    Molecular point group: c1
  Charge       = 0
  Multiplicity = 1
  Basis Set: 6-31G*
  Basis Set:
  @DF-RHF Final Energy:  -228.91701440237171
    Total Energy =                       -228.9170144023716773
    Molecular point group: c1
  Basis Set: 6-31G*
  Basis Set:
  Basis Set: 6-31G*
  Basis Set:
  @DF-RHF Final Energy:  -228.91882025934635
    Total Energy =                       -228.9188202593464041
  Basis Set: 6-31G*
  Basis Set:
  Basis Set: 6-31G*
  Basis Set:
  @DF-RHF Final Energy:  -228.91904205534647
    Total Energy =                       -228.9190420553464378
  Basis Set: 6-31G*
  Basis Set:
  Basis Set: 6-31G*
  Basis Set:
  @DF-RHF Final Energy:  -228.91907891530263
    Total Energy =                       -228.9190789153026344
  Basis Set: 6-31G*
  Basis Set:
  Basis Set: 6-31G*
  Basis Set:
  @DF-RHF Final Energy:  -228.91908359858238
    Total Energy =                       -228.9190835985822048
  Basis Set: 6-31G*
  Basis Set:
  Charge       = 0
  Multiplicity = 1
  Basis Set: 6-31G*
  Basis Set:

    Orbital Energies (a.u.)
    -----------------------

    Doubly Occupied:

       1A    -20.552536     2A    -20.551971     3A    -11.270234
       4A    -11.269566     5A     -1.370562     6A     -1.350161
       7A     -1.002016     8A     -0.830199     9A     -0.715697
      10A     -0.704580    11A     -0.615809    12A     -0.600593
      13A     -0.584047    14A     -0.522792    15A     -0.475652
      16A     -0.443027    17A     -0.435135

  @DF-RHF Final Energy:  -228.91908458151926

   => Energetics <=

    Nuclear Repulsion Energy =            133.3875077548416925
    One-Electron Energy =                -578.0240302840630875
    Two-Electron Energy =                 215.7174379477021091
    DFT Exchange-Correlation Energy =       0.0000000000000000
    Empirical Dispersion Energy =           0.0000000000000000
    PCM Polarization Energy =               0.0000000000000000
    EFP Energy =                            0.0000000000000000
    Total Energy =                       -228.9190845815192858
    Molecular point group: c1
  Basis Set: 6-31G*
  Basis Set:

  -Total Gradient:
     Atom            X                  Y                   Z
    ------   -----------------  -----------------  -----------------
       1        0.000012004560     0.000021524356     0.000003493049
       2       -0.000035559359     0.000007043293    -0.000004752351
       3       -0.000194059241     0.000536684339    -0.000695904160
       4        0.000298696895    -0.000535723452     0.000715301794
       5        0.000011632888    -0.000004527612    -0.000024841872
       6        0.000003402493    -0.000027569599    -0.000023899475
       7        0.000155814086    -0.000759299486     0.001243207514
       8       -0.000010519049    -0.000000050170     0.000007676668
       9        0.000004232676     0.000012142015     0.000024567870
      10       -0.000245645950     0.000749776318    -0.001244849037

  **** Optimization is complete! (in 6 steps) ****
    Final optimized geometry and variables:
    Molecular point group: c1

    Geometry (in Angstrom), charge = 0, multiplicity = 1:

    H            2.219066800116    -0.641795379692    -0.203775967741
    O            1.414168700969    -0.511019428128     0.276061001661
    C            0.703151464879     0.561839412617    -0.276180638439
    C           -0.699974886106     0.560739539728     0.283727943108
    H            0.645673398308     0.483780835689    -1.358400931928
    H            1.180304283895     1.508784413701    -0.026936610686
    O           -1.409923473365    -0.514521470536    -0.266645819726
    H           -1.172739453032     1.508023646257     0.027956383509
    H           -0.650894091468     0.487400259297     1.367048226897
    H           -2.326608759839    -0.436470766253    -0.045181333501

  Mulliken Charges: (a.u.)
   Center  Symbol    Alpha    Beta     Spin     Total
       1     H     0.27979  0.27979  0.00000  0.44042
       2     O     4.36579  4.36579  0.00000 -0.73158
       3     C     2.99942  2.99942  0.00000  0.00117
       4     C     3.00032  3.00032  0.00000 -0.00063
       5     H     0.42282  0.42282  0.00000  0.15437
       6     H     0.43189  0.43189  0.00000  0.13621
       7     O     4.36574  4.36574  0.00000 -0.73148
       8     H     0.43315  0.43315  0.00000  0.13371
       9     H     0.42080  0.42080  0.00000  0.15839
      10     H     0.28029  0.28029  0.00000  0.43942

   Total alpha = 17.00000, Total beta = 17.00000, Total charge = -0.00000
