  ==> Input File <==

--------------------------------------------------------------------------
set {
	reference rhf
	basis 6-31G*
}

set_num_threads( 4 )
memory 2 gb

molecule MOL {
0 1

H	 -3.420663	 1.227371	 -1.044276
O	 -3.452007	 0.283848	 -0.965577
C	 -3.181085	 -0.079926	 0.364119
C	 -1.765924	 0.277073	 0.805136
H	 -3.327791	 -1.152017	 0.410903
H	 -3.905698	 0.375695	 1.036898
C	 -0.677594	 -0.417312	 -0.014550
H	 -1.637766	 1.358238	 0.744969
H	 -1.659588	 0.017670	 1.857098
C	 0.738335	 -0.034840	 0.421385
H	 -0.814977	 -0.178223	 -1.064632
H	 -0.802730	 -1.495410	 0.071702
C	 1.822265	 -0.738362	 -0.399735
H	 0.853533	 1.043532	 0.342250
H	 0.871597	 -0.279636	 1.474438
C	 2.493592	 0.139641	 -1.462084
H	 1.395940	 -1.618183	 -0.879170
H	 2.589276	 -1.105651	 0.278946
C	 1.568871	 0.583806	 -2.596992
H	 3.327315	 -0.412907	 -1.888565
H	 2.924971	 1.016651	 -0.983577
H	 1.112831	 -0.272772	 -3.086320
H	 2.121251	 1.137711	 -3.349921
H	 0.769831	 1.226440	 -2.242424

	symmetry c1
}
set optking {
	frozen_dihedral = ("
		17 13 10 7
	")
}

ee = optimize('scf')
oeprop('DIPOLE', 'QUADRUPOLE', 'MULLIKEN_CHARGES')
f=open( 'psi4out.xyz', 'w' )
f.write( "24  " )
f.write( str(ee) + "\n" )
f.write( MOL.save_string_xyz() )
f.close()
--------------------------------------------------------------------------

    Molecular point group: c1
  Charge       = 0
  Multiplicity = 1
  Basis Set: 6-31G*
  Basis Set:
  @DF-RHF Final Energy:  -349.24260212450901
    Total Energy =                       -349.2426021245092898
    Molecular point group: c1
  Basis Set: 6-31G*
  Basis Set:
  Basis Set: 6-31G*
  Basis Set:
  @DF-RHF Final Energy:  -349.24286660596363
    Total Energy =                       -349.2428666059636271
  Basis Set: 6-31G*
  Basis Set:
  Basis Set: 6-31G*
  Basis Set:
  @DF-RHF Final Energy:  -349.24299924213091
    Total Energy =                       -349.2429992421308498
  Basis Set: 6-31G*
  Basis Set:
  Basis Set: 6-31G*
  Basis Set:
  @DF-RHF Final Energy:  -349.24300158635538
    Total Energy =                       -349.2430015863554900
  Basis Set: 6-31G*
  Basis Set:
  Basis Set: 6-31G*
  Basis Set:
  @DF-RHF Final Energy:  -349.24301062742444
    Total Energy =                       -349.2430106274245531
  Basis Set: 6-31G*
  Basis Set:
  Basis Set: 6-31G*
  Basis Set:
  @DF-RHF Final Energy:  -349.24301196589079
    Total Energy =                       -349.2430119658911281
  Basis Set: 6-31G*
  Basis Set:
  Charge       = 0
  Multiplicity = 1
  Basis Set: 6-31G*
  Basis Set:

    Orbital Energies (a.u.)
    -----------------------

    Doubly Occupied:

       1A    -20.553570     2A    -11.267672     3A    -11.217186
       4A    -11.213760     5A    -11.212709     6A    -11.211517
       7A    -11.210721     8A    -11.206557     9A     -1.360136
      10A     -1.087160    11A     -1.046857    12A     -0.983525
      13A     -0.917582    14A     -0.849732    15A     -0.801143
      16A     -0.774886    17A     -0.679340    18A     -0.653052
      19A     -0.624196    20A     -0.615544    21A     -0.599215
      22A     -0.581691    23A     -0.562369    24A     -0.532656
      25A     -0.524610    26A     -0.508777    27A     -0.492731
      28A     -0.478493    29A     -0.467446    30A     -0.459730
      31A     -0.453834    32A     -0.443904    33A     -0.418721

  @DF-RHF Final Energy:  -349.24301196758017

   => Energetics <=

    Nuclear Repulsion Energy =            392.5508610964121772
    One-Electron Energy =               -1251.5656948726323208
    Two-Electron Energy =                 509.7718218086400839
    DFT Exchange-Correlation Energy =       0.0000000000000000
    Empirical Dispersion Energy =           0.0000000000000000
    PCM Polarization Energy =               0.0000000000000000
    EFP Energy =                            0.0000000000000000
    Total Energy =                       -349.2430119675800597
    Molecular point group: c1
  Basis Set: 6-31G*
  Basis Set:

  -Total Gradient:
     Atom            X                  Y                   Z
    ------   -----------------  -----------------  -----------------
       1       -0.000000919308     0.000002127976    -0.000002426109
       2       -0.000006370152     0.000009188068     0.000004052433
       3        0.000003665132    -0.000018864964    -0.000002509402
       4        0.000000667933     0.000010524465    -0.000005982470
       5       -0.000001185794    -0.000002649021     0.000002087790
       6        0.000002206146     0.000000098225    -0.000001855365
       7        0.000000756929    -0.000462522512     0.000397865827
       8        0.000000333204     0.000002491486    -0.000001335800
       9        0.000000986393     0.000002095842    -0.000002281810
      10       -0.000057680790     0.000754775097    -0.000712242457
      11       -0.000001158650     0.000000322785     0.000003997560
      12       -0.000003306364     0.000000881353     0.000004117406
      13        0.000255366206    -0.000755528469     0.000982619101
      14       -0.000004196839    -0.000002712675     0.000002879183
      15        0.000002783926     0.000001540130     0.000000553186
      16        0.000001977445    -0.000000173044    -0.000000600857
      17       -0.000199124326     0.000460035916    -0.000668121288
      18        0.000004163683    -0.000001267085    -0.000003285558
      19       -0.000002548373     0.000000352987     0.000004651457
      20        0.000000587090     0.000001597195    -0.000002653971
      21       -0.000001929322    -0.000000450150     0.000000914866
      22       -0.000001360212     0.000000003982     0.000003612685
      23        0.000001674628    -0.000003048205    -0.000000869228
      24        0.000004611430     0.000001180619    -0.000003187176

  **** Optimization is complete! (in 7 steps) ****
    Final optimized geometry and variables:
    Molecular point group: c1

    Geometry (in Angstrom), charge = 0, multiplicity = 1:

    H           -3.076688444940     1.169451886868    -0.562995295067
    O           -3.108499658185     0.229360634489    -0.450915370656
    C           -2.821356862168    -0.088263241602     0.887241933423
    C           -1.399681331157     0.279798311924     1.297227955902
    H           -2.969878034833    -1.157567413522     0.973364036149
    H           -3.536210316911     0.392547627398     1.552798716829
    C           -0.324026007943    -0.443400918497     0.486114605715
    H           -1.270363480531     1.358203107000     1.199989840144
    H           -1.279592856919     0.055048734845     2.355783043386
    C            1.098487106288    -0.065391854257     0.910490658117
    H           -0.472564429660    -0.235511643740    -0.567775008029
    H           -0.453626097357    -1.517861739849     0.604581754880
    C            2.209663278182    -0.761381981027     0.095190056455
    H            1.221322552028     1.014429894523     0.849735803454
    H            1.216012457345    -0.315489914534     1.962252678375
    C            2.883848031269     0.118301904203    -0.965681470159
    H            1.804449212227    -1.647364171422    -0.389687377539
    H            2.982432584246    -1.115636805431     0.771632367466
    C            1.960398799047     0.596012078339    -2.086956482561
    H            3.705896567584    -0.442014095798    -1.404957372071
    H            3.332466268727     0.981523451805    -0.478019347162
    H            1.497395878635    -0.243115359430    -2.598513368374
    H            2.515092984959     1.167580765705    -2.824941201105
    H            1.166104316429     1.233619669229    -1.712318028101

  Mulliken Charges: (a.u.)
   Center  Symbol    Alpha    Beta     Spin     Total
       1     H     0.28339  0.28339  0.00000  0.43322
       2     O     4.36825  4.36825  0.00000 -0.73651
       3     C     2.99611  2.99611  0.00000  0.00779
       4     C     3.16961  3.16961  0.00000 -0.33922
       5     H     0.41632  0.41632  0.00000  0.16736
       6     H     0.42821  0.42821  0.00000  0.14358
       7     C     3.15482  3.15482  0.00000 -0.30964
       8     H     0.42844  0.42844  0.00000  0.14311
       9     H     0.42243  0.42243  0.00000  0.15515
      10     C     3.15685  3.15685  0.00000 -0.31370
      11     H     0.40912  0.40912  0.00000  0.18176
      12     H     0.42324  0.42324  0.00000  0.15351
      13     C     3.15549  3.15549  0.00000 -0.31098
      14     H     0.42321  0.42321  0.00000  0.15357
      15     H     0.42209  0.42209  0.00000  0.15582
      16     C     3.15202  3.15202  0.00000 -0.30404
      17     H     0.42124  0.42124  0.00000  0.15752
      18     H     0.42016  0.42016  0.00000  0.15968
      19     C     3.24067  3.24067  0.00000 -0.48134
      20     H     0.42211  0.42211  0.00000  0.15578
      21     H     0.42414  0.42414  0.00000  0.15171
      22     H     0.42048  0.42048  0.00000  0.15904
      23     H     0.41989  0.41989  0.00000  0.16021
      24     H     0.42169  0.42169  0.00000  0.15663

   Total alpha = 33.00000, Total beta = 33.00000, Total charge = -0.00000
