  ==> Input File <==

--------------------------------------------------------------------------
set {
	reference rhf
	basis 6-31G*
}

set_num_threads( 4 )
memory 2 gb

molecule MOL {
0 1

H	 -2.521692	 1.256815	 -1.980505
C	 -1.798753	 0.601867	 -1.534340
C	 -2.076860	 -0.007332	 -0.404944
H	 -0.857112	 0.462089	 -2.031013
O	 -1.180634	 -0.819263	 0.215062
H	 -3.016544	 0.113608	 0.104528
C	 0.051604	 -1.018856	 -0.387932
C	 1.043764	 0.054862	 -0.001873
H	 -0.017620	 -1.041351	 -1.469781
H	 0.437898	 -1.966374	 -0.042284
F	 2.212596	 -0.199467	 -0.571921
F	 0.652529	 1.252447	 -0.405055
F	 1.230877	 0.110694	 1.300533

	symmetry c1
}
set optking {
	frozen_dihedral = ("
		6 3 5 7
	")
}

ee = optimize('scf')
oeprop('DIPOLE', 'QUADRUPOLE', 'MULLIKEN_CHARGES')
f=open( 'psi4out.xyz', 'w' )
f.write( "13  " )
f.write( str(ee) + "\n" )
f.write( MOL.save_string_xyz() )
f.close()
--------------------------------------------------------------------------

    Molecular point group: c1
  Charge       = 0
  Multiplicity = 1
  Basis Set: 6-31G*
  Basis Set:
  @DF-RHF Final Energy:  -527.52626908791353
    Total Energy =                       -527.5262690879135334
    Molecular point group: c1
  Basis Set: 6-31G*
  Basis Set:
  Basis Set: 6-31G*
  Basis Set:
  @DF-RHF Final Energy:  -527.53115013404704
    Total Energy =                       -527.5311501340470386
  Basis Set: 6-31G*
  Basis Set:
  Basis Set: 6-31G*
  Basis Set:
  @DF-RHF Final Energy:  -527.53397089072996
    Total Energy =                       -527.5339708907301883
  Basis Set: 6-31G*
  Basis Set:
  Basis Set: 6-31G*
  Basis Set:
  @DF-RHF Final Energy:  -527.53491104410205
    Total Energy =                       -527.5349110441017046
  Basis Set: 6-31G*
  Basis Set:
  @DF-RHF Final Energy:  -527.53522550652201
    Total Energy =                       -527.5352255065218969
  Basis Set: 6-31G*
  Basis Set:
  @DF-RHF Final Energy:  -527.53530727230623
    Total Energy =                       -527.5353072723062269
  Basis Set: 6-31G*
  Basis Set:
  Basis Set: 6-31G*
  Basis Set:
  @DF-RHF Final Energy:  -527.53533460004951
    Total Energy =                       -527.5353346000496231
  Basis Set: 6-31G*
  Basis Set:
  Basis Set: 6-31G*
  Basis Set:
  @DF-RHF Final Energy:  -527.53533743173671
    Total Energy =                       -527.5353374317363659
  Basis Set: 6-31G*
  Basis Set:
  Charge       = 0
  Multiplicity = 1
  Basis Set: 6-31G*
  Basis Set:

    Orbital Energies (a.u.)
    -----------------------

    Doubly Occupied:

       1A    -26.342337     2A    -26.340491     3A    -26.338522
       4A    -20.612127     5A    -11.502027     6A    -11.316314
       7A    -11.303905     8A    -11.220117     9A     -1.739675
      10A     -1.637441    11A     -1.635898    12A     -1.439181
      13A     -1.080336    14A     -1.023716    15A     -0.932537
      16A     -0.838109    17A     -0.829311    18A     -0.824438
      19A     -0.767770    20A     -0.729653    21A     -0.708121
      22A     -0.699116    23A     -0.676769    24A     -0.657754
      25A     -0.655408    26A     -0.640636    27A     -0.631041
      28A     -0.599823    29A     -0.548061    30A     -0.523539
      31A     -0.518355    32A     -0.356897

  @DF-RHF Final Energy:  -527.53533770631986

   => Energetics <=

    Nuclear Repulsion Energy =            418.3876156563086397
    One-Electron Energy =               -1560.5070541913219131
    Two-Electron Energy =                 614.5841008286932947
    DFT Exchange-Correlation Energy =       0.0000000000000000
    Empirical Dispersion Energy =           0.0000000000000000
    PCM Polarization Energy =               0.0000000000000000
    EFP Energy =                            0.0000000000000000
    Total Energy =                       -527.5353377063198650
    Molecular point group: c1
  Basis Set: 6-31G*
  Basis Set:

  -Total Gradient:
     Atom            X                  Y                   Z
    ------   -----------------  -----------------  -----------------
       1        0.000002655561     0.000003123292    -0.000004049573
       2       -0.000001595577     0.000019428385    -0.000016377023
       3       -0.000434604073    -0.000951578919    -0.000509805190
       4        0.000002219624    -0.000008291336     0.000006449987
       5       -0.000540400186    -0.001238238408    -0.000648941727
       6        0.000539367739     0.001161826726     0.000638244763
       7        0.000457955524     0.001005155325     0.000531641631
       8        0.000011156676    -0.000016878648     0.000032320665
       9       -0.000004659343     0.000003147762    -0.000002684941
      10       -0.000020133104    -0.000001135303     0.000004797165
      11       -0.000004851185     0.000004129954    -0.000003254559
      12       -0.000002010176     0.000015880600    -0.000005388825
      13       -0.000005101470     0.000003430570    -0.000022952374

  **** Optimization is complete! (in 9 steps) ****
    Final optimized geometry and variables:
    Molecular point group: c1

    Geometry (in Angstrom), charge = 0, multiplicity = 1:

    H           -3.023529229947     1.174356934695    -1.830283149238
    C           -2.176868715070     0.619895914919    -1.474485439107
    C           -2.265286589741     0.023904716695    -0.303827218592
    H           -1.303889488591     0.610880191095    -2.097169371871
    O           -1.353769993341    -0.740485421714     0.343714697699
    H           -3.148206461151     0.099430461501     0.300693987026
    C           -0.109298833699    -1.005525008455    -0.214571070828
    C            0.930634788404    -0.000551269472     0.227056228963
    H           -0.132742390476    -1.037293384386    -1.294725251202
    H            0.205228623361    -1.970928583339     0.154332131486
    F            2.106990448889    -0.346277579893    -0.277869642370
    F            0.663733153720     1.225316033321    -0.182989118000
    F            1.048772991405     0.032809499179     1.539722982709

  Mulliken Charges: (a.u.)
   Center  Symbol    Alpha    Beta     Spin     Total
       1     H     0.40418  0.40418  0.00000  0.19163
       2     C     3.24165  3.24165  0.00000 -0.48330
       3     C     2.89814  2.89814  0.00000  0.20372
       4     H     0.40722  0.40722  0.00000  0.18556
       5     O     4.30754  4.30754  0.00000 -0.61509
       6     H     0.39658  0.39658  0.00000  0.20684
       7     C     3.05857  3.05857  0.00000 -0.11715
       8     C     2.45813  2.45813  0.00000  1.08373
       9     H     0.40147  0.40147  0.00000  0.19705
      10     H     0.39105  0.39105  0.00000  0.21789
      11     F     4.68350  4.68350  0.00000 -0.36701
      12     F     4.67597  4.67597  0.00000 -0.35194
      13     F     4.67597  4.67597  0.00000 -0.35194

   Total alpha = 32.00000, Total beta = 32.00000, Total charge =  0.00000
