  ==> Input File <==

--------------------------------------------------------------------------
set {
	reference rhf
	basis 6-31G*
}

set_num_threads( 1 )
memory 2 gb

molecule MOL {
0 1

H	 2.591676	 2.013956	 0.335017
O	 3.341076	 1.666752	 -0.126416
C	 3.569581	 0.339145	 0.272707
C	 2.539767	 -0.640285	 -0.279495
H	 4.553106	 0.084646	 -0.100901
H	 3.608576	 0.269204	 1.359154
C	 1.109633	 -0.373782	 0.196487
H	 2.575977	 -0.603073	 -1.365161
H	 2.836991	 -1.645833	 0.013589
C	 0.108795	 -1.405514	 -0.331406
H	 0.807178	 0.620365	 -0.120624
H	 1.084268	 -0.376717	 1.286298
C	 -1.324712	 -1.234612	 0.184530
H	 0.105422	 -1.376812	 -1.419529
H	 0.457681	 -2.398536	 -0.055928
C	 -2.031917	 0.038867	 -0.287268
H	 -1.908422	 -2.094667	 -0.137035
H	 -1.320640	 -1.262801	 1.273119
C	 -3.491580	 0.112881	 0.165878
H	 -1.991236	 0.090353	 -1.374376
H	 -1.505629	 0.916931	 0.079238
C	 -4.198006	 1.386127	 -0.298311
H	 -4.029397	 -0.755082	 -0.209463
H	 -3.534866	 0.051797	 1.251364
H	 -4.200327	 1.460280	 -1.382156
H	 -5.230463	 1.408035	 0.036636
H	 -3.705382	 2.272608	 0.091351

	symmetry c1
}
set optking {
	frozen_dihedral = ("
		14 10 7 4,
		14 10 13 16,
		10 7 4 8,
		10 13 16 20,
		20 16 19 22,
		4 3 2 1
	")
}

ee = energy('scf')
oeprop('DIPOLE', 'QUADRUPOLE', 'MULLIKEN_CHARGES')
f=open( 'psi4out.xyz', 'w' )
f.write( "27  " )
f.write( str(ee) + "\n" )
f.write( MOL.save_string_xyz() )
f.close()
--------------------------------------------------------------------------

    Molecular point group: c1

    Geometry (in Angstrom), charge = 0, multiplicity = 1:

       Center              X                  Y                   Z               Mass
    ------------   -----------------  -----------------  -----------------  -----------------
           H          2.592101961769     1.983236058783     0.388710114186     1.007825032070
           O          3.341501961769     1.636032058783    -0.072722885814    15.994914619560
           C          3.570006961769     0.308425058783     0.326400114186    12.000000000000
           C          2.540192961769    -0.671004941217    -0.225801885814    12.000000000000
           H          4.553531961769     0.053926058783    -0.047207885814     1.007825032070
           H          3.609001961769     0.238484058783     1.412847114186     1.007825032070
           C          1.110058961769    -0.404501941217     0.250180114186    12.000000000000
           H          2.576402961769    -0.633792941217    -1.311467885814     1.007825032070
           H          2.837416961769    -1.676552941217     0.067282114186     1.007825032070
           C          0.109220961769    -1.436233941217    -0.277712885814    12.000000000000
           H          0.807603961769     0.589645058783    -0.066930885814     1.007825032070
           H          1.084693961769    -0.407436941217     1.339991114186     1.007825032070
           C         -1.324286038231    -1.265331941217     0.238223114186    12.000000000000
           H          0.105847961769    -1.407531941217    -1.365835885814     1.007825032070
           H          0.458106961769    -2.429255941217    -0.002234885814     1.007825032070
           C         -2.031491038231     0.008147058783    -0.233574885814    12.000000000000
           H         -1.907996038231    -2.125386941217    -0.083341885814     1.007825032070
           H         -1.320214038231    -1.293520941217     1.326812114186     1.007825032070
           C         -3.491154038231     0.082161058783     0.219571114186    12.000000000000
           H         -1.990810038231     0.059633058783    -1.320682885814     1.007825032070
           H         -1.505203038231     0.886211058783     0.132931114186     1.007825032070
           C         -4.197580038231     1.355407058783    -0.244617885814    12.000000000000
           H         -4.028971038231    -0.785801941217    -0.155769885814     1.007825032070
           H         -3.534440038231     0.021077058783     1.305057114186     1.007825032070
           H         -4.199901038231     1.429560058783    -1.328462885814     1.007825032070
           H         -5.230037038231     1.377315058783     0.090329114186     1.007825032070
           H         -3.704956038231     2.241888058783     0.145044114186     1.007825032070

  Charge       = 0
  Multiplicity = 1
  Basis Set: 6-31G*
  Basis Set:

    Orbital Energies (a.u.)
    -----------------------

    Doubly Occupied:

       1A    -20.552325     2A    -11.267089     3A    -11.219767
       4A    -11.217308     5A    -11.216117     6A    -11.215717
       7A    -11.215275     8A    -11.214334     9A    -11.209396
      10A     -1.359088    11A     -1.095218    12A     -1.061530
      13A     -1.011552    14A     -0.948572    15A     -0.888167
      16A     -0.819947    17A     -0.801540    18A     -0.778176
      19A     -0.693804    20A     -0.651809    21A     -0.638216
      22A     -0.614783    23A     -0.600230    24A     -0.583233
      25A     -0.580055    26A     -0.552565    27A     -0.541541
      28A     -0.531337    29A     -0.505246    30A     -0.493463
      31A     -0.485567    32A     -0.474257    33A     -0.469269
      34A     -0.461267    35A     -0.451903    36A     -0.441824
      37A     -0.422996

  @DF-RHF Final Energy:  -388.28174397616357

   => Energetics <=

    Nuclear Repulsion Energy =            459.8648660076374313
    One-Electron Energy =               -1437.7242505192668887
    Two-Electron Energy =                 589.5776405354640701
    DFT Exchange-Correlation Energy =       0.0000000000000000
    Empirical Dispersion Energy =           0.0000000000000000
    PCM Polarization Energy =               0.0000000000000000
    EFP Energy =                            0.0000000000000000
    Total Energy =                       -388.2817439761654441

  Mulliken Charges: (a.u.)
   Center  Symbol    Alpha    Beta     Spin     Total
       1     H     0.27981  0.27981  0.00000  0.44038
       2     O     4.37094  4.37094  0.00000 -0.74188
       3     C     2.99739  2.99739  0.00000  0.00522
       4     C     3.16073  3.16073  0.00000 -0.32146
       5     H     0.41443  0.41443  0.00000  0.17114
       6     H     0.43204  0.43204  0.00000  0.13593
       7     C     3.16373  3.16373  0.00000 -0.32747
       8     H     0.41518  0.41518  0.00000  0.16964
       9     H     0.42433  0.42433  0.00000  0.15134
      10     C     3.15204  3.15204  0.00000 -0.30407
      11     H     0.42229  0.42229  0.00000  0.15543
      12     H     0.42566  0.42566  0.00000  0.14868
      13     C     3.15355  3.15355  0.00000 -0.30710
      14     H     0.42159  0.42159  0.00000  0.15682
      15     H     0.42153  0.42153  0.00000  0.15694
      16     C     3.15233  3.15233  0.00000 -0.30466
      17     H     0.42122  0.42122  0.00000  0.15756
      18     H     0.42431  0.42431  0.00000  0.15139
      19     C     3.15124  3.15124  0.00000 -0.30248
      20     H     0.42354  0.42354  0.00000  0.15292
      21     H     0.42391  0.42391  0.00000  0.15218
      22     C     3.23917  3.23917  0.00000 -0.47833
      23     H     0.42284  0.42284  0.00000  0.15433
      24     H     0.42333  0.42333  0.00000  0.15335
      25     H     0.42141  0.42141  0.00000  0.15718
      26     H     0.41921  0.41921  0.00000  0.16157
      27     H     0.42227  0.42227  0.00000  0.15546

   Total alpha = 37.00000, Total beta = 37.00000, Total charge =  0.00000
