                              Psi4 1.0.54 Driver

  ==> Input File <==

--------------------------------------------------------------------------
set {
	reference rhf
	basis cc-pvtz
}

set_num_threads( 4 )
memory 2 gb

molecule MOL {
0 1

H	 -1.778758	 2.015573	 -0.918897
C	 -1.162557	 2.305290	 -0.078314
C	 0.155374	 1.546433	 -0.080557
H	 -1.725356	 2.103156	 0.823138
H	 -0.982068	 3.371980	 -0.137481
C	 0.000000	 0.039916	 0.000014
H	 0.781809	 1.857762	 0.751039
H	 0.728915	 1.770952	 -0.975842
C	 1.286532	 -0.763243	 0.000268
O	 -1.066039	 -0.480093	 0.059438
C	 2.547023	 0.087626	 -0.000114
H	 1.264245	 -1.421103	 -0.864380
H	 1.264290	 -1.420353	 0.865489
H	 2.584452	 0.725630	 -0.872909
H	 3.427035	 -0.544422	 0.000125
H	 2.584484	 0.726356	 0.872143

	symmetry c1
}
set optking {
	frozen_dihedral = ("
		3 6 9 12
	")
}

ee,wfn = optimize('scf', return_wfn=True)
oeprop( wfn, 'DIPOLE', 'QUADRUPOLE', 'MULLIKEN_CHARGES')
f=open( 'psi4out.xyz', 'w' )
f.write( "16  " )
f.write( str(ee) + "\n" )
f.write( MOL.save_string_xyz() )
f.close()
--------------------------------------------------------------------------

    Molecular point group: c1
  Charge       = 0
  Multiplicity = 1
  Basis Set: CC-PVTZ
  Basis Set:
  @DF-RHF Final Energy:  -270.12407469872295
    Total Energy =                       -270.1240746987232342
    Molecular point group: c1
  Basis Set: CC-PVTZ
  Basis Set:
  Basis Set: CC-PVTZ
  Basis Set:
  @DF-RHF Final Energy:  -270.12118242251779
    Total Energy =                       -270.1211824225177907
  Basis Set: CC-PVTZ
  Basis Set:
  Basis Set: CC-PVTZ
  Basis Set:
  @DF-RHF Final Energy:  -270.12696818410575
    Total Energy =                       -270.1269681841056922
  Basis Set: CC-PVTZ
  Basis Set:
  Basis Set: CC-PVTZ
  Basis Set:
  @DF-RHF Final Energy:  -270.12720516969841
    Total Energy =                       -270.1272051696982999
  Basis Set: CC-PVTZ
  Basis Set:
  Basis Set: CC-PVTZ
  Basis Set:
  @DF-RHF Final Energy:  -270.12680784114576
    Total Energy =                       -270.1268078411456486
  Basis Set: CC-PVTZ
  Basis Set:
  Basis Set: CC-PVTZ
  Basis Set:
  @DF-RHF Final Energy:  -270.12722211157450
    Total Energy =                       -270.1272221115746106
  Basis Set: CC-PVTZ
  Basis Set:
  Basis Set: CC-PVTZ
  Basis Set:
  @DF-RHF Final Energy:  -270.12723153135289
    Total Energy =                       -270.1272315313531180
  Basis Set: CC-PVTZ
  Basis Set:
  Charge       = 0
  Multiplicity = 1
  Basis Set: CC-PVTZ
  Basis Set:

    Orbital Energies (a.u.)
    -----------------------

    Doubly Occupied:

       1A    -20.534624     2A    -11.318589     3A    -11.232373
       4A    -11.231749     5A    -11.225193     6A    -11.211124
       7A     -1.396655     8A     -1.072532     9A     -1.036226
      10A     -0.907679    11A     -0.868392    12A     -0.722652
      13A     -0.655211    14A     -0.650083    15A     -0.632053
      16A     -0.609585    17A     -0.553589    18A     -0.542223
      19A     -0.538763    20A     -0.511588    21A     -0.507605
      22A     -0.504016    23A     -0.472675    24A     -0.397995

  @DF-RHF Final Energy:  -270.12723157343282

   => Energetics <=

    Nuclear Repulsion Energy =            240.7935282722885404
    One-Electron Energy =                -843.1751757375679972
    Two-Electron Energy =                 332.2544158918465769
    DFT Exchange-Correlation Energy =       0.0000000000000000
    Empirical Dispersion Energy =           0.0000000000000000
    PCM Polarization Energy =               0.0000000000000000
    EFP Energy =                            0.0000000000000000
    Total Energy =                       -270.1272315734328799
    Molecular point group: c1
  Basis Set: CC-PVTZ
  Basis Set:

  -Total Gradient:
     Atom            X                  Y                   Z
    ------   -----------------  -----------------  -----------------
       1       -0.000000000160     0.000000089429    -0.000000561536
       2       -0.000002110925     0.000006817658     0.000018373776
       3        0.000036191289     0.000042540718     0.000248592462
       4       -0.000003394298     0.000001541734    -0.000003571050
       5       -0.000001194119     0.000001611348    -0.000001069195
       6       -0.000066003909    -0.000101268954    -0.000364107602
       7        0.000005471572    -0.000002676258     0.000005026665
       8       -0.000002093974     0.000016499869     0.000005209370
       9        0.000156078371     0.000318994215    -0.000156460240
      10       -0.000002897106    -0.000026012857    -0.000002806169
      11        0.000001546950     0.000004511507    -0.000003062689
      12       -0.000122721968    -0.000261424437     0.000248412587
      13       -0.000001600768     0.000000462777    -0.000000226410
      14        0.000006245896    -0.000005670054     0.000001452323
      15       -0.000001524005    -0.000001452192     0.000001690683
      16       -0.000001992849     0.000005435495     0.000003107027

  **** Optimization is complete! (in 8 steps) ****
    Final optimized geometry and variables:
    Molecular point group: c1

    Geometry (in Angstrom), charge = 0, multiplicity = 1:

    H           -2.375588240159     1.199458853070    -0.771080946196
    C           -1.724967762378     1.653990929794    -0.036204067113
    C           -0.313277005832     1.097997085598    -0.138399123403
    H           -2.149570971412     1.458513673339     0.939210605899
    H           -1.718398850359     2.725169384775    -0.199309338999
    C           -0.231951016154    -0.398682532739     0.077622415160
    H            0.342589322057     1.575651835790     0.583518908448
    H            0.118622712420     1.318445903256    -1.110510387040
    C            1.120040329868    -1.099130967212    -0.002560715734
    O           -1.202111399202    -1.045991674595     0.305535033908
    C            2.370443884603    -0.250036849271    -0.205142358467
    H            1.025887758360    -1.825404833130    -0.802940510352
    H            1.204011791867    -1.679568864665     0.909010651379
    H            2.339952733103     0.307678192128    -1.133087418258
    H            3.243187411902    -0.890260127636    -0.240214973225
    H            2.517921306323     0.454867750426     0.604159098277

  Mulliken Charges: (a.u.)
   Center  Symbol    Alpha    Beta     Spin     Total
       1     H     0.44755  0.44755  0.00000  0.10490
       2     C     3.14192  3.14192  0.00000 -0.28385
       3     C     3.10436  3.10436  0.00000 -0.20871
       4     H     0.44754  0.44754  0.00000  0.10493
       5     H     0.45095  0.45095  0.00000  0.09810
       6     C     2.87299  2.87299  0.00000  0.25403
       7     H     0.44387  0.44387  0.00000  0.11226
       8     H     0.44371  0.44371  0.00000  0.11258
       9     C     3.08853  3.08853  0.00000 -0.17707
      10     O     4.17857  4.17857  0.00000 -0.35714
      11     C     3.15895  3.15895  0.00000 -0.31790
      12     H     0.43961  0.43961  0.00000  0.12078
      13     H     0.43828  0.43828  0.00000  0.12343
      14     H     0.45122  0.45122  0.00000  0.09755
      15     H     0.44110  0.44110  0.00000  0.11780
      16     H     0.45084  0.45084  0.00000  0.09832

   Total alpha = 24.00000, Total beta = 24.00000, Total charge = -0.00000

*** Psi4 exiting successfully. Buy a developer a beer!
