  ==> Input File <==

--------------------------------------------------------------------------
set {
	reference rhf
	basis 6-31G*
}

set_num_threads( 1 )
memory 2 gb

molecule MOL {
0 1

H	 1.085764	 0.881738	 -4.098891
O	 2.023023	 0.781113	 -4.018323
C	 2.515015	 1.680543	 -3.057581
C	 2.161057	 1.286093	 -1.627948
H	 3.590461	 1.683185	 -3.180390
H	 2.163542	 2.690444	 -3.265778
C	 0.659120	 1.296839	 -1.333097
H	 2.564036	 0.295513	 -1.433721
H	 2.667313	 1.972795	 -0.951551
C	 0.340002	 0.949440	 0.123713
H	 0.160836	 0.591115	 -1.991909
H	 0.252062	 2.281660	 -1.562820
C	 -1.145510	 1.029194	 0.494164
H	 0.712516	 -0.049471	 0.343392
H	 0.892896	 1.627615	 0.770310
C	 -2.037799	 -0.007733	 -0.193645
H	 -1.236245	 0.904682	 1.571234
H	 -1.517763	 2.028508	 0.273627
C	 -3.489788	 0.042957	 0.286558
H	 -1.635435	 -1.003601	 -0.013470
H	 -2.019080	 0.138103	 -1.270995
C	 -4.216917	 1.317354	 -0.141063
H	 -4.025645	 -0.823308	 -0.095450
H	 -3.513059	 -0.038752	 1.371301
H	 -4.239342	 1.411634	 -1.223113
H	 -5.243387	 1.322503	 0.212445
H	 -3.726170	 2.201406	 0.256408

	symmetry c1
}
set optking {
	frozen_dihedral = ("
		14 10 7 4,
		14 10 13 16,
		10 7 4 8,
		8 4 3 2,
		10 13 16 20,
		4 3 2 1
	")
}

ee = energy('scf')
oeprop('DIPOLE', 'QUADRUPOLE', 'MULLIKEN_CHARGES')
f=open( 'psi4out.xyz', 'w' )
f.write( "27  " )
f.write( str(ee) + "\n" )
f.write( MOL.save_string_xyz() )
f.close()
--------------------------------------------------------------------------

    Molecular point group: c1

    Geometry (in Angstrom), charge = 0, multiplicity = 1:

       Center              X                  Y                   Z               Mass
    ------------   -----------------  -----------------  -----------------  -----------------
           H          1.419175088969    -0.054880807538    -2.991887810928     1.007825032070
           O          2.356434088969    -0.155505807538    -2.911319810928    15.994914619560
           C          2.848426088969     0.743924192462    -1.950577810928    12.000000000000
           C          2.494468088969     0.349474192462    -0.520944810928    12.000000000000
           H          3.923872088969     0.746566192462    -2.073386810928     1.007825032070
           H          2.496953088969     1.753825192462    -2.158774810928     1.007825032070
           C          0.992531088969     0.360220192462    -0.226093810928    12.000000000000
           H          2.897447088969    -0.641105807538    -0.326717810928     1.007825032070
           H          3.000724088969     1.036176192462     0.155452189072     1.007825032070
           C          0.673413088969     0.012821192462     1.230716189072    12.000000000000
           H          0.494247088969    -0.345503807538    -0.884905810928     1.007825032070
           H          0.585473088969     1.345041192462    -0.455816810928     1.007825032070
           C         -0.812098911031     0.092575192462     1.601167189072    12.000000000000
           H          1.045927088969    -0.986089807538     1.450395189072     1.007825032070
           H          1.226307088969     0.690996192462     1.877313189072     1.007825032070
           C         -1.704387911031    -0.944351807538     0.913358189072    12.000000000000
           H         -0.902833911031    -0.031936807538     2.678237189072     1.007825032070
           H         -1.184351911031     1.091889192462     1.380630189072     1.007825032070
           C         -3.156376911031    -0.893661807538     1.393561189072    12.000000000000
           H         -1.302023911031    -1.940219807538     1.093533189072     1.007825032070
           H         -1.685668911031    -0.798515807538    -0.163991810928     1.007825032070
           C         -3.883505911031     0.380735192462     0.965940189072    12.000000000000
           H         -3.692233911031    -1.759926807538     1.011553189072     1.007825032070
           H         -3.179647911031    -0.975370807538     2.478304189072     1.007825032070
           H         -3.905930911031     0.475015192462    -0.116109810928     1.007825032070
           H         -4.909975911031     0.385884192462     1.319448189072     1.007825032070
           H         -3.392758911031     1.264787192462     1.363411189072     1.007825032070

  Charge       = 0
  Multiplicity = 1
  Basis Set: 6-31G*
  Basis Set:

    Orbital Energies (a.u.)
    -----------------------

    Doubly Occupied:

       1A    -20.552266     2A    -11.267036     3A    -11.219772
       4A    -11.217242     5A    -11.216059     6A    -11.215260
       7A    -11.215183     8A    -11.214205     9A    -11.209323
      10A     -1.359012    11A     -1.096026    12A     -1.062118
      13A     -1.009500    14A     -0.946453    15A     -0.892338
      16A     -0.827385    17A     -0.799902    18A     -0.770438
      19A     -0.693643    20A     -0.650441    21A     -0.628228
      22A     -0.614206    23A     -0.613677    24A     -0.589979
      25A     -0.579670    26A     -0.555065    27A     -0.534970
      28A     -0.524746    29A     -0.515007    30A     -0.493419
      31A     -0.484531    32A     -0.476728    33A     -0.470022
      34A     -0.455629    35A     -0.450264    36A     -0.442295
      37A     -0.422967

  @DF-RHF Final Energy:  -388.27975121534598

   => Energetics <=

    Nuclear Repulsion Energy =            464.1624081483778355
    One-Electron Energy =               -1446.3144352289712060
    Two-Electron Energy =                 593.8722758652465927
    DFT Exchange-Correlation Energy =       0.0000000000000000
    Empirical Dispersion Energy =           0.0000000000000000
    PCM Polarization Energy =               0.0000000000000000
    EFP Energy =                            0.0000000000000000
    Total Energy =                       -388.2797512153467778

  Mulliken Charges: (a.u.)
   Center  Symbol    Alpha    Beta     Spin     Total
       1     H     0.27991  0.27991  0.00000  0.44017
       2     O     4.37095  4.37095  0.00000 -0.74189
       3     C     2.99737  2.99737  0.00000  0.00527
       4     C     3.16095  3.16095  0.00000 -0.32190
       5     H     0.41445  0.41445  0.00000  0.17111
       6     H     0.43205  0.43205  0.00000  0.13591
       7     C     3.16329  3.16329  0.00000 -0.32658
       8     H     0.41496  0.41496  0.00000  0.17009
       9     H     0.42434  0.42434  0.00000  0.15131
      10     C     3.15132  3.15132  0.00000 -0.30264
      11     H     0.42290  0.42290  0.00000  0.15421
      12     H     0.42546  0.42546  0.00000  0.14907
      13     C     3.15587  3.15587  0.00000 -0.31174
      14     H     0.42172  0.42172  0.00000  0.15655
      15     H     0.42161  0.42161  0.00000  0.15677
      16     C     3.15424  3.15424  0.00000 -0.30847
      17     H     0.42141  0.42141  0.00000  0.15719
      18     H     0.42240  0.42240  0.00000  0.15520
      19     C     3.15275  3.15275  0.00000 -0.30549
      20     H     0.42149  0.42149  0.00000  0.15701
      21     H     0.42400  0.42400  0.00000  0.15199
      22     C     3.24160  3.24160  0.00000 -0.48321
      23     H     0.42040  0.42040  0.00000  0.15920
      24     H     0.42300  0.42300  0.00000  0.15400
      25     H     0.42267  0.42267  0.00000  0.15466
      26     H     0.41877  0.41877  0.00000  0.16246
      27     H     0.42012  0.42012  0.00000  0.15975

   Total alpha = 37.00000, Total beta = 37.00000, Total charge =  0.00000
