  ==> Input File <==

--------------------------------------------------------------------------
set {
	reference rhf
	basis 6-31G*
}

set_num_threads( 1 )
memory 2 gb

molecule MOL {
0 1

H	 -0.397229	 2.510568	 0.221735
C	 0.387990	 1.946917	 0.739934
C	 0.692068	 0.589600	 0.160137
O	 0.932195	 2.414713	 1.687106
C	 -0.558097	 -0.297372	 0.091132
H	 1.469834	 0.130641	 0.759235
H	 1.084618	 0.738356	 -0.845153
C	 -1.850991	 0.512573	 -0.019058
H	 -0.476753	 -0.965681	 -0.762987
H	 -0.604799	 -0.930658	 0.975228
C	 -3.096943	 -0.368295	 -0.099594
H	 -1.800724	 1.150330	 -0.898172
H	 -1.931651	 1.177355	 0.838044
H	 -3.060452	 -1.020287	 -0.967456
H	 -3.996858	 0.233488	 -0.175704
H	 -3.191959	 -0.995686	 0.782074

	symmetry c1
}
set optking {
	frozen_dihedral = ("
		9 5 8 12,
		4 2 3 6
	")
}

ee = energy('scf')
oeprop('DIPOLE', 'QUADRUPOLE', 'MULLIKEN_CHARGES')
f=open( 'psi4out.xyz', 'w' )
f.write( "16  " )
f.write( str(ee) + "\n" )
f.write( MOL.save_string_xyz() )
f.close()
--------------------------------------------------------------------------

    Molecular point group: c1

    Geometry (in Angstrom), charge = 0, multiplicity = 1:

       Center              X                  Y                   Z               Mass
    ------------   -----------------  -----------------  -----------------  -----------------
           H          0.197709727470     1.705804949724    -0.212569931183     1.007825032070
           C          0.982928727470     1.142153949724     0.305629068817    12.000000000000
           C          1.287006727470    -0.215163050276    -0.274167931183    12.000000000000
           O          1.527133727470     1.609949949724     1.252801068817    15.994914619560
           C          0.036841727470    -1.102135050276    -0.343172931183    12.000000000000
           H          2.064772727470    -0.674122050276     0.324930068817     1.007825032070
           H          1.679556727470    -0.066407050276    -1.279457931183     1.007825032070
           C         -1.256052272530    -0.292190050276    -0.453362931183    12.000000000000
           H          0.118185727470    -1.770444050276    -1.197291931183     1.007825032070
           H         -0.009860272530    -1.735421050276     0.540923068817     1.007825032070
           C         -2.502004272530    -1.173058050276    -0.533898931183    12.000000000000
           H         -1.205785272530     0.345566949724    -1.332476931183     1.007825032070
           H         -1.336712272530     0.372591949724     0.403739068817     1.007825032070
           H         -2.465513272530    -1.825050050276    -1.401760931183     1.007825032070
           H         -3.401919272530    -0.571275050276    -0.610008931183     1.007825032070
           H         -2.597020272530    -1.800449050276     0.347769068817     1.007825032070

  Charge       = 0
  Multiplicity = 1
  Basis Set: 6-31G*
  Basis Set:

    Orbital Energies (a.u.)
    -----------------------

    Doubly Occupied:

       1A    -20.560085     2A    -11.323663     3A    -11.235384
       4A    -11.233919     5A    -11.231908     6A    -11.219665
       7A     -1.400413     8A     -1.100682     9A     -1.015829
      10A     -0.903101    11A     -0.842868    12A     -0.767244
      13A     -0.678398    14A     -0.650497    15A     -0.625798
      16A     -0.602874    17A     -0.578690    18A     -0.563665
      19A     -0.527917    20A     -0.511653    21A     -0.497593
      22A     -0.475536    23A     -0.471965    24A     -0.404997

  @DF-RHF Final Energy:  -270.01039660181493

   => Energetics <=

    Nuclear Repulsion Energy =            235.5581727366342477
    One-Electron Energy =                -832.2885599291703329
    Two-Electron Energy =                 326.7199905907208404
    DFT Exchange-Correlation Energy =       0.0000000000000000
    Empirical Dispersion Energy =           0.0000000000000000
    PCM Polarization Energy =               0.0000000000000000
    EFP Energy =                            0.0000000000000000
    Total Energy =                       -270.0103966018152732

  Mulliken Charges: (a.u.)
   Center  Symbol    Alpha    Beta     Spin     Total
       1     H     0.42665  0.42665  0.00000  0.14669
       2     C     2.83630  2.83630  0.00000  0.32740
       3     C     3.20862  3.20862  0.00000 -0.41723
       4     O     4.24034  4.24034  0.00000 -0.48068
       5     C     3.15747  3.15747  0.00000 -0.31494
       6     H     0.39714  0.39714  0.00000  0.20573
       7     H     0.40838  0.40838  0.00000  0.18324
       8     C     3.17036  3.17036  0.00000 -0.34072
       9     H     0.41504  0.41504  0.00000  0.16993
      10     H     0.41197  0.41197  0.00000  0.17607
      11     C     3.23808  3.23808  0.00000 -0.47616
      12     H     0.42005  0.42005  0.00000  0.15989
      13     H     0.41492  0.41492  0.00000  0.17015
      14     H     0.41997  0.41997  0.00000  0.16007
      15     H     0.41614  0.41614  0.00000  0.16772
      16     H     0.41858  0.41858  0.00000  0.16285

   Total alpha = 24.00000, Total beta = 24.00000, Total charge = -0.00000
