  ==> Input File <==

--------------------------------------------------------------------------
set {
	reference rhf
	basis cc-pvtz
}

set_num_threads( 4 )
memory 2 gb

molecule MOL {
0 1

H	 -0.911589	 -1.344255	 -0.135281
O	 -1.432053	 -0.565244	 -0.200812
C	 -0.727158	 0.534527	 0.310686
C	 0.680222	 0.664433	 -0.252229
H	 -1.306802	 1.408001	 0.044211
H	 -0.690821	 0.490158	 1.397609
C	 1.605391	 -0.489360	 0.123098
H	 0.615089	 0.745647	 -1.332226
H	 1.101414	 1.597893	 0.110950
H	 1.247627	 -1.432485	 -0.275204
H	 2.601435	 -0.332816	 -0.273062
H	 1.691776	 -0.589902	 1.200774

	symmetry c1
}
set optking {
	frozen_dihedral = ("
		1 2 3 4
	")
}

ee = optimize('scf')
oeprop('DIPOLE', 'QUADRUPOLE', 'MULLIKEN_CHARGES')
f=open( 'psi4out.xyz', 'w' )
f.write( "12  " )
f.write( str(ee) + "\n" )
f.write( MOL.save_string_xyz() )
f.close()
--------------------------------------------------------------------------

    Molecular point group: c1
  Charge       = 0
  Multiplicity = 1
  Basis Set: CC-PVTZ
  Basis Set:
  @DF-RHF Final Energy:  -193.19001788052211
    Total Energy =                       -193.1900178805220492
    Molecular point group: c1
  Basis Set: CC-PVTZ
  Basis Set:
  Basis Set: CC-PVTZ
  Basis Set:
  @DF-RHF Final Energy:  -193.19004411387115
    Total Energy =                       -193.1900441138712949
  Basis Set: CC-PVTZ
  Basis Set:
  Basis Set: CC-PVTZ
  Basis Set:
  @DF-RHF Final Energy:  -193.19006713576499
    Total Energy =                       -193.1900671357650481
  Basis Set: CC-PVTZ
  Basis Set:
  Basis Set: CC-PVTZ
  Basis Set:
  @DF-RHF Final Energy:  -193.19006820653672
    Total Energy =                       -193.1900682065366084
  Basis Set: CC-PVTZ
  Basis Set:
  Charge       = 0
  Multiplicity = 1
  Basis Set: CC-PVTZ
  Basis Set:

    Orbital Energies (a.u.)
    -----------------------

    Doubly Occupied:

       1A    -20.545128     2A    -11.265588     3A    -11.220362
       4A    -11.218802     5A     -1.363724     6A     -1.054104
       7A     -0.930416     8A     -0.814434     9A     -0.691882
      10A     -0.640221    11A     -0.610036    12A     -0.588079
      13A     -0.548244    14A     -0.509943    15A     -0.494543
      16A     -0.470040    17A     -0.433448

  @DF-RHF Final Energy:  -193.19006832926016

   => Energetics <=

    Nuclear Repulsion Energy =            133.2291735288907830
    One-Electron Energy =                -526.0404976047091168
    Two-Electron Energy =                 199.6212557465580630
    DFT Exchange-Correlation Energy =       0.0000000000000000
    Empirical Dispersion Energy =           0.0000000000000000
    PCM Polarization Energy =               0.0000000000000000
    EFP Energy =                            0.0000000000000000
    Total Energy =                       -193.1900683292602707
    Molecular point group: c1
  Basis Set: CC-PVTZ
  Basis Set:

  -Total Gradient:
     Atom            X                  Y                   Z
    ------   -----------------  -----------------  -----------------
       1        0.000613779376     0.000275490533    -0.001482419865
       2       -0.000592218109    -0.000625318709     0.002157711843
       3       -0.000379352035     0.000945455340    -0.001437742939
       4        0.000351941328    -0.000612004723     0.000760351595
       5        0.000004569015     0.000008402028     0.000004490796
       6       -0.000000867252    -0.000003753477    -0.000005490590
       7        0.000001766950     0.000006414441    -0.000005585504
       8       -0.000001363423    -0.000003144223     0.000003363035
       9        0.000004251505     0.000002299827     0.000003171522
      10       -0.000006424949     0.000005179101     0.000000078000
      11        0.000006322980     0.000001197405    -0.000000213035
      12       -0.000002405388    -0.000000217542     0.000002285141

  **** Optimization is complete! (in 5 steps) ****
    Final optimized geometry and variables:
    Molecular point group: c1

    Geometry (in Angstrom), charge = 0, multiplicity = 1:

    H           -0.934997043261    -1.344136056021    -0.132164391593
    O           -1.446918862756    -0.559243248248    -0.193141702336
    C           -0.727584075456     0.532372591679     0.313756534286
    C            0.679178943415     0.658445366129    -0.251917572018
    H           -1.304303256102     1.411028736653     0.058994356936
    H           -0.680459270288     0.478743303543     1.400325179087
    C            1.610465025300    -0.489365351493     0.129953229068
    H            0.616990806679     0.738009191454    -1.332535677858
    H            1.099483935963     1.592487194607     0.109268597717
    H            1.273095691404    -1.439433074508    -0.271921215972
    H            2.607866734979    -0.321870946760    -0.257895078019
    H            1.686795213004    -0.591308179573     1.207590440148

  Mulliken Charges: (a.u.)
   Center  Symbol    Alpha    Beta     Spin     Total
       1     H     0.39239  0.39239  0.00000  0.21522
       2     O     4.20558  4.20558  0.00000 -0.41115
       3     C     2.96675  2.96675  0.00000  0.06650
       4     C     3.09158  3.09158  0.00000 -0.18316
       5     H     0.45260  0.45260  0.00000  0.09481
       6     H     0.47405  0.47405  0.00000  0.05189
       7     C     3.15364  3.15364  0.00000 -0.30729
       8     H     0.44989  0.44989  0.00000  0.10022
       9     H     0.45553  0.45553  0.00000  0.08894
      10     H     0.46173  0.46173  0.00000  0.07654
      11     H     0.44441  0.44441  0.00000  0.11118
      12     H     0.45184  0.45184  0.00000  0.09631

   Total alpha = 17.00000, Total beta = 17.00000, Total charge = -0.00000
