                              Psi4 1.0.54 Driver

  ==> Input File <==

--------------------------------------------------------------------------
set {
	reference rhf
	basis cc-pvtz
}

set_num_threads( 4 )
memory 2 gb

molecule MOL {
0 1

H	 -2.816458	 -0.841657	 -0.064679
N	 -1.878861	 -0.711874	 0.250184
C	 -1.341419	 0.551458	 -0.220231
H	 -1.333674	 -1.468530	 -0.105118
C	 -0.174469	 0.983375	 0.637861
H	 -1.012461	 0.522787	 -1.258262
H	 -2.115307	 1.307440	 -0.145128
O	 0.863652	 0.063768	 0.481865
H	 0.157280	 1.976403	 0.337843
H	 -0.483536	 1.027495	 1.679715
C	 1.976595	 0.311258	 1.275166
H	 2.709099	 -0.455721	 1.068849
H	 2.415338	 1.281780	 1.053160
H	 1.725877	 0.281135	 2.332897

	symmetry c1
}
set optking {
	frozen_dihedral = ("
		6 3 2 4
	")
}

ee,wfn = optimize('scf', return_wfn=True)
oeprop( wfn, 'DIPOLE', 'QUADRUPOLE', 'MULLIKEN_CHARGES')
f=open( 'psi4out.xyz', 'w' )
f.write( "14  " )
f.write( str(ee) + "\n" )
f.write( MOL.save_string_xyz() )
f.close()
--------------------------------------------------------------------------

    Molecular point group: c1
  Charge       = 0
  Multiplicity = 1
  Basis Set: CC-PVTZ
  Basis Set:
  @DF-RHF Final Energy:  -248.22487734456141
    Total Energy =                       -248.2248773445612642
    Molecular point group: c1
  Basis Set: CC-PVTZ
  Basis Set:
  Basis Set: CC-PVTZ
  Basis Set:
  @DF-RHF Final Energy:  -248.22500523653031
    Total Energy =                       -248.2250052365301940
  Basis Set: CC-PVTZ
  Basis Set:
  Basis Set: CC-PVTZ
  Basis Set:
  @DF-RHF Final Energy:  -248.22502029595057
    Total Energy =                       -248.2250202959503440
  Basis Set: CC-PVTZ
  Basis Set:
  Charge       = 0
  Multiplicity = 1
  Basis Set: CC-PVTZ
  Basis Set:

    Orbital Energies (a.u.)
    -----------------------

    Doubly Occupied:

       1A    -20.547331     2A    -15.525653     3A    -11.261012
       4A    -11.260507     5A    -11.240587     6A     -1.381510
       7A     -1.176601     8A     -0.999794     9A     -0.905228
      10A     -0.814226    11A     -0.682512    12A     -0.676616
      13A     -0.642649    14A     -0.616723    15A     -0.606686
      16A     -0.535918    17A     -0.526620    18A     -0.499638
      19A     -0.473636    20A     -0.417039    21A     -0.385713

  @DF-RHF Final Energy:  -248.22502116076191

   => Energetics <=

    Nuclear Repulsion Energy =            194.3351548610461919
    One-Electron Energy =                -722.7679579588251499
    Two-Electron Energy =                 280.2077819370170459
    DFT Exchange-Correlation Energy =       0.0000000000000000
    Empirical Dispersion Energy =           0.0000000000000000
    PCM Polarization Energy =               0.0000000000000000
    EFP Energy =                            0.0000000000000000
    Total Energy =                       -248.2250211607619690
    Molecular point group: c1
  Basis Set: CC-PVTZ
  Basis Set:

  -Total Gradient:
     Atom            X                  Y                   Z
    ------   -----------------  -----------------  -----------------
       1        0.000046140372    -0.000013518734     0.000015865796
       2        0.003156177847     0.000039243551     0.003554375595
       3       -0.004110069017     0.001003328813    -0.001863125070
       4       -0.001913602994    -0.000208172772    -0.002677246378
       5        0.000037800550     0.000046390872    -0.000049794846
       6        0.002797805387    -0.000823689153     0.001023672628
       7        0.000017442469    -0.000008679902    -0.000006776755
       8       -0.000003398423    -0.000036329510     0.000014139801
       9       -0.000018429144     0.000007623126    -0.000002560473
      10       -0.000004500597    -0.000007527094    -0.000009015171
      11       -0.000000511011     0.000003105185     0.000010131687
      12       -0.000008709768     0.000008212671     0.000001146227
      13       -0.000003328714    -0.000011438819     0.000005046701
      14        0.000007183048     0.000001451766    -0.000015859743

  **** Optimization is complete! (in 4 steps) ****
    Final optimized geometry and variables:
    Molecular point group: c1

    Geometry (in Angstrom), charge = 0, multiplicity = 1:

    H           -2.709105995306    -1.073040842730    -0.578014231105
    N           -1.788425419775    -0.934339684435    -0.219142790689
    C           -1.238356987879     0.322185278873    -0.701762344564
    H           -1.238628988309    -1.702157068415    -0.540935408525
    C           -0.069748813795     0.759081735397     0.154058699017
    H           -0.884195154385     0.267342030914    -1.729463371749
    H           -2.006663525851     1.084302685545    -0.649548321990
    O            0.973497354077    -0.150146804482    -0.020730207568
    H            0.253057473337     1.758131613781    -0.139017186626
    H           -0.373005628582     0.789831275659     1.197748691187
    C            2.080621448802     0.080877380198     0.784543704805
    H            2.819625048582    -0.674381471806     0.558718986144
    H            2.514140947666     1.060794650288     0.594682913409
    H            1.825464109350     0.016704507241     1.839664048501

  Mulliken Charges: (a.u.)
   Center  Symbol    Alpha    Beta     Spin     Total
       1     H     0.42987  0.42987  0.00000  0.14027
       2     N     3.68999  3.68999  0.00000 -0.37998
       3     C     3.03136  3.03136  0.00000 -0.06271
       4     H     0.42459  0.42459  0.00000  0.15082
       5     C     2.96153  2.96153  0.00000  0.07693
       6     H     0.46207  0.46207  0.00000  0.07587
       7     H     0.45632  0.45632  0.00000  0.08736
       8     O     4.17911  4.17911  0.00000 -0.35823
       9     H     0.47243  0.47243  0.00000  0.05514
      10     H     0.47111  0.47111  0.00000  0.05778
      11     C     3.03093  3.03093  0.00000 -0.06187
      12     H     0.44807  0.44807  0.00000  0.10386
      13     H     0.47268  0.47268  0.00000  0.05464
      14     H     0.46995  0.46995  0.00000  0.06011

   Total alpha = 21.00000, Total beta = 21.00000, Total charge =  0.00000

*** Psi4 exiting successfully. Buy a developer a beer!
