  ==> Input File <==

--------------------------------------------------------------------------
set {
	reference rhf
	basis 6-31G*
}

set_num_threads( 4 )
memory 2 gb

molecule MOL {
0 1

O	 1.202062	 1.414373	 0.055086
C	 0.861134	 0.272526	 -0.014869
C	 -0.623889	 -0.118271	 -0.003699
C	 1.910221	 -0.821129	 -0.111511
C	 -0.895332	 -1.256461	 -1.002431
C	 -1.473649	 1.103340	 -0.370799
C	 -0.983900	 -0.581483	 1.422328
H	 -0.615301	 -0.972064	 -2.012700
H	 -1.954261	 -1.493213	 -1.010207
H	 -0.360539	 -2.164946	 -0.747760
H	 -1.227476	 1.468527	 -1.361691
H	 -2.526716	 0.838935	 -0.358521
H	 -1.314819	 1.915855	 0.325860
H	 -2.039679	 -0.828001	 1.472951
H	 -0.427637	 -1.464071	 1.720694
H	 -0.789023	 0.202493	 2.147048
H	 1.996590	 -1.149179	 -1.143200
H	 2.862756	 -0.416285	 0.201373
H	 1.666351	 -1.690123	 0.487320

	symmetry c1
}
set optking {
	frozen_dihedral = ("
		1 2 3 5
	")
}

ee = optimize('scf')
oeprop('DIPOLE', 'QUADRUPOLE', 'MULLIKEN_CHARGES')
f=open( 'psi4out.xyz', 'w' )
f.write( "19  " )
f.write( str(ee) + "\n" )
f.write( MOL.save_string_xyz() )
f.close()
--------------------------------------------------------------------------

    Molecular point group: c1
  Charge       = 0
  Multiplicity = 1
  Basis Set: 6-31G*
  Basis Set:
  @DF-RHF Final Energy:  -309.06303804318225
    Total Energy =                       -309.0630380431824733
    Molecular point group: c1
  Basis Set: 6-31G*
  Basis Set:
  Basis Set: 6-31G*
  Basis Set:
  @DF-RHF Final Energy:  -309.05998689104439
    Total Energy =                       -309.0599868910442183
  Basis Set: 6-31G*
  Basis Set:
  Basis Set: 6-31G*
  Basis Set:
  @DF-RHF Final Energy:  -309.06301796225591
    Total Energy =                       -309.0630179622561400
  Basis Set: 6-31G*
  Basis Set:
  Basis Set: 6-31G*
  Basis Set:
  @DF-RHF Final Energy:  -309.06309545596810
    Total Energy =                       -309.0630954559682664
  Basis Set: 6-31G*
  Basis Set:
  Basis Set: 6-31G*
  Basis Set:
  @DF-RHF Final Energy:  -309.06309694744903
    Total Energy =                       -309.0630969474491394
  Basis Set: 6-31G*
  Basis Set:
  Charge       = 0
  Multiplicity = 1
  Basis Set: 6-31G*
  Basis Set:

    Orbital Energies (a.u.)
    -----------------------

    Doubly Occupied:

       1A    -20.548231     2A    -11.322836     3A    -11.246444
       4A    -11.226892     5A    -11.224445     6A    -11.223900
       7A    -11.208652     8A     -1.394576     9A     -1.109627
      10A     -1.002152    11A     -0.946529    12A     -0.935100
      13A     -0.835013    14A     -0.703623    15A     -0.664512
      16A     -0.631708    17A     -0.620186    18A     -0.596414
      19A     -0.591310    20A     -0.565649    21A     -0.546186
      22A     -0.545037    23A     -0.524436    24A     -0.512725
      25A     -0.499066    26A     -0.471814    27A     -0.465309
      28A     -0.392467

  @DF-RHF Final Energy:  -309.06309728515396

   => Energetics <=

    Nuclear Repulsion Energy =            326.3061994269330626
    One-Electron Energy =               -1065.6289102112386900
    Two-Electron Energy =                 430.2596134991519534
    DFT Exchange-Correlation Energy =       0.0000000000000000
    Empirical Dispersion Energy =           0.0000000000000000
    PCM Polarization Energy =               0.0000000000000000
    EFP Energy =                            0.0000000000000000
    Total Energy =                       -309.0630972851536740
    Molecular point group: c1
  Basis Set: 6-31G*
  Basis Set:

  -Total Gradient:
     Atom            X                  Y                   Z
    ------   -----------------  -----------------  -----------------
       1        0.000003775365    -0.000000617057     0.000393714481
       2       -0.000018886090    -0.000053130556    -0.000497888926
       3       -0.000053425920     0.000254955609    -0.000122279435
       4       -0.000011653597    -0.000021934853     0.000035855808
       5        0.000074436284    -0.000174939397     0.000187834181
       6        0.000014112511    -0.000002693081    -0.000015371018
       7       -0.000018301506    -0.000011961224     0.000013871502
       8       -0.000002497659    -0.000000858261    -0.000002386618
       9        0.000006827942     0.000006841114     0.000010862314
      10        0.000025317843    -0.000009592303     0.000000704181
      11       -0.000008227391    -0.000010685895     0.000005175212
      12        0.000002587803     0.000003982278     0.000020283100
      13        0.000003274284     0.000020379059    -0.000010305750
      14       -0.000001777126    -0.000001381417     0.000012623775
      15       -0.000010472106     0.000000367636    -0.000002426692
      16        0.000001789557    -0.000001083276     0.000001732004
      17       -0.000007875020     0.000002028689    -0.000014892247
      18       -0.000003293020     0.000001918521     0.000001056006
      19        0.000004287842    -0.000001595586    -0.000018161880

  **** Optimization is complete! (in 6 steps) ****
    Final optimized geometry and variables:
    Molecular point group: c1

    Geometry (in Angstrom), charge = 0, multiplicity = 1:

    O            1.198591276560     1.415529159912     0.063303588871
    C            0.861484286658     0.272815015231    -0.012609247800
    C           -0.623553248072    -0.119230212163    -0.008208184131
    C            1.912539908820    -0.819753435475    -0.090814773540
    C           -0.903019077938    -1.253041253042    -1.008892297363
    C           -1.473711423884     1.105490986277    -0.364637132637
    C           -0.974913359384    -0.589220481716     1.418141056749
    H           -0.627957015454    -0.966982644339    -2.020134323030
    H           -1.962728443670    -1.486176817915    -1.011764459712
    H           -0.370202229870    -2.164182914620    -0.760103796483
    H           -1.240425960776     1.467775043614    -1.360036491676
    H           -2.527645187845     0.845391829639    -0.337725337594
    H           -1.301519970015     1.917851403691     0.328462436749
    H           -2.028262188110    -0.845272575470     1.472614790535
    H           -0.409067284021    -1.467970512560     1.710791034648
    H           -0.782428639637     0.194316582956     2.143539254044
    H            1.981977071747    -1.188317802813    -1.109958152878
    H            2.868552303942    -0.401908753862     0.192295032787
    H            1.679354292550    -1.665438968488     0.545348668080

  Mulliken Charges: (a.u.)
   Center  Symbol    Alpha    Beta     Spin     Total
       1     O     4.26450  4.26450  0.00000 -0.52901
       2     C     2.72503  2.72503  0.00000  0.54994
       3     C     3.06876  3.06876  0.00000 -0.13752
       4     C     3.28954  3.28954  0.00000 -0.57907
       5     C     3.24150  3.24150  0.00000 -0.48300
       6     C     3.22734  3.22734  0.00000 -0.45468
       7     C     3.24112  3.24112  0.00000 -0.48225
       8     H     0.41564  0.41564  0.00000  0.16871
       9     H     0.41357  0.41357  0.00000  0.17286
      10     H     0.41722  0.41722  0.00000  0.16556
      11     H     0.41612  0.41612  0.00000  0.16777
      12     H     0.42336  0.42336  0.00000  0.15327
      13     H     0.40540  0.40540  0.00000  0.18919
      14     H     0.41307  0.41307  0.00000  0.17386
      15     H     0.41869  0.41869  0.00000  0.16261
      16     H     0.40889  0.40889  0.00000  0.18222
      17     H     0.40423  0.40423  0.00000  0.19154
      18     H     0.39587  0.39587  0.00000  0.20826
      19     H     0.41014  0.41014  0.00000  0.17972

   Total alpha = 28.00000, Total beta = 28.00000, Total charge = -0.00000
