  ==> Input File <==

--------------------------------------------------------------------------
set {
	reference rhf
	basis cc-pvtz
}

set_num_threads( 4 )
memory 2 gb

molecule MOL {
0 1

O	 1.346819	 -2.778245	 0.020499
C	 0.425417	 -2.036080	 0.011026
C	 -1.017170	 -2.453926	 0.009382
O	 0.550743	 -0.719877	 0.000412
H	 -1.515371	 -2.041893	 0.877385
H	 -1.081707	 -3.529692	 0.019224
H	 -1.508430	 -2.058414	 -0.870203
C	 1.863204	 -0.194033	 0.000410
H	 2.031502	 0.409177	 -0.879273
H	 2.524488	 -1.045142	 0.000793
H	 2.031291	 0.409823	 0.879686

	symmetry c1
}
set optking {
	frozen_dihedral = ("
		2 4 8 9
	")
}

ee = optimize('scf')
oeprop('DIPOLE', 'QUADRUPOLE', 'MULLIKEN_CHARGES')
f=open( 'psi4out.xyz', 'w' )
f.write( "11  " )
f.write( str(ee) + "\n" )
f.write( MOL.save_string_xyz() )
f.close()
--------------------------------------------------------------------------

    Molecular point group: c1
  Charge       = 0
  Multiplicity = 1
  Basis Set: CC-PVTZ
  Basis Set:
  @DF-RHF Final Energy:  -266.93518401668479
    Total Energy =                       -266.9351840166851275
    Molecular point group: c1
  Basis Set: CC-PVTZ
  Basis Set:
  Basis Set: CC-PVTZ
  Basis Set:
  @DF-RHF Final Energy:  -266.93620656256428
    Total Energy =                       -266.9362065625642799
  Basis Set: CC-PVTZ
  Basis Set:
  Basis Set: CC-PVTZ
  Basis Set:
  @DF-RHF Final Energy:  -266.93715863737339
    Total Energy =                       -266.9371586373735568
  Basis Set: CC-PVTZ
  Basis Set:
  Basis Set: CC-PVTZ
  Basis Set:
  @DF-RHF Final Energy:  -266.93717386826052
    Total Energy =                       -266.9371738682605155
  Basis Set: CC-PVTZ
  Basis Set:
  Basis Set: CC-PVTZ
  Basis Set:
  @DF-RHF Final Energy:  -266.93706884670837
    Total Energy =                       -266.9370688467081436
  Basis Set: CC-PVTZ
  Basis Set:
  Charge       = 0
  Multiplicity = 1
  Basis Set: CC-PVTZ
  Basis Set:

    Orbital Energies (a.u.)
    -----------------------

    Doubly Occupied:

       1A    -20.597619     2A    -20.534551     3A    -11.370251
       4A    -11.278387     5A    -11.232588     6A     -1.471566
       7A     -1.368289     8A     -1.037011     9A     -0.954085
      10A     -0.779005    11A     -0.699504    12A     -0.682072
      13A     -0.680986    14A     -0.598108    15A     -0.592669
      16A     -0.561538    17A     -0.531082    18A     -0.520385
      19A     -0.458155    20A     -0.446273

  @DF-RHF Final Energy:  -266.93717956317533

   => Energetics <=

    Nuclear Repulsion Energy =            183.2294080153403115
    One-Electron Energy =                -727.5449259223205445
    Two-Electron Energy =                 277.3783383438050123
    DFT Exchange-Correlation Energy =       0.0000000000000000
    Empirical Dispersion Energy =           0.0000000000000000
    PCM Polarization Energy =               0.0000000000000000
    EFP Energy =                            0.0000000000000000
    Total Energy =                       -266.9371795631751638
    Molecular point group: c1
  Basis Set: CC-PVTZ
  Basis Set:

  -Total Gradient:
     Atom            X                  Y                   Z
    ------   -----------------  -----------------  -----------------
       1       -0.000014362053     0.000026820929     0.000040330315
       2        0.000059911703     0.000031776932    -0.000064726387
       3       -0.000001016795     0.000013947772     0.000040753891
       4        0.000037156084     0.000001940260    -0.000053757818
       5       -0.000000708295    -0.000002897724    -0.000000686896
       6       -0.000002051723    -0.000008992357     0.000003061161
       7        0.000020146445     0.000000726884     0.000001468710
       8       -0.000099203311    -0.000063030827     0.000001813824
       9       -0.000010039631     0.000041615210     0.000025217288
      10       -0.000017688978    -0.000041201722     0.000001081342
      11        0.000027856556    -0.000000705355     0.000005444569

  **** Optimization is complete! (in 6 steps) ****
    Final optimized geometry and variables:
    Molecular point group: c1

    Geometry (in Angstrom), charge = 0, multiplicity = 1:

    O            0.671152246573    -1.197097488164     0.001471486397
    C           -0.223524890237    -0.423587255471     0.000745754847
    C           -1.677974632598    -0.799945377028     0.003755125847
    O           -0.073458933955     0.891437904866    -0.002219410410
    H           -2.159526098815    -0.378859759819     0.876736031721
    H           -1.773442107221    -1.873452340276     0.007217952806
    H           -2.161458507976    -0.384434652835    -0.870839207826
    C            1.227609652109     1.448764216753    -0.003608450567
    H            1.333734968064     2.050769289791    -0.894174560209
    H            1.977026946617     0.676792960627     0.013412893364
    H            1.321729435148     2.078430013277     0.868890974349

  Mulliken Charges: (a.u.)
   Center  Symbol    Alpha    Beta     Spin     Total
       1     O     4.19708  4.19708  0.00000 -0.39416
       2     C     2.79775  2.79775  0.00000  0.40451
       3     C     3.13942  3.13942  0.00000 -0.27883
       4     O     4.15013  4.15013  0.00000 -0.30025
       5     H     0.44571  0.44571  0.00000  0.10858
       6     H     0.43802  0.43802  0.00000  0.12397
       7     H     0.44570  0.44570  0.00000  0.10859
       8     C     3.03750  3.03750  0.00000 -0.07501
       9     H     0.45307  0.45307  0.00000  0.09386
      10     H     0.44282  0.44282  0.00000  0.11436
      11     H     0.45281  0.45281  0.00000  0.09438

   Total alpha = 20.00000, Total beta = 20.00000, Total charge = -0.00000
