                              Psi4 1.0.54 Driver

  ==> Input File <==

--------------------------------------------------------------------------
set {
	reference rhf
	basis cc-pvtz
}

set_num_threads( 4 )
memory 2 gb

molecule MOL {
0 1

H	 -2.746766	 -0.373848	 -0.765400
O	 -2.346257	 -0.289210	 0.080372
C	 -1.183935	 0.486039	 -0.009831
C	 0.062853	 -0.375310	 0.027457
H	 -1.178881	 1.094526	 -0.908634
H	 -1.184406	 1.155156	 0.838676
O	 1.172093	 0.457955	 -0.054438
H	 0.052476	 -1.081302	 -0.804627
H	 0.076323	 -0.955658	 0.947560
C	 2.395478	 -0.199028	 -0.000366
H	 2.505946	 -0.901710	 -0.823354
H	 3.174616	 0.545641	 -0.071768
H	 2.513730	 -0.742241	 0.934223

	symmetry c1
}
set optking {
	frozen_dihedral = ("
		1 2 3 5
	")
}

ee,wfn = optimize('scf', return_wfn=True)
oeprop( wfn, 'DIPOLE', 'QUADRUPOLE', 'MULLIKEN_CHARGES')
f=open( 'psi4out.xyz', 'w' )
f.write( "13  " )
f.write( str(ee) + "\n" )
f.write( MOL.save_string_xyz() )
f.close()
--------------------------------------------------------------------------

    Molecular point group: c1
  Charge       = 0
  Multiplicity = 1
  Basis Set: CC-PVTZ
  Basis Set:
  @DF-RHF Final Energy:  -268.06156534080992
    Total Energy =                       -268.0615653408099206
    Molecular point group: c1
  Basis Set: CC-PVTZ
  Basis Set:
  Basis Set: CC-PVTZ
  Basis Set:
  @DF-RHF Final Energy:  -268.06168621247394
    Total Energy =                       -268.0616862124737736
  Basis Set: CC-PVTZ
  Basis Set:
  Basis Set: CC-PVTZ
  Basis Set:
  @DF-RHF Final Energy:  -268.06173070765612
    Total Energy =                       -268.0617307076561247
  Basis Set: CC-PVTZ
  Basis Set:
  Charge       = 0
  Multiplicity = 1
  Basis Set: CC-PVTZ
  Basis Set:

    Orbital Energies (a.u.)
    -----------------------

    Doubly Occupied:

       1A    -20.553911     2A    -20.551932     3A    -11.267937
       4A    -11.266118     5A    -11.265903     6A     -1.389848
       7A     -1.368150     8A     -1.019164     9A     -0.912913
      10A     -0.837641    11A     -0.715396    12A     -0.677407
      13A     -0.655108    14A     -0.641970    15A     -0.601680
      16A     -0.559488    17A     -0.548446    18A     -0.489189
      19A     -0.484330    20A     -0.440653    21A     -0.422502

  @DF-RHF Final Energy:  -268.06173161510611

   => Energetics <=

    Nuclear Repulsion Energy =            190.4240417633359925
    One-Electron Energy =                -743.6321822158386112
    Two-Electron Energy =                 285.1464088373963932
    DFT Exchange-Correlation Energy =       0.0000000000000000
    Empirical Dispersion Energy =           0.0000000000000000
    PCM Polarization Energy =               0.0000000000000000
    EFP Energy =                            0.0000000000000000
    Total Energy =                       -268.0617316151062823
    Molecular point group: c1
  Basis Set: CC-PVTZ
  Basis Set:

  -Total Gradient:
     Atom            X                  Y                   Z
    ------   -----------------  -----------------  -----------------
       1       -0.000482550451     0.000696884552     0.000155628651
       2        0.000744017412    -0.000964809183    -0.000385297167
       3       -0.000628487825     0.000874594049     0.000652933762
       4        0.000027157370    -0.000025252865    -0.000007388089
       5        0.000324048567    -0.000604129337    -0.000363788638
       6        0.000009073283     0.000029315785    -0.000009894973
       7        0.000009210410     0.000024515379    -0.000019051309
       8        0.000022652503    -0.000020051817    -0.000006352788
       9       -0.000015765082     0.000002019205    -0.000010659405
      10        0.000002640690    -0.000025700278    -0.000008025913
      11        0.000008271648     0.000002158706     0.000000661369
      12       -0.000018197008     0.000006791414    -0.000001204766
      13       -0.000002071514     0.000003664390     0.000002439265

  **** Optimization is complete! (in 4 steps) ****
    Final optimized geometry and variables:
    Molecular point group: c1

    Geometry (in Angstrom), charge = 0, multiplicity = 1:

    H           -2.732734246702    -0.411692502778    -0.752547136801
    O           -2.333182251753    -0.302775124948     0.088974949343
    C           -1.181241085944     0.490972836950    -0.012307332557
    C            0.061086333207    -0.375843488111     0.017706245066
    H           -1.183026011659     1.082932496694    -0.920938974598
    H           -1.164314028399     1.174089685252     0.826333746554
    O            1.174059358140     0.455163167512    -0.049678492261
    H            0.047310786934    -1.071507314683    -0.821001484736
    H            0.068699661253    -0.965595297280     0.931901167218
    C            2.394314530072    -0.207371946244     0.000688755577
    H            2.504929003528    -0.900878881458    -0.830014179738
    H            3.176999977409     0.534712750941    -0.059024429423
    H            2.507054149661    -0.762252952802     0.929143179908

  Mulliken Charges: (a.u.)
   Center  Symbol    Alpha    Beta     Spin     Total
       1     H     0.39078  0.39078  0.00000  0.21844
       2     O     4.20566  4.20566  0.00000 -0.41132
       3     C     2.97462  2.97462  0.00000  0.05077
       4     C     2.95892  2.95892  0.00000  0.08216
       5     H     0.46789  0.46789  0.00000  0.06422
       6     H     0.45646  0.45646  0.00000  0.08708
       7     O     4.17640  4.17640  0.00000 -0.35280
       8     H     0.47971  0.47971  0.00000  0.04058
       9     H     0.47058  0.47058  0.00000  0.05884
      10     C     3.03128  3.03128  0.00000 -0.06256
      11     H     0.47123  0.47123  0.00000  0.05755
      12     H     0.44653  0.44653  0.00000  0.10695
      13     H     0.46994  0.46994  0.00000  0.06011

   Total alpha = 21.00000, Total beta = 21.00000, Total charge = -0.00000

*** Psi4 exiting successfully. Buy a developer a beer!
