  ==> Input File <==

--------------------------------------------------------------------------
set {
	reference rhf
	basis 6-31G*
}

set_num_threads( 1 )
memory 2 gb

molecule MOL {
0 1

H	 0.508615	 3.206811	 0.974152
C	 0.367784	 2.412764	 1.717979
C	 -0.944169	 1.676269	 1.623296
O	 1.215674	 2.187988	 2.519421
C	 -1.220012	 1.144545	 0.209990
H	 -0.941895	 0.877774	 2.356173
H	 -1.727327	 2.381118	 1.899898
C	 -0.252658	 0.041456	 -0.226725
H	 -2.237296	 0.765913	 0.177490
H	 -1.181298	 1.969129	 -0.500165
C	 1.180775	 0.282413	 0.250794
H	 -0.266029	 -0.034465	 -1.312038
H	 -0.597733	 -0.921000	 0.146291
C	 2.148627	 -0.814315	 -0.201312
H	 1.516199	 1.249228	 -0.115937
H	 1.192670	 0.346017	 1.338083
C	 3.580890	 -0.659131	 0.322722
H	 2.166869	 -0.852443	 -1.289387
H	 1.762857	 -1.776509	 0.128956
C	 4.324889	 0.564933	 -0.213704
H	 4.142010	 -1.551473	 0.056605
H	 3.564836	 -0.624694	 1.410140
H	 4.342616	 0.565491	 -1.300421
H	 3.866655	 1.493402	 0.110242
H	 5.353900	 0.572371	 0.132816

	symmetry c1
}
set optking {
	frozen_dihedral = ("
		6 3 5 8,
		6 3 2 4,
		12 8 11 14,
		8 11 14 18,
		20 17 14 18
	")
}

ee = energy('scf')
oeprop('DIPOLE', 'QUADRUPOLE', 'MULLIKEN_CHARGES')
f=open( 'psi4out.xyz', 'w' )
f.write( "25  " )
f.write( str(ee) + "\n" )
f.write( MOL.save_string_xyz() )
f.close()
--------------------------------------------------------------------------

    Molecular point group: c1

    Geometry (in Angstrom), charge = 0, multiplicity = 1:

       Center              X                  Y                   Z               Mass
    ------------   -----------------  -----------------  -----------------  -----------------
           H         -0.672399644503     2.437918846842     0.300251045741     1.007825032070
           C         -0.813230644503     1.643871846842     1.044078045741    12.000000000000
           C         -2.125183644503     0.907376846842     0.949395045741    12.000000000000
           O          0.034659355497     1.419095846842     1.845520045741    15.994914619560
           C         -2.401026644503     0.375652846842    -0.463910954259    12.000000000000
           H         -2.122909644503     0.108881846842     1.682272045741     1.007825032070
           H         -2.908341644503     1.612225846842     1.225997045741     1.007825032070
           C         -1.433672644503    -0.727436153158    -0.900625954259    12.000000000000
           H         -3.418310644503    -0.002979153158    -0.496410954259     1.007825032070
           H         -2.362312644503     1.200236846842    -1.174065954259     1.007825032070
           C         -0.000239644503    -0.486479153158    -0.423106954259    12.000000000000
           H         -1.447043644503    -0.803357153158    -1.985938954259     1.007825032070
           H         -1.778747644503    -1.689892153158    -0.527609954259     1.007825032070
           C          0.967612355497    -1.583207153158    -0.875212954259    12.000000000000
           H          0.335184355497     0.480335846842    -0.789837954259     1.007825032070
           H          0.011655355497    -0.422875153158     0.664182045741     1.007825032070
           C          2.399875355497    -1.428023153158    -0.351178954259    12.000000000000
           H          0.985854355497    -1.621335153158    -1.963287954259     1.007825032070
           H          0.581842355497    -2.545401153158    -0.544944954259     1.007825032070
           C          3.143874355497    -0.203959153158    -0.887604954259    12.000000000000
           H          2.960995355497    -2.320365153158    -0.617295954259     1.007825032070
           H          2.383821355497    -1.393586153158     0.736239045741     1.007825032070
           H          3.161601355497    -0.203401153158    -1.974321954259     1.007825032070
           H          2.685640355497     0.724509846842    -0.563658954259     1.007825032070
           H          4.172885355497    -0.196521153158    -0.541084954259     1.007825032070

  Charge       = 0
  Multiplicity = 1
  Basis Set: 6-31G*
  Basis Set:

    Orbital Energies (a.u.)
    -----------------------

    Doubly Occupied:

       1A    -20.557491     2A    -11.327900     3A    -11.236034
       4A    -11.234477     5A    -11.220944     6A    -11.211685
       7A    -11.210147     8A    -11.209950     9A    -11.202845
      10A     -1.402732    11A     -1.105746    12A     -1.063313
      13A     -1.004769    14A     -0.942748    15A     -0.880523
      16A     -0.810748    17A     -0.787594    18A     -0.777391
      19A     -0.667229    20A     -0.653892    21A     -0.637882
      22A     -0.623300    23A     -0.605024    24A     -0.583521
      25A     -0.560918    26A     -0.555552    27A     -0.537968
      28A     -0.526991    29A     -0.508862    30A     -0.501858
      31A     -0.477959    32A     -0.468002    33A     -0.455376
      34A     -0.442347    35A     -0.440054    36A     -0.408983

  @DF-RHF Final Energy:  -387.10622976722664

   => Energetics <=

    Nuclear Repulsion Energy =            469.5336321614250892
    One-Electron Energy =               -1455.5942488070595573
    Two-Electron Energy =                 598.9543868784064671
    DFT Exchange-Correlation Energy =       0.0000000000000000
    Empirical Dispersion Energy =           0.0000000000000000
    PCM Polarization Energy =               0.0000000000000000
    EFP Energy =                            0.0000000000000000
    Total Energy =                       -387.1062297672280010

  Mulliken Charges: (a.u.)
   Center  Symbol    Alpha    Beta     Spin     Total
       1     H     0.42944  0.42944  0.00000  0.14112
       2     C     2.83193  2.83193  0.00000  0.33614
       3     C     3.20895  3.20895  0.00000 -0.41790
       4     O     4.24407  4.24407  0.00000 -0.48814
       5     C     3.16722  3.16722  0.00000 -0.33444
       6     H     0.39978  0.39978  0.00000  0.20045
       7     H     0.40485  0.40485  0.00000  0.19030
       8     C     3.14801  3.14801  0.00000 -0.29603
       9     H     0.41112  0.41112  0.00000  0.17776
      10     H     0.41895  0.41895  0.00000  0.16210
      11     C     3.18245  3.18245  0.00000 -0.36491
      12     H     0.41934  0.41934  0.00000  0.16132
      13     H     0.42002  0.42002  0.00000  0.15997
      14     C     3.14881  3.14881  0.00000 -0.29761
      15     H     0.42368  0.42368  0.00000  0.15263
      16     H     0.39666  0.39666  0.00000  0.20668
      17     C     3.15236  3.15236  0.00000 -0.30472
      18     H     0.42627  0.42627  0.00000  0.14746
      19     H     0.42294  0.42294  0.00000  0.15413
      20     C     3.24186  3.24186  0.00000 -0.48373
      21     H     0.42255  0.42255  0.00000  0.15490
      22     H     0.41810  0.41810  0.00000  0.16381
      23     H     0.42492  0.42492  0.00000  0.15017
      24     H     0.41661  0.41661  0.00000  0.16679
      25     H     0.41913  0.41913  0.00000  0.16175

   Total alpha = 36.00000, Total beta = 36.00000, Total charge =  0.00000
