  ==> Input File <==

--------------------------------------------------------------------------
set {
	reference rhf
	basis 6-31G*
}

set_num_threads( 4 )
memory 2 gb

molecule MOL {
0 1

H	 1.800238	 -1.258939	 0.645264
C	 1.951159	 -0.223429	 0.317018
C	 0.692068	 0.589600	 0.160137
O	 3.048605	 0.183688	 0.112084
C	 -0.558097	 -0.297372	 0.091132
H	 0.791645	 1.202255	 -0.728243
H	 0.616171	 1.253469	 1.020572
C	 -1.850991	 0.512573	 -0.019058
H	 -0.476753	 -0.965681	 -0.762987
H	 -0.604799	 -0.930658	 0.975228
C	 -3.096943	 -0.368295	 -0.099594
H	 -1.800724	 1.150330	 -0.898172
H	 -1.931651	 1.177355	 0.838044
H	 -3.060452	 -1.020287	 -0.967456
H	 -3.996858	 0.233488	 -0.175704
H	 -3.191959	 -0.995686	 0.782074

	symmetry c1
}
set optking {
	frozen_dihedral = ("
		4 2 3 6
	")
}

ee = optimize('scf')
oeprop('DIPOLE', 'QUADRUPOLE', 'MULLIKEN_CHARGES')
f=open( 'psi4out.xyz', 'w' )
f.write( "16  " )
f.write( str(ee) + "\n" )
f.write( MOL.save_string_xyz() )
f.close()
--------------------------------------------------------------------------

    Molecular point group: c1
  Charge       = 0
  Multiplicity = 1
  Basis Set: 6-31G*
  Basis Set:
  @DF-RHF Final Energy:  -270.01875062717176
    Total Energy =                       -270.0187506271717552
    Molecular point group: c1
  Basis Set: 6-31G*
  Basis Set:
  Basis Set: 6-31G*
  Basis Set:
  @DF-RHF Final Energy:  -270.01830072278278
    Total Energy =                       -270.0183007227827829
  Basis Set: 6-31G*
  Basis Set:
  Basis Set: 6-31G*
  Basis Set:
  @DF-RHF Final Energy:  -270.01888206382222
    Total Energy =                       -270.0188820638223888
  Basis Set: 6-31G*
  Basis Set:
  Basis Set: 6-31G*
  Basis Set:
  @DF-RHF Final Energy:  -270.01900482414430
    Total Energy =                       -270.0190048241441900
  Basis Set: 6-31G*
  Basis Set:
  Basis Set: 6-31G*
  Basis Set:
  @DF-RHF Final Energy:  -270.01891048327917
    Total Energy =                       -270.0189104832791145
  Basis Set: 6-31G*
  Basis Set:
  Basis Set: 6-31G*
  Basis Set:
  @DF-RHF Final Energy:  -270.01901877978912
    Total Energy =                       -270.0190187797892349
  Basis Set: 6-31G*
  Basis Set:
  Charge       = 0
  Multiplicity = 1
  Basis Set: 6-31G*
  Basis Set:

    Orbital Energies (a.u.)
    -----------------------

    Doubly Occupied:

       1A    -20.561626     2A    -11.327649     3A    -11.235760
       4A    -11.234533     5A    -11.229296     6A    -11.218629
       7A     -1.402460     8A     -1.096626     9A     -1.018435
      10A     -0.904616    11A     -0.811963    12A     -0.796697
      13A     -0.667428    14A     -0.655616    15A     -0.631048
      16A     -0.602151    17A     -0.589306    18A     -0.543290
      19A     -0.535499    20A     -0.497188    21A     -0.489319
      22A     -0.485902    23A     -0.477730    24A     -0.409392

  @DF-RHF Final Energy:  -270.01901901001236

   => Energetics <=

    Nuclear Repulsion Energy =            228.0837454680882672
    One-Electron Energy =                -817.3612118618063960
    Two-Electron Energy =                 319.2584473837056294
    DFT Exchange-Correlation Energy =       0.0000000000000000
    Empirical Dispersion Energy =           0.0000000000000000
    PCM Polarization Energy =               0.0000000000000000
    EFP Energy =                            0.0000000000000000
    Total Energy =                       -270.0190190100124710
    Molecular point group: c1
  Basis Set: 6-31G*
  Basis Set:

  -Total Gradient:
     Atom            X                  Y                   Z
    ------   -----------------  -----------------  -----------------
       1        0.000004101837    -0.000001128803     0.000001809754
       2       -0.000133678508    -0.000431372777    -0.001168059022
       3        0.000371681277     0.000748864109     0.000840947453
       4        0.000053329182     0.000213441790     0.000748643067
       5       -0.000001975678     0.000007366570    -0.000008049302
       6       -0.000296421778    -0.000543035722    -0.000420786241
       7       -0.000002556950    -0.000001431872    -0.000003514694
       8        0.000001296437     0.000000941619     0.000015477929
       9       -0.000002782177    -0.000004191986     0.000001754611
      10        0.000013182440     0.000011159232     0.000001687725
      11       -0.000003377503     0.000000724339    -0.000018050786
      12       -0.000001565895     0.000004009304     0.000005586392
      13       -0.000000200465    -0.000004150720     0.000004523177
      14       -0.000000677114    -0.000006468839     0.000001643325
      15       -0.000000834242    -0.000001195492    -0.000005548023
      16        0.000000479134     0.000006469250     0.000001934635

  **** Optimization is complete! (in 7 steps) ****
    Final optimized geometry and variables:
    Molecular point group: c1

    Geometry (in Angstrom), charge = 0, multiplicity = 1:

    H            1.831987934716    -1.332179960686     0.542500376296
    C            1.940556769442    -0.290648125407     0.217420302655
    C            0.659199127561     0.501194362240     0.080626794902
    O            3.020667890752     0.160814398085     0.014943397383
    C           -0.593824925452    -0.371566627927     0.005463762612
    H            0.753542897277     1.132074126691    -0.797508281577
    H            0.603944778606     1.168645174438     0.938814382346
    C           -1.881109489282     0.444927299429    -0.115606860217
    H           -0.515308681276    -1.046804483698    -0.844800784004
    H           -0.650430957919    -1.001872970397     0.891219571951
    C           -3.132935379230    -0.427610784384    -0.193253006488
    H           -1.824231046510     1.075958165104    -0.999481164660
    H           -1.960549224079     1.117723722354     0.735405538122
    H           -3.097440418881    -1.088837737461    -1.054249861719
    H           -4.028244379741     0.179597878709    -0.279490860112
    H           -3.236365540945    -1.045487679501     0.694118227180

  Mulliken Charges: (a.u.)
   Center  Symbol    Alpha    Beta     Spin     Total
       1     H     0.42924  0.42924  0.00000  0.14153
       2     C     2.83372  2.83372  0.00000  0.33255
       3     C     3.20726  3.20726  0.00000 -0.41453
       4     O     4.24031  4.24031  0.00000 -0.48062
       5     C     3.16412  3.16412  0.00000 -0.32824
       6     H     0.39850  0.39850  0.00000  0.20299
       7     H     0.40100  0.40100  0.00000  0.19799
       8     C     3.15193  3.15193  0.00000 -0.30386
       9     H     0.41763  0.41763  0.00000  0.16474
      10     H     0.41962  0.41962  0.00000  0.16075
      11     C     3.24016  3.24016  0.00000 -0.48033
      12     H     0.41933  0.41933  0.00000  0.16133
      13     H     0.42034  0.42034  0.00000  0.15931
      14     H     0.42001  0.42001  0.00000  0.15998
      15     H     0.41638  0.41638  0.00000  0.16724
      16     H     0.42043  0.42043  0.00000  0.15915

   Total alpha = 24.00000, Total beta = 24.00000, Total charge = -0.00000
