                              Psi4 1.0.54 Driver

  ==> Input File <==

--------------------------------------------------------------------------
set {
	reference rhf
	basis cc-pvtz
}

set_num_threads( 4 )
memory 2 gb

molecule MOL {
0 1

H	 1.651322	 -0.822465	 0.000000
O	 0.729993	 -1.034364	 0.000000
C	 0.037305	 0.100061	 0.000000
C	 -1.370419	 -0.100877	 -0.475407
O	 0.507959	 1.129014	 0.341373
H	 -1.358451	 -0.506644	 -1.478741
H	 -1.894620	 0.840236	 -0.459736
H	 -1.868699	 -0.818204	 0.163832

	symmetry c1
}
set optking {
	frozen_dihedral = ("
		4 3 2 1
	")
}

ee,wfn = optimize('scf', return_wfn=True)
oeprop( wfn, 'DIPOLE', 'QUADRUPOLE', 'MULLIKEN_CHARGES')
f=open( 'psi4out.xyz', 'w' )
f.write( "8  " )
f.write( str(ee) + "\n" )
f.write( MOL.save_string_xyz() )
f.close()
--------------------------------------------------------------------------

    Molecular point group: c1
  Charge       = 0
  Multiplicity = 1
  Basis Set: CC-PVTZ
  Basis Set:
  @DF-RHF Final Energy:  -227.90232177356734
    Total Energy =                       -227.9023217735673086
    Molecular point group: c1
  Basis Set: CC-PVTZ
  Basis Set:
  Basis Set: CC-PVTZ
  Basis Set:
  @DF-RHF Final Energy:  -227.90017229708235
    Total Energy =                       -227.9001722970823494
  Basis Set: CC-PVTZ
  Basis Set:
  Basis Set: CC-PVTZ
  Basis Set:
  @DF-RHF Final Energy:  -227.90249214094223
    Total Energy =                       -227.9024921409422575
  Basis Set: CC-PVTZ
  Basis Set:
  Basis Set: CC-PVTZ
  Basis Set:
  @DF-RHF Final Energy:  -227.90256046239006
    Total Energy =                       -227.9025604623899994
  Basis Set: CC-PVTZ
  Basis Set:
  Basis Set: CC-PVTZ
  Basis Set:
  @DF-RHF Final Energy:  -227.90260960469320
    Total Energy =                       -227.9026096046932537
  Basis Set: CC-PVTZ
  Basis Set:
  Basis Set: CC-PVTZ
  Basis Set:
  @DF-RHF Final Energy:  -227.90263653164664
    Total Energy =                       -227.9026365316467206
  Basis Set: CC-PVTZ
  Basis Set:
  Basis Set: CC-PVTZ
  Basis Set:
  @DF-RHF Final Energy:  -227.90264046790833
    Total Energy =                       -227.9026404679083839
  Basis Set: CC-PVTZ
  Basis Set:
  Charge       = 0
  Multiplicity = 1
  Basis Set: CC-PVTZ
  Basis Set:

    Orbital Energies (a.u.)
    -----------------------

    Doubly Occupied:

       1A    -20.605446     2A    -20.542953     3A    -11.378614
       4A    -11.239472     5A     -1.478831     6A     -1.371918
       7A     -1.028088     8A     -0.834341     9A     -0.707164
      10A     -0.685631    11A     -0.658255    12A     -0.584628
      13A     -0.576244    14A     -0.558614    15A     -0.486662
      16A     -0.452427

  @DF-RHF Final Energy:  -227.90264062746812

   => Energetics <=

    Nuclear Repulsion Energy =            122.7374432449178414
    One-Electron Energy =                -554.9015930021853364
    Two-Electron Energy =                 204.2615091297993217
    DFT Exchange-Correlation Energy =       0.0000000000000000
    Empirical Dispersion Energy =           0.0000000000000000
    PCM Polarization Energy =               0.0000000000000000
    EFP Energy =                            0.0000000000000000
    Total Energy =                       -227.9026406274682017
    Molecular point group: c1
  Basis Set: CC-PVTZ
  Basis Set:

  -Total Gradient:
     Atom            X                  Y                   Z
    ------   -----------------  -----------------  -----------------
       1       -0.000028495522    -0.000550183714    -0.006868704217
       2        0.000595111502     0.000791406834     0.006652938261
       3       -0.001835126742    -0.000707636495     0.004418099571
       4        0.001233713069     0.000421834102    -0.004198266530
       5       -0.000009010139     0.000027183956     0.000010873565
       6        0.000003854168     0.000020368239     0.000038632744
       7        0.000009156788    -0.000046048399    -0.000023194891
       8        0.000030796876     0.000043075476    -0.000030378503

  **** Optimization is complete! (in 8 steps) ****
    Final optimized geometry and variables:
    Molecular point group: c1

    Geometry (in Angstrom), charge = 0, multiplicity = 1:

    H            1.627242942622    -0.860901570704     0.112951751012
    O            0.701271515929    -1.049148595193     0.133007835976
    C            0.029738556208     0.097693557176     0.041510425107
    C           -1.384446335860    -0.111170591556    -0.411149389356
    O            0.537373358398     1.145715580959     0.238514124998
    H           -1.362473062120    -0.405750999391    -1.453254269174
    H           -1.941633479748     0.804854946168    -0.303055767127
    H           -1.851055969982    -0.910321777591     0.148262979917

  Mulliken Charges: (a.u.)
   Center  Symbol    Alpha    Beta     Spin     Total
       1     H     0.37926  0.37926  0.00000  0.24149
       2     O     4.16389  4.16389  0.00000 -0.32779
       3     C     2.80316  2.80316  0.00000  0.39368
       4     C     3.13815  3.13815  0.00000 -0.27630
       5     O     4.18879  4.18879  0.00000 -0.37758
       6     H     0.44511  0.44511  0.00000  0.10977
       7     H     0.43777  0.43777  0.00000  0.12447
       8     H     0.44387  0.44387  0.00000  0.11226

   Total alpha = 16.00000, Total beta = 16.00000, Total charge = -0.00000

*** Psi4 exiting successfully. Buy a developer a beer!
