                              Psi4 1.0.54 Driver

  ==> Input File <==

--------------------------------------------------------------------------
set {
	reference rhf
	basis cc-pvtz
}

set_num_threads( 4 )
memory 2 gb

molecule MOL {
0 1

H	 -2.830262	 0.333238	 -0.228236
O	 -2.041679	 -0.058866	 0.103463
C	 -0.959304	 0.780994	 -0.094939
C	 0.354905	 0.037902	 -0.006215
H	 -0.985899	 1.279578	 -1.057596
H	 -0.969809	 1.529522	 0.682889
F	 0.412060	 -0.931028	 -0.902708
F	 1.359641	 0.856111	 -0.239961
F	 0.545380	 -0.506387	 1.171682

	symmetry c1
}
set optking {
	frozen_dihedral = ("
		1 2 3 5
	")
}

ee,wfn = optimize('scf', return_wfn=True)
oeprop( wfn, 'DIPOLE', 'QUADRUPOLE', 'MULLIKEN_CHARGES')
f=open( 'psi4out.xyz', 'w' )
f.write( "9  " )
f.write( str(ee) + "\n" )
f.write( MOL.save_string_xyz() )
f.close()
--------------------------------------------------------------------------

    Molecular point group: c1
  Charge       = 0
  Multiplicity = 1
  Basis Set: CC-PVTZ
  Basis Set:
  @DF-RHF Final Energy:  -450.84300647394036
    Total Energy =                       -450.8430064739403633
    Molecular point group: c1
  Basis Set: CC-PVTZ
  Basis Set:
  Basis Set: CC-PVTZ
  Basis Set:
  @DF-RHF Final Energy:  -450.84420676035154
    Total Energy =                       -450.8442067603515397
  Basis Set: CC-PVTZ
  Basis Set:
  Basis Set: CC-PVTZ
  Basis Set:
  @DF-RHF Final Energy:  -450.84449106980486
    Total Energy =                       -450.8444910698046897
  Basis Set: CC-PVTZ
  Basis Set:
  Basis Set: CC-PVTZ
  Basis Set:
  @DF-RHF Final Energy:  -450.84450029403831
    Total Energy =                       -450.8445002940383688
  Basis Set: CC-PVTZ
  Basis Set:
  Charge       = 0
  Multiplicity = 1
  Basis Set: CC-PVTZ
  Basis Set:

    Orbital Energies (a.u.)
    -----------------------

    Doubly Occupied:

       1A    -26.333697     2A    -26.330227     3A    -26.330041
       4A    -20.582550     5A    -11.490626     6A    -11.310084
       7A     -1.741940     8A     -1.638176     9A     -1.636593
      10A     -1.406279    11A     -1.050758    12A     -0.923537
      13A     -0.833242    14A     -0.831534    15A     -0.788773
      16A     -0.739531    17A     -0.713953    18A     -0.703921
      19A     -0.672435    20A     -0.657457    21A     -0.642767
      22A     -0.641691    23A     -0.600370    24A     -0.531497
      25A     -0.483405

  @DF-RHF Final Energy:  -450.84450324187657

   => Energetics <=

    Nuclear Repulsion Energy =            277.7883417130502153
    One-Electron Energy =               -1178.0355203908420663
    Two-Electron Energy =                 449.4026754359151710
    DFT Exchange-Correlation Energy =       0.0000000000000000
    Empirical Dispersion Energy =           0.0000000000000000
    PCM Polarization Energy =               0.0000000000000000
    EFP Energy =                            0.0000000000000000
    Total Energy =                       -450.8445032418767369
    Molecular point group: c1
  Basis Set: CC-PVTZ
  Basis Set:

  -Total Gradient:
     Atom            X                  Y                   Z
    ------   -----------------  -----------------  -----------------
       1        0.000058114706    -0.000129016284    -0.000236869430
       2       -0.000047914897     0.000276894531     0.000260020758
       3        0.000194539198    -0.000305600786    -0.000091906251
       4        0.000057245354     0.000191190260     0.000040897886
       5       -0.000179991898     0.000135911180     0.000096423867
       6       -0.000015023899     0.000004540781    -0.000009547657
       7        0.000032626530    -0.000026411896    -0.000032161950
       8       -0.000079022966    -0.000113625461    -0.000027094744
       9       -0.000020572128    -0.000033882317     0.000000237519

  **** Optimization is complete! (in 5 steps) ****
    Final optimized geometry and variables:
    Molecular point group: c1

    Geometry (in Angstrom), charge = 0, multiplicity = 1:

    H           -2.792762100245     0.267417774765    -0.228823422829
    O           -1.994781173014    -0.077067620662     0.126293109538
    C           -0.942836697600     0.797726523499    -0.101162327875
    C            0.350750662894     0.023018552750    -0.020021964735
    H           -0.981594933600     1.249527207685    -1.085300221695
    H           -0.896452556083     1.584307594752     0.643787365756
    F            0.425518755727    -0.910488654967    -0.940347501110
    F            1.366617611874     0.845214115965    -0.202350583444
    F            0.509043645942    -0.552765342677     1.148474658910

  Mulliken Charges: (a.u.)
   Center  Symbol    Alpha    Beta     Spin     Total
       1     H     0.38913  0.38913  0.00000  0.22174
       2     O     4.18632  4.18632  0.00000 -0.37264
       3     C     2.98611  2.98611  0.00000  0.02777
       4     C     2.67650  2.67650  0.00000  0.64700
       5     H     0.46480  0.46480  0.00000  0.07041
       6     H     0.46490  0.46490  0.00000  0.07020
       7     F     4.60932  4.60932  0.00000 -0.21864
       8     F     4.61431  4.61431  0.00000 -0.22861
       9     F     4.60861  4.60861  0.00000 -0.21723

   Total alpha = 25.00000, Total beta = 25.00000, Total charge =  0.00000

*** Psi4 exiting successfully. Buy a developer a beer!
