  ==> Input File <==

--------------------------------------------------------------------------
set {
	reference rhf
	basis cc-pvtz
}

set_num_threads( 4 )
memory 2 gb

molecule MOL {
0 1

H	 -0.939693	 0.000281	 1.681345
O	 -0.046262	 -0.000157	 1.387678
C	 -0.000837	 0.000006	 -0.025491
C	 1.261825	 0.719058	 -0.496444
C	 -0.027694	 -1.438611	 -0.538137
C	 -1.247179	 0.753471	 -0.469461
H	 1.306472	 0.766896	 -1.578347
H	 2.151344	 0.200928	 -0.150946
H	 1.286675	 1.728472	 -0.105385
H	 -0.030314	 -1.469749	 -1.621562
H	 0.844105	 -1.986437	 -0.193279
H	 -0.911308	 -1.949345	 -0.176415
H	 -1.301910	 0.807025	 -1.550398
H	 -1.236557	 1.761199	 -0.073757
H	 -2.136165	 0.256014	 -0.102778

	symmetry c1
}
set optking {
	frozen_dihedral = ("
		4 3 2 1
	")
}

ee = optimize('scf')
oeprop('DIPOLE', 'QUADRUPOLE', 'MULLIKEN_CHARGES')
f=open( 'psi4out.xyz', 'w' )
f.write( "15  " )
f.write( str(ee) + "\n" )
f.write( MOL.save_string_xyz() )
f.close()
--------------------------------------------------------------------------

    Molecular point group: c1
  Charge       = 0
  Multiplicity = 1
  Basis Set: CC-PVTZ
  Basis Set:
  @DF-RHF Final Energy:  -232.24378601826484
    Total Energy =                       -232.2437860182650411
    Molecular point group: c1
  Basis Set: CC-PVTZ
  Basis Set:
  Basis Set: CC-PVTZ
  Basis Set:
  @DF-RHF Final Energy:  -232.24534565865466
    Total Energy =                       -232.2453456586545713
  Basis Set: CC-PVTZ
  Basis Set:
  Basis Set: CC-PVTZ
  Basis Set:
  @DF-RHF Final Energy:  -232.24576383346275
    Total Energy =                       -232.2457638334630587
  Basis Set: CC-PVTZ
  Basis Set:
  Basis Set: CC-PVTZ
  Basis Set:
  @DF-RHF Final Energy:  -232.24576824500281
    Total Energy =                       -232.2457682450028642
  Basis Set: CC-PVTZ
  Basis Set:
  Basis Set: CC-PVTZ
  Basis Set:
  @DF-RHF Final Energy:  -232.24576988559542
    Total Energy =                       -232.2457698855953936
  Basis Set: CC-PVTZ
  Basis Set:
  Charge       = 0
  Multiplicity = 1
  Basis Set: CC-PVTZ
  Basis Set:

    Orbital Energies (a.u.)
    -----------------------

    Doubly Occupied:

       1A    -20.541231     2A    -11.280974     3A    -11.214093
       4A    -11.205204     5A    -11.203557     6A     -1.363863
       7A     -1.065492     8A     -0.944663     9A     -0.938141
      10A     -0.778552    11A     -0.672211    12A     -0.624459
      13A     -0.622926    14A     -0.576199    15A     -0.557585
      16A     -0.533679    17A     -0.517068    18A     -0.511317
      19A     -0.504089    20A     -0.458083    21A     -0.427962

  @DF-RHF Final Energy:  -232.24577009121444

   => Energetics <=

    Nuclear Repulsion Energy =            200.6255180858526330
    One-Electron Energy =                -712.6598893666399590
    Two-Electron Energy =                 279.7886011895725460
    DFT Exchange-Correlation Energy =       0.0000000000000000
    Empirical Dispersion Energy =           0.0000000000000000
    PCM Polarization Energy =               0.0000000000000000
    EFP Energy =                            0.0000000000000000
    Total Energy =                       -232.2457700912148084
    Molecular point group: c1
  Basis Set: CC-PVTZ
  Basis Set:

  -Total Gradient:
     Atom            X                  Y                   Z
    ------   -----------------  -----------------  -----------------
       1        0.000028919305     0.001894088481     0.000037433470
       2       -0.000227898954    -0.002031793727    -0.000009366734
       3        0.000749169708    -0.000858940206    -0.000006544374
       4       -0.000557717446     0.001015300280    -0.000002918688
       5       -0.000010779799     0.000004228485    -0.000021772844
       6        0.000010694856    -0.000008783136     0.000006237442
       7        0.000008389586     0.000007378463     0.000002159234
       8       -0.000012679102    -0.000010771949     0.000001914000
       9        0.000005853667     0.000006912712     0.000001983720
      10       -0.000002116436    -0.000010857230    -0.000000588708
      11       -0.000001707716     0.000006926071    -0.000001633445
      12       -0.000002785583    -0.000004627362     0.000001379968
      13       -0.000000834704     0.000001141229    -0.000011625158
      14        0.000003477974    -0.000010700156     0.000000357995
      15        0.000010014644     0.000000498046     0.000002984124

  **** Optimization is complete! (in 6 steps) ****
    Final optimized geometry and variables:
    Molecular point group: c1

    Geometry (in Angstrom), charge = 0, multiplicity = 1:

    H           -0.818551470362    -0.016280592230     1.748480171198
    O            0.049446511626    -0.024464213553     1.389659570631
    C            0.000537426879    -0.004331173714    -0.025302455235
    C            1.264908480808     0.715401019198    -0.477434460268
    C           -0.022406520946    -1.441617905012    -0.540353295558
    C           -1.239978921352     0.755533239615    -0.488946061852
    H            1.332220523963     0.741316957949    -1.558908665116
    H            2.140498781285     0.208394339655    -0.091395342179
    H            1.272547226512     1.731718749040    -0.104357019744
    H           -0.021807964173    -1.472694692636    -1.624241679792
    H            0.845063390570    -1.979755407687    -0.179658215281
    H           -0.908340853864    -1.958558719612    -0.187867066212
    H           -1.282246872726     0.810844577651    -1.569897229276
    H           -1.235276401495     1.765345510624    -0.095903686718
    H           -2.145298818726     0.260439840653    -0.149463665114

  Mulliken Charges: (a.u.)
   Center  Symbol    Alpha    Beta     Spin     Total
       1     H     0.39377  0.39377  0.00000  0.21247
       2     O     4.21338  4.21338  0.00000 -0.42677
       3     C     2.87901  2.87901  0.00000  0.24198
       4     C     3.14115  3.14115  0.00000 -0.28229
       5     C     3.14408  3.14408  0.00000 -0.28816
       6     C     3.15757  3.15757  0.00000 -0.31513
       7     H     0.45920  0.45920  0.00000  0.08160
       8     H     0.44724  0.44724  0.00000  0.10551
       9     H     0.45100  0.45100  0.00000  0.09800
      10     H     0.45798  0.45798  0.00000  0.08404
      11     H     0.44803  0.44803  0.00000  0.10395
      12     H     0.45491  0.45491  0.00000  0.09018
      13     H     0.45233  0.45233  0.00000  0.09533
      14     H     0.44562  0.44562  0.00000  0.10876
      15     H     0.45473  0.45473  0.00000  0.09054

   Total alpha = 21.00000, Total beta = 21.00000, Total charge = -0.00000
