  ==> Input File <==

--------------------------------------------------------------------------
set {
	reference rhf
	basis 6-31G*
}

set_num_threads( 4 )
memory 2 gb

molecule MOL {
0 1

H	 0.784333	 3.366818	 1.564362
O	 1.512923	 2.896223	 1.183053
C	 1.105816	 1.744130	 0.613735
C	 2.077863	 0.950166	 0.013163
C	 -0.215698	 1.341975	 0.611066
H	 3.098047	 1.284603	 0.028483
C	 1.723877	 -0.240731	 -0.586440
H	 -0.985129	 1.933861	 1.066227
C	 -0.536158	 0.140425	 0.000000
H	 2.480766	 -0.847504	 -1.047746
C	 0.402498	 -0.666813	 -0.602361
N	 -1.935604	 -0.280333	 0.000000
H	 0.112487	 -1.588037	 -1.063496
O	 -2.161694	 -1.452901	 0.000000
O	 -2.770341	 0.571417	 0.000000

	symmetry c1
}
set optking {
	frozen_dihedral = ("
		11 9 12 14
	")
}

ee = optimize('scf')
oeprop('DIPOLE', 'QUADRUPOLE', 'MULLIKEN_CHARGES')
f=open( 'psi4out.xyz', 'w' )
f.write( "15  " )
f.write( str(ee) + "\n" )
f.write( MOL.save_string_xyz() )
f.close()
--------------------------------------------------------------------------

    Molecular point group: c1
  Charge       = 0
  Multiplicity = 1
  Basis Set: 6-31G*
  Basis Set:
  @DF-RHF Final Energy:  -509.02593420328424
    Total Energy =                       -509.0259342032844643
    Molecular point group: c1
  Basis Set: 6-31G*
  Basis Set:
  Basis Set: 6-31G*
  Basis Set:
  @DF-RHF Final Energy:  -509.01889331996028
    Total Energy =                       -509.0188933199602843
  Basis Set: 6-31G*
  Basis Set:
  Basis Set: 6-31G*
  Basis Set:
  @DF-RHF Final Energy:  -509.02594262623961
    Total Energy =                       -509.0259426262399529
  Basis Set: 6-31G*
  Basis Set:
  Basis Set: 6-31G*
  Basis Set:
  @DF-RHF Final Energy:  -509.02615462638784
    Total Energy =                       -509.0261546263875516
  Basis Set: 6-31G*
  Basis Set:
  Basis Set: 6-31G*
  Basis Set:
  @DF-RHF Final Energy:  -509.02615549109873
    Total Energy =                       -509.0261554910981658
  Basis Set: 6-31G*
  Basis Set:
  Charge       = 0
  Multiplicity = 1
  Basis Set: 6-31G*
  Basis Set:

    Orbital Energies (a.u.)
    -----------------------

    Doubly Occupied:

       1A    -20.616413     2A    -20.606439     3A    -20.605862
       4A    -15.859101     5A    -11.331457     6A    -11.312292
       7A    -11.267968     8A    -11.267483     9A    -11.264080
      10A    -11.259628    11A     -1.638656    12A     -1.437201
      13A     -1.422294    14A     -1.201404    15A     -1.095603
      16A     -1.047322    17A     -0.966256    18A     -0.880353
      19A     -0.828975    20A     -0.790318    21A     -0.756141
      22A     -0.735447    23A     -0.721693    24A     -0.709463
      25A     -0.672133    26A     -0.635457    27A     -0.616553
      28A     -0.594298    29A     -0.560387    30A     -0.546317
      31A     -0.520391    32A     -0.491478    33A     -0.489874
      34A     -0.454147    35A     -0.376464    36A     -0.343191

  @DF-RHF Final Energy:  -509.02615692964019

   => Energetics <=

    Nuclear Repulsion Energy =            503.4301242860130401
    One-Electron Energy =               -1693.0674818044003587
    Two-Electron Energy =                 680.6112005887473515
    DFT Exchange-Correlation Energy =       0.0000000000000000
    Empirical Dispersion Energy =           0.0000000000000000
    PCM Polarization Energy =               0.0000000000000000
    EFP Energy =                            0.0000000000000000
    Total Energy =                       -509.0261569296399102
    Molecular point group: c1
  Basis Set: 6-31G*
  Basis Set:

  -Total Gradient:
     Atom            X                  Y                   Z
    ------   -----------------  -----------------  -----------------
       1        0.000002213531    -0.000007584015     0.000014249092
       2       -0.000003977676     0.000017781767    -0.000020038428
       3        0.000001850086    -0.000015691733     0.000004806292
       4        0.000000601247     0.000002604065     0.000010324609
       5        0.000002981209    -0.000006809666     0.000000311837
       6       -0.000000862833    -0.000000619066    -0.000002755124
       7       -0.000002898257    -0.000005990067     0.000004856444
       8        0.000001436270     0.000002978324    -0.000002710987
       9        0.000552641112    -0.002225312590     0.005087292175
      10       -0.000000367753     0.000000013544    -0.000000882420
      11       -0.000386866802     0.001520338049    -0.002617382239
      12       -0.000141898305     0.000915050345    -0.005944721054
      13        0.000002801443     0.000002345259     0.000004072078
      14       -0.000061971103    -0.000150243125     0.003463822642
      15        0.000034317837    -0.000048861096    -0.000001244919

  **** Optimization is complete! (in 6 steps) ****
    Final optimized geometry and variables:
    Molecular point group: c1

    Geometry (in Angstrom), charge = 0, multiplicity = 1:

    H            0.935511438047     2.854079138806     1.413506153651
    O            1.665234390852     2.377193486437     1.042405793982
    C            1.258168075732     1.226143617533     0.472060053260
    C            2.229751028770     0.434195356076    -0.132354843119
    C           -0.064308405496     0.825429849138     0.465526190750
    H            3.249008843437     0.771663179566    -0.121308203926
    C            1.876496557664    -0.755830871907    -0.734069470008
    H           -0.838372801923     1.426205814703     0.902655207473
    C           -0.377828767946    -0.385251310103    -0.127741360743
    H            2.632179489689    -1.355947195963    -1.205976274226
    C            0.556958953780    -1.188917391584    -0.738257449853
    N           -1.777809423136    -0.794381551802    -0.152705074266
    H            0.266473786044    -2.114942703606    -1.191352682471
    O           -2.008285539066    -1.964470534337    -0.181237663069
    O           -2.604743199827     0.066249445404    -0.118404354168

  Mulliken Charges: (a.u.)
   Center  Symbol    Alpha    Beta     Spin     Total
       1     H     0.26731  0.26731  0.00000  0.46539
       2     O     4.37526  4.37526  0.00000 -0.75052
       3     C     2.79291  2.79291  0.00000  0.41418
       4     C     3.10997  3.10997  0.00000 -0.21994
       5     C     3.13528  3.13528  0.00000 -0.27055
       6     H     0.38115  0.38115  0.00000  0.23770
       7     C     3.09998  3.09998  0.00000 -0.19997
       8     H     0.37160  0.37160  0.00000  0.25681
       9     C     2.90437  2.90437  0.00000  0.19126
      10     H     0.38654  0.38654  0.00000  0.22692
      11     C     3.09880  3.09880  0.00000 -0.19759
      12     N     3.25024  3.25024  0.00000  0.49951
      13     H     0.36874  0.36874  0.00000  0.26252
      14     O     4.22672  4.22672  0.00000 -0.45344
      15     O     4.23114  4.23114  0.00000 -0.46227

   Total alpha = 36.00000, Total beta = 36.00000, Total charge = -0.00000
