  ==> Input File <==

--------------------------------------------------------------------------
set {
	reference rhf
	basis 6-31G*
}

set_num_threads( 4 )
memory 2 gb

molecule MOL {
0 1

H	 -2.646374	 -0.642757	 1.268656
C	 -2.083525	 -0.384536	 0.393091
O	 -0.807605	 -0.127164	 0.768327
F	 -2.118945	 -1.383102	 -0.486752
F	 -2.621877	 0.670592	 -0.209486
C	 -0.609356	 0.735051	 1.831328
C	 0.476135	 1.717359	 1.410685
Cl	 -0.117861	 -0.154133	 3.282190
H	 -1.495473	 1.294346	 2.075785
F	 0.710950	 2.582929	 2.373904
F	 0.058008	 2.384768	 0.353721
F	 1.597929	 1.113217	 1.103174

	symmetry c1
}
set optking {
	frozen_dihedral = ("
		6 3 2 4
	")
}

ee = optimize('scf')
oeprop('DIPOLE', 'QUADRUPOLE', 'MULLIKEN_CHARGES')
f=open( 'psi4out.xyz', 'w' )
f.write( "12  " )
f.write( str(ee) + "\n" )
f.write( MOL.save_string_xyz() )
f.close()
--------------------------------------------------------------------------

    Molecular point group: c1
  Charge       = 0
  Multiplicity = 1
  Basis Set: 6-31G*
  Basis Set:
  @DF-RHF Final Energy: -1146.30815097745426
    Total Energy =                      -1146.3081509774540336
    Molecular point group: c1
  Basis Set: 6-31G*
  Basis Set:
  Basis Set: 6-31G*
  Basis Set:
  @DF-RHF Final Energy: -1146.31030467810206
    Total Energy =                      -1146.3103046781018293
  Basis Set: 6-31G*
  Basis Set:
  Basis Set: 6-31G*
  Basis Set:
  @DF-RHF Final Energy: -1146.31135035764123
    Total Energy =                      -1146.3113503576407766
  Basis Set: 6-31G*
  Basis Set:
  Basis Set: 6-31G*
  Basis Set:
  @DF-RHF Final Energy: -1146.31185366955242
    Total Energy =                      -1146.3118536695521925
  Basis Set: 6-31G*
  Basis Set:
  Basis Set: 6-31G*
  Basis Set:
  @DF-RHF Final Energy: -1146.31193167669790
    Total Energy =                      -1146.3119316766976681
  Basis Set: 6-31G*
  Basis Set:
  Basis Set: 6-31G*
  Basis Set:
  @DF-RHF Final Energy: -1146.31195132134144
    Total Energy =                      -1146.3119513213418941
  Basis Set: 6-31G*
  Basis Set:
  Basis Set: 6-31G*
  Basis Set:
  @DF-RHF Final Energy: -1146.31195391588517
    Total Energy =                      -1146.3119539158856242
  Basis Set: 6-31G*
  Basis Set:
  Charge       = 0
  Multiplicity = 1
  Basis Set: 6-31G*
  Basis Set:

    Orbital Energies (a.u.)
    -----------------------

    Doubly Occupied:

       1A   -104.853365     2A    -26.363826     3A    -26.361672
       4A    -26.361062     5A    -26.345462     6A    -26.344313
       7A    -20.651272     8A    -11.532839     9A    -11.489020
      10A    -11.408185    11A    -10.588146    12A     -8.057440
      13A     -8.054043    14A     -8.053874    15A     -1.765061
      16A     -1.716625    17A     -1.661403    18A     -1.659844
      19A     -1.640055    20A     -1.490131    21A     -1.182462
      22A     -1.060379    23A     -0.983452    24A     -0.926975
      25A     -0.861775    26A     -0.856217    27A     -0.849266
      28A     -0.825052    29A     -0.814460    30A     -0.790507
      31A     -0.731249    32A     -0.727685    33A     -0.699675
      34A     -0.689677    35A     -0.686882    36A     -0.676071
      37A     -0.667509    38A     -0.661119    39A     -0.658874
      40A     -0.639212    41A     -0.602520    42A     -0.572042
      43A     -0.521150    44A     -0.488450    45A     -0.478734

  @DF-RHF Final Energy: -1146.31195591827782

   => Energetics <=

    Nuclear Repulsion Energy =            727.3932710467789775
    One-Electron Energy =               -3037.3123897867021697
    Two-Electron Energy =                1163.6071628216452609
    DFT Exchange-Correlation Energy =       0.0000000000000000
    Empirical Dispersion Energy =           0.0000000000000000
    PCM Polarization Energy =               0.0000000000000000
    EFP Energy =                            0.0000000000000000
    Total Energy =                      -1146.3119559182780449
    Molecular point group: c1
  Basis Set: 6-31G*
  Basis Set:

  -Total Gradient:
     Atom            X                  Y                   Z
    ------   -----------------  -----------------  -----------------
       1       -0.000043017814     0.000015446350     0.000027512125
       2       -0.000253086000     0.000938961682    -0.001110278038
       3       -0.000674794488     0.001697523509    -0.001056709912
       4        0.000440705271    -0.001254846228     0.001136387931
       5        0.000025843010    -0.000007303181     0.000071659809
       6        0.000535944486    -0.001453390703     0.000896063495
       7        0.000004418700     0.000044953198    -0.000039490363
       8       -0.000004131272     0.000010958100    -0.000001216419
       9        0.000038146152     0.000033221889     0.000020249346
      10       -0.000008740761     0.000001444851     0.000035763420
      11       -0.000012176056    -0.000005188509     0.000011842901
      12       -0.000049111223    -0.000021780952     0.000008215653

  **** Optimization is complete! (in 8 steps) ****
    Final optimized geometry and variables:
    Molecular point group: c1

    Geometry (in Angstrom), charge = 0, multiplicity = 1:

    H           -1.902327590914    -1.620998073285     0.058533237568
    C           -1.553171785381    -1.124438294247    -0.830571397701
    O           -0.320225582723    -0.566199686509    -0.676173499341
    F           -1.459895252802    -1.986189237098    -1.818920508550
    F           -2.432850461852    -0.182817288504    -1.166109275974
    C           -0.115787493801     0.212869410821     0.434255345340
    C            1.115175300730     1.064795789861     0.148504961319
    CL           0.133106790927    -0.771174153182     1.900217903164
    H           -0.945184977173     0.872436310569     0.632460871808
    F            1.366382146168     1.854492835720     1.170941431377
    F            0.877054116347     1.819942487126    -0.902607139626
    F            2.174753151841     0.333625095416    -0.091738982920

  Mulliken Charges: (a.u.)
   Center  Symbol    Alpha    Beta     Spin     Total
       1     H     0.41354  0.41354  0.00000  0.17291
       2     C     2.56814  2.56814  0.00000  0.86371
       3     O     4.29644  4.29644  0.00000 -0.59288
       4     F     4.67011  4.67011  0.00000 -0.34023
       5     F     4.68385  4.68385  0.00000 -0.36770
       6     C     3.04191  3.04191  0.00000 -0.08382
       7     C     2.42930  2.42930  0.00000  1.14141
       8    CL     8.51086  8.51086  0.00000 -0.02172
       9     H     0.37049  0.37049  0.00000  0.25902
      10     F     4.67470  4.67470  0.00000 -0.34941
      11     F     4.67371  4.67371  0.00000 -0.34741
      12     F     4.66694  4.66694  0.00000 -0.33389

   Total alpha = 45.00000, Total beta = 45.00000, Total charge = -0.00000
