  ==> Input File <==

--------------------------------------------------------------------------
set {
	reference rhf
	basis cc-pvtz
}

set_num_threads( 4 )
memory 2 gb

molecule MOL {
0 1

H	 -2.498963	 -0.741158	 -0.729149
O	 -2.346257	 -0.289210	 0.080372
C	 -1.183935	 0.486039	 -0.009831
C	 0.062853	 -0.375310	 0.027457
H	 -1.178881	 1.094526	 -0.908634
H	 -1.184406	 1.155156	 0.838676
O	 1.172093	 0.457955	 -0.054438
H	 0.052476	 -1.081302	 -0.804627
H	 0.076323	 -0.955658	 0.947560
C	 0.913332	 1.716695	 -0.583436
H	 0.192100	 2.261533	 0.021750
H	 1.842433	 2.267391	 -0.597276
H	 0.529850	 1.649743	 -1.598807

	symmetry c1
}
set optking {
	frozen_dihedral = ("
		10 7 4 8
	")
}

ee = optimize('scf')
oeprop('DIPOLE', 'QUADRUPOLE', 'MULLIKEN_CHARGES')
f=open( 'psi4out.xyz', 'w' )
f.write( "13  " )
f.write( str(ee) + "\n" )
f.write( MOL.save_string_xyz() )
f.close()
--------------------------------------------------------------------------

    Molecular point group: c1
  Charge       = 0
  Multiplicity = 1
  Basis Set: CC-PVTZ
  Basis Set:
  @DF-RHF Final Energy:  -268.03796867643780
    Total Energy =                       -268.0379686764378562
    Molecular point group: c1
  Basis Set: CC-PVTZ
  Basis Set:
  Basis Set: CC-PVTZ
  Basis Set:
  @DF-RHF Final Energy:  -268.04088019232876
    Total Energy =                       -268.0408801923289275
  Basis Set: CC-PVTZ
  Basis Set:
  Basis Set: CC-PVTZ
  Basis Set:
  @DF-RHF Final Energy:  -268.04821579084796
    Total Energy =                       -268.0482157908479621
  Basis Set: CC-PVTZ
  Basis Set:
  Basis Set: CC-PVTZ
  Basis Set:
  @DF-RHF Final Energy:  -268.05125934725226
    Total Energy =                       -268.0512593472524259
  Basis Set: CC-PVTZ
  Basis Set:
  @DF-RHF Final Energy:  -268.05189999888080
    Total Energy =                       -268.0518999988808559
  Basis Set: CC-PVTZ
  Basis Set:
  @DF-RHF Final Energy:  -268.05232795290476
    Total Energy =                       -268.0523279529047613
  Basis Set: CC-PVTZ
  Basis Set:
  Basis Set: CC-PVTZ
  Basis Set:
  @DF-RHF Final Energy:  -268.05239767450354
    Total Energy =                       -268.0523976745034247
  Basis Set: CC-PVTZ
  Basis Set:
  Basis Set: CC-PVTZ
  Basis Set:
  @DF-RHF Final Energy:  -268.05240414071511
    Total Energy =                       -268.0524041407151685
  Basis Set: CC-PVTZ
  Basis Set:
  Charge       = 0
  Multiplicity = 1
  Basis Set: CC-PVTZ
  Basis Set:

    Orbital Energies (a.u.)
    -----------------------

    Doubly Occupied:

       1A    -20.558248     2A    -20.551379     3A    -11.275642
       4A    -11.269862     5A    -11.268402     6A     -1.385442
       7A     -1.372584     8A     -1.014264     9A     -0.939763
      10A     -0.829647    11A     -0.713637    12A     -0.677938
      13A     -0.666193    14A     -0.634617    15A     -0.600378
      16A     -0.571285    17A     -0.540300    18A     -0.514350
      19A     -0.494707    20A     -0.434290    21A     -0.413589

  @DF-RHF Final Energy:  -268.05240490027711

   => Energetics <=

    Nuclear Repulsion Energy =            192.9755058290238594
    One-Electron Energy =                -748.6027864822235642
    Two-Electron Energy =                 287.5748757529228214
    DFT Exchange-Correlation Energy =       0.0000000000000000
    Empirical Dispersion Energy =           0.0000000000000000
    PCM Polarization Energy =               0.0000000000000000
    EFP Energy =                            0.0000000000000000
    Total Energy =                       -268.0524049002768834
    Molecular point group: c1
  Basis Set: CC-PVTZ
  Basis Set:

  -Total Gradient:
     Atom            X                  Y                   Z
    ------   -----------------  -----------------  -----------------
       1       -0.000014438912    -0.000004655313     0.000000171845
       2        0.000020722319    -0.000004120251    -0.000035373633
       3       -0.000010463034     0.000023226638     0.000068863887
       4       -0.003283033617     0.004611483456    -0.001617279185
       5        0.000005992965    -0.000015369452    -0.000002709497
       6       -0.000002138220     0.000017225373    -0.000002089441
       7        0.001902641664    -0.003007566975    -0.004736716624
       8        0.002255254564    -0.003129171764     0.002712847913
       9       -0.000009575751     0.000009759240    -0.000006806383
      10       -0.000869729956     0.001493241891     0.003630390595
      11        0.000006556734    -0.000001612334    -0.000009762824
      12       -0.000001449117     0.000010520714    -0.000003463619
      13       -0.000000339641    -0.000002961218     0.000001926969

  **** Optimization is complete! (in 9 steps) ****
    Final optimized geometry and variables:
    Molecular point group: c1

    Geometry (in Angstrom), charge = 0, multiplicity = 1:

    H           -2.145450451802    -1.381465610072    -0.506611249279
    O           -2.059159709790    -0.861597423131     0.271931408137
    C           -1.015342112663     0.059361387269     0.124912913899
    C            0.319000555982    -0.673232959222     0.089651684979
    H           -1.163806431614     0.667290352883    -0.761420258888
    H           -1.061800381374     0.713147927505     0.984934581377
    O            1.475967684569     0.111703799873     0.050549268572
    H            0.334910095856    -1.379667910751    -0.740933659308
    H            0.383883110832    -1.270785905166     0.989877458638
    C            1.420137636588     1.395720675207    -0.483567515648
    H            0.769227193438     2.052968084693     0.083147937101
    H            2.423197322588     1.794376006353    -0.441801969390
    H            1.097404268982     1.396149711122    -1.522223552683

  Mulliken Charges: (a.u.)
   Center  Symbol    Alpha    Beta     Spin     Total
       1     H     0.39312  0.39312  0.00000  0.21377
       2     O     4.19984  4.19984  0.00000 -0.39967
       3     C     2.99093  2.99093  0.00000  0.01814
       4     C     2.97385  2.97385  0.00000  0.05231
       5     H     0.46707  0.46707  0.00000  0.06587
       6     H     0.44740  0.44740  0.00000  0.10520
       7     O     4.17853  4.17853  0.00000 -0.35705
       8     H     0.47601  0.47601  0.00000  0.04798
       9     H     0.45418  0.45418  0.00000  0.09165
      10     C     3.03694  3.03694  0.00000 -0.07388
      11     H     0.46864  0.46864  0.00000  0.06272
      12     H     0.44138  0.44138  0.00000  0.11725
      13     H     0.47213  0.47213  0.00000  0.05574

   Total alpha = 21.00000, Total beta = 21.00000, Total charge = -0.00000
