  ==> Input File <==

--------------------------------------------------------------------------
set {
	reference rhf
	basis 6-31G*
}

set_num_threads( 4 )
memory 2 gb

molecule MOL {
0 1

H	 2.332609	 0.878551	 -1.051851
C	 2.357710	 0.000000	 -0.417167
C	 1.175432	 0.000000	 0.532082
H	 3.291263	 0.000000	 0.136880
H	 2.332609	 -0.878551	 -1.051851
O	 0.000000	 0.000000	 -0.221444
H	 1.206604	 0.877321	 1.177902
H	 1.206604	 -0.877321	 1.177902
C	 -1.175432	 0.000000	 0.532082
C	 -2.184742	 0.904720	 -0.147353
H	 -0.971957	 0.350013	 1.543929
H	 -1.568069	 -1.013343	 0.614048
H	 -1.798491	 1.915180	 -0.218677
H	 -3.113794	 0.928260	 0.413715
H	 -2.395440	 0.549912	 -1.149861

	symmetry c1
}
set optking {
	frozen_dihedral = ("
		11 9 6 3
	")
}

ee = optimize('scf')
oeprop('DIPOLE', 'QUADRUPOLE', 'MULLIKEN_CHARGES')
f=open( 'psi4out.xyz', 'w' )
f.write( "15  " )
f.write( str(ee) + "\n" )
f.write( MOL.save_string_xyz() )
f.close()
--------------------------------------------------------------------------

    Molecular point group: c1
  Charge       = 0
  Multiplicity = 1
  Basis Set: 6-31G*
  Basis Set:
  @DF-RHF Final Energy:  -232.14180337837200
    Total Energy =                       -232.1418033783720034
    Molecular point group: c1
  Basis Set: 6-31G*
  Basis Set:
  Basis Set: 6-31G*
  Basis Set:
  @DF-RHF Final Energy:  -232.14197958939539
    Total Energy =                       -232.1419795893954188
  Basis Set: 6-31G*
  Basis Set:
  Basis Set: 6-31G*
  Basis Set:
  @DF-RHF Final Energy:  -232.14204630636200
    Total Energy =                       -232.1420463063619195
  Basis Set: 6-31G*
  Basis Set:
  Charge       = 0
  Multiplicity = 1
  Basis Set: 6-31G*
  Basis Set:

    Orbital Energies (a.u.)
    -----------------------

    Doubly Occupied:

       1A    -20.548776     2A    -11.268742     3A    -11.267772
       4A    -11.208800     5A    -11.208564     6A     -1.374211
       7A     -1.043340     8A     -0.982685     9A     -0.848775
      10A     -0.824809    11A     -0.672590    12A     -0.664607
      13A     -0.620061    14A     -0.584473    15A     -0.549550
      16A     -0.533809    17A     -0.522447    18A     -0.497842
      19A     -0.485782    20A     -0.463842    21A     -0.406171

  @DF-RHF Final Energy:  -232.14204680869830

   => Energetics <=

    Nuclear Repulsion Energy =            191.1101531028198224
    One-Electron Energy =                -693.3491030715084662
    Two-Electron Energy =                 270.0969031599903474
    DFT Exchange-Correlation Energy =       0.0000000000000000
    Empirical Dispersion Energy =           0.0000000000000000
    PCM Polarization Energy =               0.0000000000000000
    EFP Energy =                            0.0000000000000000
    Total Energy =                       -232.1420468086982964
    Molecular point group: c1
  Basis Set: 6-31G*
  Basis Set:

  -Total Gradient:
     Atom            X                  Y                   Z
    ------   -----------------  -----------------  -----------------
       1       -0.000000160489    -0.000005249408     0.000002223234
       2        0.000021452255     0.000010605283     0.000017532853
       3        0.000061234202     0.002102286212    -0.000014422175
       4        0.000034753540     0.000003382304    -0.000006559667
       5       -0.000010331145     0.000010013074     0.000015969133
       6        0.000010499426    -0.003749475817     0.000215840234
       7       -0.000013554129    -0.000007786982    -0.000016975499
       8       -0.000002720586     0.000011009612     0.000001076429
       9       -0.000510314687     0.004131263241    -0.001002505092
      10       -0.000019718156    -0.000021723168    -0.000000269118
      11        0.000439793889    -0.002476394441     0.000779592270
      12       -0.000019604316     0.000009088740    -0.000010103686
      13        0.000015219538    -0.000018985825     0.000010824537
      14       -0.000007619499    -0.000002606248     0.000006298846
      15        0.000001070154     0.000004573423     0.000001477701

  **** Optimization is complete! (in 4 steps) ****
    Final optimized geometry and variables:
    Molecular point group: c1

    Geometry (in Angstrom), charge = 0, multiplicity = 1:

    H            2.294354149455     0.685626656521    -1.115364554929
    C            2.325118047048    -0.194110187411    -0.482468679063
    C            1.154372369633    -0.191911953043     0.480745997386
    H            3.265519198115    -0.197866079824     0.060211211870
    H            2.289624732877    -1.071407761205    -1.118354111091
    O           -0.029174475964    -0.177634680575    -0.261616347323
    H            1.198499714175     0.681651187095     1.129904318950
    H            1.191323151167    -1.072931934511     1.120948778363
    C           -1.217559491003    -0.167285421633     0.480242324818
    C           -2.235243662357     0.719542786493    -0.211543131168
    H           -1.029749036203     0.176577694488     1.494946606406
    H           -1.597266169332    -1.184054853290     0.563015571192
    H           -1.878737436272     1.742693229124    -0.259064552976
    H           -3.181227517982     0.705816349949     0.321654224643
    H           -2.407081353471     0.373752460488    -1.224699800736

  Mulliken Charges: (a.u.)
   Center  Symbol    Alpha    Beta     Spin     Total
       1     H     0.41353  0.41353  0.00000  0.17294
       2     C     3.24449  3.24449  0.00000 -0.48899
       3     C     2.98809  2.98809  0.00000  0.02382
       4     H     0.42271  0.42271  0.00000  0.15457
       5     H     0.41327  0.41327  0.00000  0.17346
       6     O     4.31140  4.31140  0.00000 -0.62280
       7     H     0.43182  0.43182  0.00000  0.13635
       8     H     0.43238  0.43238  0.00000  0.13524
       9     C     2.98757  2.98757  0.00000  0.02485
      10     C     3.24288  3.24288  0.00000 -0.48576
      11     H     0.43179  0.43179  0.00000  0.13642
      12     H     0.42740  0.42740  0.00000  0.14519
      13     H     0.41669  0.41669  0.00000  0.16663
      14     H     0.42359  0.42359  0.00000  0.15282
      15     H     0.41237  0.41237  0.00000  0.17526

   Total alpha = 21.00000, Total beta = 21.00000, Total charge =  0.00000
