  ==> Input File <==

--------------------------------------------------------------------------
set {
	reference rhf
	basis 6-31G*
}

set_num_threads( 4 )
memory 2 gb

molecule MOL {
0 1

H	 -3.135461	 -1.215070	 0.001379
O	 -2.310168	 -0.871793	 -0.309793
C	 -2.026376	 0.340750	 0.341611
C	 -0.673256	 0.843270	 -0.132153
H	 -2.792215	 1.080697	 0.115987
H	 -2.013526	 0.200402	 1.421792
C	 0.486613	 -0.083066	 0.235839
H	 -0.715586	 0.970948	 -1.210718
H	 -0.508072	 1.829858	 0.297090
C	 1.840406	 0.433480	 -0.254303
H	 0.300215	 -1.068318	 -0.178947
H	 0.519509	 -0.203625	 1.318070
C	 2.680702	 -0.648475	 -0.931761
H	 1.681135	 1.254123	 -0.950647
H	 2.396070	 0.848874	 0.584225
H	 2.166185	 -1.059391	 -1.795654
H	 3.633442	 -0.253216	 -1.270880
H	 2.886890	 -1.469037	 -0.250091

	symmetry c1
}
set optking {
	frozen_dihedral = ("
		14 10 7 11
	")
}

ee = optimize('scf')
oeprop('DIPOLE', 'QUADRUPOLE', 'MULLIKEN_CHARGES')
f=open( 'psi4out.xyz', 'w' )
f.write( "18  " )
f.write( str(ee) + "\n" )
f.write( MOL.save_string_xyz() )
f.close()
--------------------------------------------------------------------------

    Molecular point group: c1
  Charge       = 0
  Multiplicity = 1
  Basis Set: 6-31G*
  Basis Set:
  @DF-RHF Final Energy:  -271.17481009550613
    Total Energy =                       -271.1748100955060181
    Molecular point group: c1
  Basis Set: 6-31G*
  Basis Set:
  Basis Set: 6-31G*
  Basis Set:
  @DF-RHF Final Energy:  -271.17508254181865
    Total Energy =                       -271.1750825418184832
  Basis Set: 6-31G*
  Basis Set:
  Basis Set: 6-31G*
  Basis Set:
  @DF-RHF Final Energy:  -271.17515515437145
    Total Energy =                       -271.1751551543713958
  Basis Set: 6-31G*
  Basis Set:
  Charge       = 0
  Multiplicity = 1
  Basis Set: 6-31G*
  Basis Set:

    Orbital Energies (a.u.)
    -----------------------

    Doubly Occupied:

       1A    -20.553034     2A    -11.267886     3A    -11.212522
       4A    -11.210370     5A    -11.206051     6A    -11.204128
       7A     -1.359724     8A     -1.072472     9A     -1.008080
      10A     -0.912453    11A     -0.819418    12A     -0.783578
      13A     -0.704167    14A     -0.641041    15A     -0.619751
      16A     -0.580124    17A     -0.571500    18A     -0.562681
      19A     -0.513924    20A     -0.502232    21A     -0.495225
      22A     -0.466070    23A     -0.451157    24A     -0.446837
      25A     -0.428895

  @DF-RHF Final Energy:  -271.17515481681539

   => Energetics <=

    Nuclear Repulsion Energy =            249.3053346910712662
    One-Electron Energy =                -861.7743371475751246
    Two-Electron Energy =                 341.2938476396884653
    DFT Exchange-Correlation Energy =       0.0000000000000000
    Empirical Dispersion Energy =           0.0000000000000000
    PCM Polarization Energy =               0.0000000000000000
    EFP Energy =                            0.0000000000000000
    Total Energy =                       -271.1751548168153931
    Molecular point group: c1
  Basis Set: 6-31G*
  Basis Set:

  -Total Gradient:
     Atom            X                  Y                   Z
    ------   -----------------  -----------------  -----------------
       1       -0.000002802560     0.000004359752    -0.000000833644
       2       -0.000072361816     0.000042452406    -0.000016065908
       3        0.000085783317    -0.000060730126     0.000136537297
       4        0.000020642299     0.000049905976    -0.000140356793
       5        0.000000859237    -0.000024774594    -0.000008926860
       6       -0.000034147706    -0.000012394146     0.000010596868
       7       -0.001711861483     0.002160983692    -0.002566889691
       8        0.000004473481    -0.000015028105    -0.000015078964
       9        0.000020871760    -0.000010576100    -0.000038051133
      10        0.000286169775    -0.002856285956    -0.002409226797
      11        0.001438827724    -0.001319019138     0.002528469757
      12        0.000021248311     0.000008618125     0.000016484192
      13       -0.000031001992    -0.000067042609    -0.000007069290
      14        0.000002982767     0.002044781490     0.002473022743
      15       -0.000001267445     0.000000478479     0.000007666120
      16        0.000008269904     0.000026597182    -0.000007606526
      17       -0.000006465378     0.000033319694     0.000045271388
      18       -0.000030220198    -0.000005646021    -0.000007942760

  **** Optimization is complete! (in 4 steps) ****
    Final optimized geometry and variables:
    Molecular point group: c1

    Geometry (in Angstrom), charge = 0, multiplicity = 1:

    H           -3.106769932884    -1.169695025787     0.231198825298
    O           -2.285026172787    -0.836030294262    -0.099253210461
    C           -1.975128798170     0.376316732390     0.540512167618
    C           -0.629168398825     0.864704399849     0.033648710535
    H           -2.739278659582     1.122348413865     0.329463441511
    H           -1.938701869646     0.240193337236     1.620698906647
    C            0.530400555200    -0.072122454377     0.373001285845
    H           -0.693715657943     0.993285027619    -1.043713037790
    H           -0.442450289818     1.849319985197     0.458874424444
    C            1.903172243698     0.455318475766    -0.094668494124
    H            0.342109148247    -1.052405370195    -0.050928156083
    H            0.553664362771    -0.226003218113     1.450388311397
    C            2.780900132658    -0.614885147218    -0.740994997167
    H            1.765302825704     1.284592054930    -0.784687653599
    H            2.433018633580     0.881970516822     0.753668552416
    H            2.310371577072    -1.018505905962    -1.632875958280
    H            3.748374809562    -0.212898742423    -1.026656438802
    H            2.954183311952    -1.441736896299    -0.057806335263

  Mulliken Charges: (a.u.)
   Center  Symbol    Alpha    Beta     Spin     Total
       1     H     0.28059  0.28059  0.00000  0.43882
       2     O     4.36956  4.36956  0.00000 -0.73912
       3     C     2.99782  2.99782  0.00000  0.00436
       4     C     3.16182  3.16182  0.00000 -0.32364
       5     H     0.42927  0.42927  0.00000  0.14146
       6     H     0.43257  0.43257  0.00000  0.13485
       7     C     3.15696  3.15696  0.00000 -0.31392
       8     H     0.41474  0.41474  0.00000  0.17052
       9     H     0.42369  0.42369  0.00000  0.15262
      10     C     3.15456  3.15456  0.00000 -0.30912
      11     H     0.40560  0.40560  0.00000  0.18880
      12     H     0.42550  0.42550  0.00000  0.14901
      13     C     3.23932  3.23932  0.00000 -0.47864
      14     H     0.42180  0.42180  0.00000  0.15639
      15     H     0.42257  0.42257  0.00000  0.15486
      16     H     0.42009  0.42009  0.00000  0.15982
      17     H     0.42177  0.42177  0.00000  0.15647
      18     H     0.42176  0.42176  0.00000  0.15648

   Total alpha = 25.00000, Total beta = 25.00000, Total charge = -0.00000
