  ==> Input File <==

--------------------------------------------------------------------------
set {
	reference rhf
	basis 6-31G*
}

set_num_threads( 4 )
memory 2 gb

molecule MOL {
0 1

O	 -2.821601	 1.309235	 -0.001213
C	 -2.668563	 0.129746	 -0.000350
C	 -3.801572	 -0.864014	 -0.000442
O	 -1.481751	 -0.454642	 0.000584
H	 -4.417280	 -0.689587	 -0.874708
H	 -3.443784	 -1.883046	 -0.000565
H	 -4.417179	 -0.689832	 0.873954
C	 -0.334255	 0.388708	 0.000906
C	 0.891947	 -0.504646	 0.000751
H	 -0.365390	 1.025305	 -0.873475
H	 -0.365484	 1.024911	 0.875569
C	 1.982118	 0.013548	 0.940683
H	 1.276338	 -0.573142	 -1.013148
H	 0.595209	 -1.508326	 0.292356
C	 3.228269	 -0.873721	 0.954444
H	 2.265035	 1.023202	 0.648035
H	 1.585280	 0.088754	 1.951596
C	 4.317629	 -0.355375	 1.892249
H	 3.626337	 -0.949670	 -0.054936
H	 2.947747	 -1.882514	 1.248918
H	 4.643547	 0.639626	 1.602827
H	 5.187396	 -1.004677	 1.880132
H	 3.959985	 -0.300550	 2.916503

	symmetry c1
}
set optking {
	frozen_dihedral = ("
		13 9 8 10
	")
}

ee = optimize('scf')
oeprop('DIPOLE', 'QUADRUPOLE', 'MULLIKEN_CHARGES')
f=open( 'psi4out.xyz', 'w' )
f.write( "23  " )
f.write( str(ee) + "\n" )
f.write( MOL.save_string_xyz() )
f.close()
--------------------------------------------------------------------------

    Molecular point group: c1
  Charge       = 0
  Multiplicity = 1
  Basis Set: 6-31G*
  Basis Set:
  @DF-RHF Final Energy:  -422.97469502936434
    Total Energy =                       -422.9746950293639429
    Molecular point group: c1
  Basis Set: 6-31G*
  Basis Set:
  Basis Set: 6-31G*
  Basis Set:
  @DF-RHF Final Energy:  -422.97498206623942
    Total Energy =                       -422.9749820662399316
  Basis Set: 6-31G*
  Basis Set:
  Basis Set: 6-31G*
  Basis Set:
  @DF-RHF Final Energy:  -422.97502587655555
    Total Energy =                       -422.9750258765550370
  Basis Set: 6-31G*
  Basis Set:
  Basis Set: 6-31G*
  Basis Set:
  @DF-RHF Final Energy:  -422.97502961925824
    Total Energy =                       -422.9750296192577252
  Basis Set: 6-31G*
  Basis Set:
  Basis Set: 6-31G*
  Basis Set:
  @DF-RHF Final Energy:  -422.97510962701313
    Total Energy =                       -422.9751096270128983
  Basis Set: 6-31G*
  Basis Set:
  Charge       = 0
  Multiplicity = 1
  Basis Set: 6-31G*
  Basis Set:

    Orbital Energies (a.u.)
    -----------------------

    Doubly Occupied:

       1A    -20.602196     2A    -20.540045     3A    -11.373443
       4A    -11.282001     5A    -11.232126     6A    -11.224315
       7A    -11.223164     8A    -11.221129     9A    -11.212791
      10A     -1.466973    11A     -1.359792    12A     -1.092612
      13A     -1.041058    14A     -1.002590    15A     -0.930555
      16A     -0.842269    17A     -0.801502    18A     -0.776257
      19A     -0.689315    20A     -0.682963    21A     -0.666688
      22A     -0.646328    23A     -0.606997    24A     -0.585319
      25A     -0.581773    26A     -0.569552    27A     -0.558306
      28A     -0.535221    29A     -0.524457    30A     -0.503465
      31A     -0.495920    32A     -0.475372    33A     -0.471223
      34A     -0.464663    35A     -0.447664    36A     -0.434774

  @DF-RHF Final Energy:  -422.97510991643566

   => Energetics <=

    Nuclear Repulsion Energy =            450.0341538933756169
    One-Electron Energy =               -1467.6888894083635932
    Two-Electron Energy =                 594.6796255985523203
    DFT Exchange-Correlation Energy =       0.0000000000000000
    Empirical Dispersion Energy =           0.0000000000000000
    PCM Polarization Energy =               0.0000000000000000
    EFP Energy =                            0.0000000000000000
    Total Energy =                       -422.9751099164357129
    Molecular point group: c1
  Basis Set: 6-31G*
  Basis Set:

  -Total Gradient:
     Atom            X                  Y                   Z
    ------   -----------------  -----------------  -----------------
       1       -0.000003194726    -0.000028941841     0.000095677693
       2       -0.000105839944     0.000049267458    -0.000188793663
       3       -0.000010879844     0.000003926980     0.000059720667
       4        0.000137647980     0.000188532348     0.000086330291
       5        0.000005134721     0.000003365552    -0.000001938458
       6        0.000001483961     0.000000786059     0.000002869935
       7       -0.000011494359    -0.000008135090    -0.000003886614
       8        0.003172682659     0.004065643814     0.002442317425
       9       -0.003334045040    -0.004466664861    -0.001142403108
      10       -0.002110698160    -0.002824843181    -0.001890362461
      11       -0.000087668825     0.000023184715    -0.000003464327
      12       -0.000039890826    -0.000044101113    -0.000049294431
      13        0.002250086527     0.003100218332     0.000647585494
      14        0.000048406005    -0.000054504842    -0.000044967674
      15        0.000059197949     0.000031563428    -0.000001765361
      16       -0.000005779534    -0.000020041745    -0.000034825739
      17       -0.000003774197     0.000007569004    -0.000012587429
      18        0.000017001463    -0.000057837248     0.000038107849
      19        0.000006243560     0.000014522469     0.000000753587
      20        0.000004033265     0.000016165688    -0.000020789613
      21       -0.000000208452    -0.000012673285    -0.000015531622
      22        0.000009497493    -0.000002711684     0.000027189368
      23        0.000002058323     0.000015709044     0.000010058193

  **** Optimization is complete! (in 6 steps) ****
    Final optimized geometry and variables:
    Molecular point group: c1

    Geometry (in Angstrom), charge = 0, multiplicity = 1:

    O           -2.727321332378     1.448614827301    -0.450446477931
    C           -2.588900172139     0.267023660696    -0.441994448005
    C           -3.734837773187    -0.711673368125    -0.468874995985
    O           -1.410874626096    -0.332539429616    -0.405616035743
    H           -4.324974658897    -0.532031256054    -1.359570952874
    H           -3.390893152043    -1.735407155950    -0.456575610752
    H           -4.370898028093    -0.526470807848     0.388461549479
    C           -0.250245300021     0.499595705745    -0.380252213168
    C            0.979145868295    -0.409140639997    -0.365236659956
    H           -0.280298089052     1.126131504927    -1.260111128858
    H           -0.301300484595     1.132690850743     0.494803818692
    C            2.090223471841     0.129490974467     0.541580678932
    H            1.375051694292    -0.502221980759    -1.372338074556
    H            0.681087874391    -1.398045198143    -0.036036945584
    C            3.352313609846    -0.733724514924     0.518929902716
    H            2.345539597268     1.144724661481     0.240956219983
    H            1.718336019971     0.198450237832     1.562140666389
    C            4.451978790603    -0.206220632955     1.439696855466
    H            3.730903425420    -0.791789366413    -0.499250737148
    H            3.096308602394    -1.750880214198     0.807560957051
    H            4.755043162438     0.796998429495     1.153776083932
    H            5.332201513264    -0.840362864398     1.403457574367
    H            4.114530161270    -0.167439399961     2.471492994399

  Mulliken Charges: (a.u.)
   Center  Symbol    Alpha    Beta     Spin     Total
       1     O     4.28456  4.28456  0.00000 -0.56912
       2     C     2.61547  2.61547  0.00000  0.76906
       3     C     3.28752  3.28752  0.00000 -0.57504
       4     O     4.31266  4.31266  0.00000 -0.62531
       5     H     0.39759  0.39759  0.00000  0.20481
       6     H     0.40016  0.40016  0.00000  0.19967
       7     H     0.39762  0.39762  0.00000  0.20476
       8     C     3.00014  3.00014  0.00000 -0.00027
       9     C     3.16889  3.16889  0.00000 -0.33779
      10     H     0.40810  0.40810  0.00000  0.18381
      11     H     0.40790  0.40790  0.00000  0.18420
      12     C     3.16003  3.16003  0.00000 -0.32007
      13     H     0.41599  0.41599  0.00000  0.16801
      14     H     0.40637  0.40637  0.00000  0.18727
      15     C     3.15234  3.15234  0.00000 -0.30468
      16     H     0.42153  0.42153  0.00000  0.15695
      17     H     0.42019  0.42019  0.00000  0.15962
      18     C     3.23968  3.23968  0.00000 -0.47936
      19     H     0.42189  0.42189  0.00000  0.15622
      20     H     0.42149  0.42149  0.00000  0.15703
      21     H     0.42092  0.42092  0.00000  0.15816
      22     H     0.41813  0.41813  0.00000  0.16375
      23     H     0.42083  0.42083  0.00000  0.15833

   Total alpha = 36.00000, Total beta = 36.00000, Total charge = -0.00000
