  ==> Input File <==

--------------------------------------------------------------------------
set {
	reference rhf
	basis 6-31G*
}

set_num_threads( 4 )
memory 2 gb

molecule MOL {
0 1

O	 3.225979	 0.970355	 -0.599647
C	 2.701189	 0.057885	 -0.047330
C	 1.245376	 -0.013843	 0.345420
O	 3.347903	 -1.046386	 0.304773
C	 0.455112	 1.231400	 -0.050772
H	 0.838542	 -0.913825	 -0.103701
H	 1.208210	 -0.175333	 1.419774
C	 -0.998893	 1.219485	 0.433193
H	 0.482531	 1.345121	 -1.130325
H	 0.957290	 2.103070	 0.354729
C	 -1.883438	 0.145884	 -0.207175
H	 -1.431207	 2.195402	 0.224832
H	 -1.019646	 1.105716	 1.516076
C	 -2.631746	 -0.701283	 0.824010
H	 -2.603087	 0.623975	 -0.870013
H	 -1.282458	 -0.511184	 -0.831720
C	 -3.514803	 -1.780851	 0.195620
H	 -3.246469	 -0.051997	 1.445121
H	 -1.913163	 -1.171092	 1.493798
C	 -4.261530	 -2.619884	 1.232019
H	 -4.232803	 -1.313193	 -0.474762
H	 -2.901413	 -2.433467	 -0.422138
H	 -4.878445	 -3.375905	 0.756146
H	 -4.911045	 -2.000173	 1.843807
H	 -3.569333	 -3.128537	 1.897157
C	 4.728119	 -1.109107	 -0.004993
H	 4.882018	 -1.033965	 -1.071845
H	 5.068212	 -2.067527	 0.355250
H	 5.265056	 -0.311663	 0.488280

	symmetry c1
}
set optking {
	frozen_dihedral = ("
		15 11 8 5
	")
}

ee = optimize('scf')
oeprop('DIPOLE', 'QUADRUPOLE', 'MULLIKEN_CHARGES')
f=open( 'psi4out.xyz', 'w' )
f.write( "29  " )
f.write( str(ee) + "\n" )
f.write( MOL.save_string_xyz() )
f.close()
--------------------------------------------------------------------------

    Molecular point group: c1
  Charge       = 0
  Multiplicity = 1
  Basis Set: 6-31G*
  Basis Set:
  @DF-RHF Final Energy:  -501.03872662777007
    Total Energy =                       -501.0387266277705294
    Molecular point group: c1
  Basis Set: 6-31G*
  Basis Set:
  Basis Set: 6-31G*
  Basis Set:
  @DF-RHF Final Energy:  -501.03889595956900
    Total Energy =                       -501.0388959595685492
  Basis Set: 6-31G*
  Basis Set:
  Basis Set: 6-31G*
  Basis Set:
  @DF-RHF Final Energy:  -501.03899858718637
    Total Energy =                       -501.0389985871865974
  Basis Set: 6-31G*
  Basis Set:
  Basis Set: 6-31G*
  Basis Set:
  @DF-RHF Final Energy:  -501.03915739559295
    Total Energy =                       -501.0391573955934064
  Basis Set: 6-31G*
  Basis Set:
  @DF-RHF Final Energy:  -501.03866906728445
    Total Energy =                       -501.0386690672846726
  Basis Set: 6-31G*
  Basis Set:
  @DF-RHF Final Energy:  -501.03917502456136
    Total Energy =                       -501.0391750245610183
  Basis Set: 6-31G*
  Basis Set:
  Basis Set: 6-31G*
  Basis Set:
  @DF-RHF Final Energy:  -501.03917334022833
    Total Energy =                       -501.0391733402295813
  Basis Set: 6-31G*
  Basis Set:
  Basis Set: 6-31G*
  Basis Set:
  @DF-RHF Final Energy:  -501.03918040689371
    Total Energy =                       -501.0391804068932515
  Basis Set: 6-31G*
  Basis Set:
  Charge       = 0
  Multiplicity = 1
  Basis Set: 6-31G*
  Basis Set:

    Orbital Energies (a.u.)
    -----------------------

    Doubly Occupied:

       1A    -20.603558     2A    -20.545356     3A    -11.372208
       4A    -11.280802     5A    -11.235072     6A    -11.219304
       7A    -11.217338     8A    -11.216152     9A    -11.215833
      10A    -11.215166    11A    -11.209493    12A     -1.469240
      13A     -1.362689    14A     -1.097248    15A     -1.066731
      16A     -1.018305    17A     -0.976977    18A     -0.929278
      19A     -0.861027    20A     -0.801021    21A     -0.790067
      22A     -0.764665    23A     -0.701657    24A     -0.682575
      25A     -0.671944    26A     -0.647587    27A     -0.629223
      28A     -0.605288    29A     -0.596192    30A     -0.576565
      31A     -0.564992    32A     -0.557747    33A     -0.534569
      34A     -0.527341    35A     -0.512486    36A     -0.507201
      37A     -0.502930    38A     -0.475988    39A     -0.473268
      40A     -0.462270    41A     -0.457677    42A     -0.455339
      43A     -0.438183    44A     -0.436166

  @DF-RHF Final Energy:  -501.03918090760851

   => Energetics <=

    Nuclear Repulsion Energy =            617.8101890416984361
    One-Electron Energy =               -1906.7293032010370553
    Two-Electron Energy =                 787.8799332517296534
    DFT Exchange-Correlation Energy =       0.0000000000000000
    Empirical Dispersion Energy =           0.0000000000000000
    PCM Polarization Energy =               0.0000000000000000
    EFP Energy =                            0.0000000000000000
    Total Energy =                       -501.0391809076090794
    Molecular point group: c1
  Basis Set: 6-31G*
  Basis Set:

  -Total Gradient:
     Atom            X                  Y                   Z
    ------   -----------------  -----------------  -----------------
       1        0.000002302850     0.000001079929     0.000012636186
       2       -0.000005934504    -0.000006544353    -0.000020055976
       3        0.000002001994    -0.000007622788    -0.000013188806
       4        0.000001261646    -0.000001309802    -0.000000937723
       5        0.000259736229    -0.000616288598     0.000720786727
       6       -0.000001008225     0.000003062862     0.000007826424
       7        0.000005041033     0.000007652797     0.000004226448
       8       -0.000561009093     0.000897382639    -0.000771588918
       9        0.000003857320     0.000005145084    -0.000009661014
      10       -0.000002804507    -0.000012257292     0.000001142758
      11        0.001135883706    -0.000359353924    -0.000945639149
      12       -0.000012813364    -0.000004265444    -0.000001831562
      13       -0.000002677825    -0.000002516908    -0.000001422030
      14       -0.000000401229     0.000002364449     0.000011170524
      15       -0.000844596616     0.000102370969     0.000995805653
      16        0.000001104977     0.000003379598     0.000007556314
      17        0.000022605629    -0.000017149676    -0.000002314505
      18       -0.000001370776    -0.000007524543     0.000007369943
      19        0.000003772205    -0.000001943919    -0.000003328369
      20       -0.000014343772     0.000017951307     0.000001730575
      21        0.000007734169    -0.000002190523    -0.000004781369
      22        0.000004469386    -0.000007868672     0.000003964038
      23       -0.000005063062     0.000007306021    -0.000001769787
      24        0.000001082027    -0.000000788030     0.000008879241
      25        0.000001277978    -0.000001418483    -0.000008341328
      26       -0.000001671422     0.000001359195     0.000002293656
      27       -0.000000188830     0.000000019529    -0.000000130861
      28        0.000000861942    -0.000000054084    -0.000000208483
      29        0.000000890144     0.000000022656    -0.000000188605

  **** Optimization is complete! (in 9 steps) ****
    Final optimized geometry and variables:
    Molecular point group: c1

    Geometry (in Angstrom), charge = 0, multiplicity = 1:

    O            2.925692944657     1.247627524584    -0.958514102178
    C            2.434411067642     0.406498166110    -0.277236959296
    C            1.006709898351     0.394422307074     0.212523108493
    O            3.098578769502    -0.659081913427     0.152824275341
    C            0.198030630642     1.601889631783    -0.255819081061
    H            0.564180325174    -0.542146415549    -0.112551188437
    H            1.037759897613     0.345049049295     1.297758296173
    C           -1.253149838657     1.579036550137     0.238076741633
    H            0.219868918278     1.653499116031    -1.339944378250
    H            0.686204328846     2.504013777814     0.097687189523
    C           -2.139016738046     0.490273408787    -0.410214468478
    H           -1.691589267724     2.555653655843     0.057526283295
    H           -1.251016456614     1.453252837163     1.319094595584
    C           -2.891441355275    -0.373751562155     0.605403913231
    H           -2.865907401345     0.960443694935    -1.067335670275
    H           -1.538610216497    -0.155871110283    -1.045959897064
    C           -3.789950111918    -1.428095176962    -0.042287058197
    H           -3.494568450554     0.268687053313     1.245077605644
    H           -2.174365623602    -0.865697993121     1.261326671318
    C           -4.538697382255    -2.284440364891     0.978476696303
    H           -4.507344765540    -0.936627499260    -0.696089448025
    H           -3.187957601143    -2.071718665303    -0.680563066865
    H           -5.168299900835    -3.020701478227     0.488501199418
    H           -5.175985817793    -1.672857265442     1.610966418166
    H           -3.847658963685    -2.818141030721     1.624931196167
    C            4.456060627219    -0.769597331886    -0.234510567364
    H            4.541878885547    -0.813499687780    -1.310717829641
    H            4.815248325180    -1.686160119792     0.206940065773
    H            5.025916908733     0.071592767345     0.133166149305

  Mulliken Charges: (a.u.)
   Center  Symbol    Alpha    Beta     Spin     Total
       1     O     4.28578  4.28578  0.00000 -0.57157
       2     C     2.60529  2.60529  0.00000  0.78942
       3     C     3.20863  3.20863  0.00000 -0.41726
       4     O     4.30739  4.30739  0.00000 -0.61479
       5     C     3.15487  3.15487  0.00000 -0.30974
       6     H     0.39964  0.39964  0.00000  0.20072
       7     H     0.40096  0.40096  0.00000  0.19808
       8     C     3.16039  3.16039  0.00000 -0.32078
       9     H     0.41142  0.41142  0.00000  0.17717
      10     H     0.41109  0.41109  0.00000  0.17782
      11     C     3.15675  3.15675  0.00000 -0.31350
      12     H     0.41545  0.41545  0.00000  0.16911
      13     H     0.42149  0.42149  0.00000  0.15703
      14     C     3.15277  3.15277  0.00000 -0.30554
      15     H     0.41895  0.41895  0.00000  0.16209
      16     H     0.42241  0.42241  0.00000  0.15518
      17     C     3.15202  3.15202  0.00000 -0.30403
      18     H     0.42282  0.42282  0.00000  0.15437
      19     H     0.42493  0.42493  0.00000  0.15015
      20     C     3.23924  3.23924  0.00000 -0.47848
      21     H     0.42260  0.42260  0.00000  0.15479
      22     H     0.42342  0.42342  0.00000  0.15315
      23     H     0.41911  0.41911  0.00000  0.16178
      24     H     0.42162  0.42162  0.00000  0.15675
      25     H     0.42191  0.42191  0.00000  0.15619
      26     C     3.09241  3.09241  0.00000 -0.18481
      27     H     0.40908  0.40908  0.00000  0.18184
      28     H     0.40849  0.40849  0.00000  0.18301
      29     H     0.40907  0.40907  0.00000  0.18186

   Total alpha = 44.00000, Total beta = 44.00000, Total charge = -0.00000
