                              Psi4 1.0.54 Driver

  ==> Input File <==

--------------------------------------------------------------------------
set {
	reference rhf
	basis cc-pvtz
}

set_num_threads( 4 )
memory 2 gb

molecule MOL {
0 1

H	 2.996706	 -1.256965	 1.055270
O	 2.824271	 -1.154299	 0.131461
C	 2.076458	 -0.067370	 -0.038225
C	 0.626018	 -0.337582	 0.258241
O	 2.538288	 0.965419	 -0.381593
C	 -0.267326	 0.883135	 0.076490
H	 0.325620	 -1.161483	 -0.378003
H	 0.574537	 -0.713685	 1.275261
C	 -1.726822	 0.642622	 0.463839
H	 -0.210803	 1.217591	 -0.953497
H	 0.129920	 1.693110	 0.675679
C	 -2.480891	 -0.340606	 -0.429852
H	 -2.243098	 1.597649	 0.438609
H	 -1.776542	 0.301208	 1.495542
C	 -3.955933	 -0.460128	 -0.060472
H	 -2.393755	 -0.020485	 -1.464726
H	 -2.024244	 -1.323637	 -0.374360
H	 -4.467673	 -1.160944	 -0.709827
H	 -4.458917	 0.497287	 -0.144505
H	 -4.076458	 -0.806900	 0.960497

	symmetry c1
}
set optking {
	frozen_dihedral = ("
		1 2 3 5
	")
}

ee,wfn = optimize('scf', return_wfn=True)
oeprop( wfn, 'DIPOLE', 'QUADRUPOLE', 'MULLIKEN_CHARGES')
f=open( 'psi4out.xyz', 'w' )
f.write( "20  " )
f.write( str(ee) + "\n" )
f.write( MOL.save_string_xyz() )
f.close()
--------------------------------------------------------------------------

    Molecular point group: c1
  Charge       = 0
  Multiplicity = 1
  Basis Set: CC-PVTZ
  Basis Set:
  @DF-RHF Final Energy:  -384.07343649068184
    Total Energy =                       -384.0734364906825249
    Molecular point group: c1
  Basis Set: CC-PVTZ
  Basis Set:
  Basis Set: CC-PVTZ
  Basis Set:
  @DF-RHF Final Energy:  -384.07450188270349
    Total Energy =                       -384.0745018827036006
  Basis Set: CC-PVTZ
  Basis Set:
  Basis Set: CC-PVTZ
  Basis Set:
  @DF-RHF Final Energy:  -384.07311209769199
    Total Energy =                       -384.0731120976914781
  Basis Set: CC-PVTZ
  Basis Set:
  Basis Set: CC-PVTZ
  Basis Set:
  @DF-RHF Final Energy:  -384.07508723164614
    Total Energy =                       -384.0750872316459663
  Basis Set: CC-PVTZ
  Basis Set:
  Basis Set: CC-PVTZ
  Basis Set:
  @DF-RHF Final Energy:  -384.07510872042752
    Total Energy =                       -384.0751087204274086
  Basis Set: CC-PVTZ
  Basis Set:
  Basis Set: CC-PVTZ
  Basis Set:
  @DF-RHF Final Energy:  -384.07510997706527
    Total Energy =                       -384.0751099770655514
  Basis Set: CC-PVTZ
  Basis Set:
  Basis Set: CC-PVTZ
  Basis Set:
  @DF-RHF Final Energy:  -384.07511088321127
    Total Energy =                       -384.0751108832114937
  Basis Set: CC-PVTZ
  Basis Set:
  Charge       = 0
  Multiplicity = 1
  Basis Set: CC-PVTZ
  Basis Set:

    Orbital Energies (a.u.)
    -----------------------

    Doubly Occupied:

       1A    -20.585979     2A    -20.550113     3A    -11.373863
       4A    -11.242025     5A    -11.223239     6A    -11.220905
       7A    -11.220071     8A    -11.212099     9A     -1.462996
      10A     -1.370559    11A     -1.099029    12A     -1.042234
      13A     -0.960232    14A     -0.866539    15A     -0.819250
      16A     -0.785789    17A     -0.715559    18A     -0.677720
      19A     -0.662217    20A     -0.639549    21A     -0.617224
      22A     -0.590470    23A     -0.562980    24A     -0.553363
      25A     -0.534643    26A     -0.508996    27A     -0.507542
      28A     -0.493935    29A     -0.472287    30A     -0.468414
      31A     -0.460723    32A     -0.445718

  @DF-RHF Final Energy:  -384.07511145678637

   => Energetics <=

    Nuclear Repulsion Energy =            375.7987024534155012
    One-Electron Energy =               -1267.8551020987060838
    Two-Electron Energy =                 507.9812881885043225
    DFT Exchange-Correlation Energy =       0.0000000000000000
    Empirical Dispersion Energy =           0.0000000000000000
    PCM Polarization Energy =               0.0000000000000000
    EFP Energy =                            0.0000000000000000
    Total Energy =                       -384.0751114567863169
    Molecular point group: c1
  Basis Set: CC-PVTZ
  Basis Set:

  -Total Gradient:
     Atom            X                  Y                   Z
    ------   -----------------  -----------------  -----------------
       1        0.000719092431     0.000479210048    -0.000170222357
       2       -0.000838694118    -0.000495628233     0.000528154296
       3       -0.000039607574    -0.000177209986    -0.001075376961
       4       -0.000004217342    -0.000000714583    -0.000024171704
       5        0.000152302906     0.000186542244     0.000729218794
       6       -0.000009513634     0.000002001079     0.000003595888
       7        0.000004635509     0.000003812957     0.000005187361
       8        0.000008643918     0.000005345604     0.000005325719
       9        0.000001624639    -0.000002101519     0.000000537180
      10       -0.000000109746    -0.000000116924    -0.000004010966
      11        0.000000925634    -0.000001125176     0.000001583121
      12        0.000001973253    -0.000000800302    -0.000001212283
      13        0.000003047472     0.000000285228    -0.000000703559
      14        0.000000245659    -0.000000011913     0.000002338157
      15       -0.000000132879     0.000001025192     0.000000867084
      16        0.000000473845    -0.000000493700    -0.000000054853
      17       -0.000000242947    -0.000000511784    -0.000000713130
      18        0.000000205426     0.000000537622    -0.000000324379
      19       -0.000000634046     0.000000212932     0.000000075683
      20       -0.000000018398    -0.000000258786    -0.000000093091

  **** Optimization is complete! (in 8 steps) ****
    Final optimized geometry and variables:
    Molecular point group: c1

    Geometry (in Angstrom), charge = 0, multiplicity = 1:

    H            3.121242876303    -1.326795639136     0.955757048240
    O            2.853495672098    -1.207848788571     0.059783698126
    C            2.078388498217    -0.100980585716    -0.095822422946
    C            0.629405773162    -0.331826990290     0.247299043843
    O            2.527600659048     0.902564024220    -0.505563557586
    C           -0.251030667448     0.898802896760     0.071874103178
    H            0.300095005338    -1.161913797577    -0.366869092037
    H            0.591316783979    -0.694609404146     1.271880165127
    C           -1.704295278297     0.687117852420     0.498094817933
    H           -0.213913603466     1.217085936266    -0.963887956832
    H            0.173007104630     1.711760876113     0.648983211335
    C           -2.496268617764    -0.293054759613    -0.365786476451
    H           -2.205251219853     1.650260443309     0.474828727436
    H           -1.734543522275     0.358121359210     1.534783952227
    C           -3.961784588588    -0.389924993913     0.045962650360
    H           -2.433952812092     0.017560281858    -1.405238130796
    H           -2.051135612916    -1.281663939781    -0.315281968939
    H           -4.500035228699    -1.090993209274    -0.581226405764
    H           -4.455076133490     0.572794645440    -0.034575455083
    H           -4.058235663137    -0.724314888573     1.073654802130

  Mulliken Charges: (a.u.)
   Center  Symbol    Alpha    Beta     Spin     Total
       1     H     0.39002  0.39002  0.00000  0.21996
       2     O     4.17254  4.17254  0.00000 -0.34508
       3     C     2.79750  2.79750  0.00000  0.40499
       4     C     3.12067  3.12067  0.00000 -0.24135
       5     O     4.16029  4.16029  0.00000 -0.32058
       6     C     3.09439  3.09439  0.00000 -0.18878
       7     H     0.43483  0.43483  0.00000  0.13035
       8     H     0.44856  0.44856  0.00000  0.10288
       9     C     3.09942  3.09942  0.00000 -0.19884
      10     H     0.44341  0.44341  0.00000  0.11319
      11     H     0.44019  0.44019  0.00000  0.11962
      12     C     3.08679  3.08679  0.00000 -0.17358
      13     H     0.44511  0.44511  0.00000  0.10978
      14     H     0.45473  0.45473  0.00000  0.09053
      15     C     3.14945  3.14945  0.00000 -0.29890
      16     H     0.45167  0.45167  0.00000  0.09667
      17     H     0.45448  0.45448  0.00000  0.09103
      18     H     0.44735  0.44735  0.00000  0.10530
      19     H     0.45339  0.45339  0.00000  0.09321
      20     H     0.45521  0.45521  0.00000  0.08959

   Total alpha = 32.00000, Total beta = 32.00000, Total charge = -0.00000

*** Psi4 exiting successfully. Buy a developer a beer!
