  ==> Input File <==

--------------------------------------------------------------------------
set {
	reference rhf
	basis cc-pvtz
}

set_num_threads( 4 )
memory 2 gb

molecule MOL {
0 1

O	 -2.374409	 1.338660	 -0.336961
C	 -2.104891	 0.204655	 -0.107126
C	 -0.881910	 -0.448129	 -0.720509
C	 -2.949910	 -0.638219	 0.818225
C	 0.009347	 0.591915	 -1.411025
H	 -1.226923	 -1.171474	 -1.448416
H	 -0.314321	 -0.973449	 0.040245
C	 1.244114	 -0.037300	 -2.052854
H	 -0.584330	 1.107167	 -2.155532
H	 0.325363	 1.341024	 -0.689036
C	 2.199994	 0.961938	 -2.706861
H	 0.927985	 -0.768339	 -2.792869
H	 1.789152	 -0.590229	 -1.292718
C	 1.631816	 1.682649	 -3.926955
H	 3.098236	 0.429668	 -3.003773
H	 2.513651	 1.694643	 -1.967878
H	 1.304627	 0.973465	 -4.680344
H	 2.382472	 2.320609	 -4.378941
H	 0.784851	 2.307994	 -3.672251
H	 -3.440322	 -1.417144	 0.243099
H	 -3.694377	 -0.025850	 1.303346
H	 -2.331085	 -1.129829	 1.560495

	symmetry c1
}
set optking {
	frozen_dihedral = ("
		6 3 2 1
	")
}

ee = optimize('scf')
oeprop('DIPOLE', 'QUADRUPOLE', 'MULLIKEN_CHARGES')
f=open( 'psi4out.xyz', 'w' )
f.write( "22  " )
f.write( str(ee) + "\n" )
f.write( MOL.save_string_xyz() )
f.close()
--------------------------------------------------------------------------

    Molecular point group: c1
  Charge       = 0
  Multiplicity = 1
  Basis Set: CC-PVTZ
  Basis Set:
  @DF-RHF Final Energy:  -348.22384655414470
    Total Energy =                       -348.2238465541445294
    Molecular point group: c1
  Basis Set: CC-PVTZ
  Basis Set:
  Basis Set: CC-PVTZ
  Basis Set:
  @DF-RHF Final Energy:  -348.22336696282588
    Total Energy =                       -348.2233669628257076
  Basis Set: CC-PVTZ
  Basis Set:
  Basis Set: CC-PVTZ
  Basis Set:
  @DF-RHF Final Energy:  -348.22430035623597
    Total Energy =                       -348.2243003562356307
  Basis Set: CC-PVTZ
  Basis Set:
  Basis Set: CC-PVTZ
  Basis Set:
  @DF-RHF Final Energy:  -348.22499880510378
    Total Energy =                       -348.2249988051037235
  Basis Set: CC-PVTZ
  Basis Set:
  @DF-RHF Final Energy:  -348.22505297533053
    Total Energy =                       -348.2250529753306409
  @DF-RHF Final Energy:  -348.22508706125410
    Total Energy =                       -348.2250870612538733
  Basis Set: CC-PVTZ
  Basis Set:
  @DF-RHF Final Energy:  -348.22515885719520
    Total Energy =                       -348.2251588571952539
  Basis Set: CC-PVTZ
  Basis Set:
  Basis Set: CC-PVTZ
  Basis Set:
  @DF-RHF Final Energy:  -348.22516027276203
    Total Energy =                       -348.2251602727619684
  Basis Set: CC-PVTZ
  Basis Set:
  Basis Set: CC-PVTZ
  Basis Set:
  @DF-RHF Final Energy:  -348.22516198870466
    Total Energy =                       -348.2251619887043717
  Basis Set: CC-PVTZ
  Basis Set:
  Charge       = 0
  Multiplicity = 1
  Basis Set: CC-PVTZ
  Basis Set:

    Orbital Energies (a.u.)
    -----------------------

    Doubly Occupied:

       1A    -20.538624     2A    -11.320691     3A    -11.230322
       4A    -11.226807     5A    -11.215770     6A    -11.214826
       7A    -11.214443     8A    -11.205613     9A     -1.398861
      10A     -1.092064    11A     -1.044091    12A     -1.001859
      13A     -0.935720    14A     -0.854960    15A     -0.782001
      16A     -0.731978    17A     -0.659093    18A     -0.649837
      19A     -0.632052    20A     -0.615676    21A     -0.601198
      22A     -0.580639    23A     -0.561587    24A     -0.547390
      25A     -0.524954    26A     -0.511716    27A     -0.499420
      28A     -0.486954    29A     -0.465884    30A     -0.462594
      31A     -0.458083    32A     -0.401590

  @DF-RHF Final Energy:  -348.22516432321345

   => Energetics <=

    Nuclear Repulsion Energy =            373.0185011618320914
    One-Electron Energy =               -1211.1527298193468596
    Two-Electron Energy =                 489.9090643343015472
    DFT Exchange-Correlation Energy =       0.0000000000000000
    Empirical Dispersion Energy =           0.0000000000000000
    PCM Polarization Energy =               0.0000000000000000
    EFP Energy =                            0.0000000000000000
    Total Energy =                       -348.2251643232132210
    Molecular point group: c1
  Basis Set: CC-PVTZ
  Basis Set:

  -Total Gradient:
     Atom            X                  Y                   Z
    ------   -----------------  -----------------  -----------------
       1       -0.000287105222    -0.000178152857    -0.000397792279
       2        0.000395548326     0.000315178281     0.000515930579
       3       -0.000088265713    -0.000486858904     0.000234993677
       4       -0.000010253011     0.000005833503    -0.000015950593
       5       -0.000000724606    -0.000008462228     0.000004655221
       6       -0.000012315149     0.000349698232    -0.000350097966
       7       -0.000004038446     0.000000973274     0.000001536887
       8       -0.000008273333     0.000003242994     0.000002370382
       9        0.000000656814    -0.000000611047     0.000001416663
      10       -0.000002282544     0.000002384693     0.000003725311
      11       -0.000001658403     0.000001194943    -0.000001958609
      12        0.000002973196    -0.000004876567    -0.000000318766
      13        0.000003260652    -0.000001074949    -0.000002298640
      14        0.000002183385    -0.000001157661    -0.000001257658
      15        0.000002794675     0.000003753170    -0.000002922673
      16       -0.000001179216    -0.000000460859     0.000000393975
      17       -0.000001346132     0.000000132201    -0.000000192213
      18        0.000000841950    -0.000001382458     0.000000316336
      19        0.000002657918    -0.000000103330     0.000000714080
      20        0.000000296347     0.000003385320     0.000000285353
      21        0.000000653712    -0.000005617127     0.000003878434
      22        0.000005574794     0.000002981380     0.000002572495

  **** Optimization is complete! (in 10 steps) ****
    Final optimized geometry and variables:
    Molecular point group: c1

    Geometry (in Angstrom), charge = 0, multiplicity = 1:

    O           -2.038869971635     0.880475034205     1.023727690920
    C           -1.709144875459    -0.242625631943     1.223649212047
    C           -0.485816336235    -0.856045669648     0.572915591493
    C           -2.502462544799    -1.145948080487     2.139931687715
    C            0.432907367867     0.147691953622    -0.110737117065
    H           -0.851140938601    -1.585686129672    -0.147718982139
    H            0.051439649470    -1.430156351317     1.322921839513
    C            1.631559078784    -0.524705416573    -0.777110150061
    H           -0.142448811626     0.708318653499    -0.834685701504
    H            0.780186924377     0.868881000354     0.622360882903
    C            2.629575299755     0.443763358473    -1.414141378197
    H            1.279957245870    -1.222874843945    -1.533970485985
    H            2.157535096099    -1.121804461197    -0.036532955826
    C            2.086317740792     1.223427380744    -2.609034323722
    H            3.499470814576    -0.121921071103    -1.733470776699
    H            2.982427762327     1.141056206013    -0.659049565163
    H            1.719522814392     0.551181237426    -3.378260227180
    H            2.862803661634     1.836948561889    -3.051324955195
    H            1.272684488096     1.880877313521    -2.328571409222
    H           -2.693416585047    -2.102816508927     1.667747749639
    H           -3.434652246114    -0.672453428717     2.407239068952
    H           -1.927182758771    -1.338949273245     3.039533980898

  Mulliken Charges: (a.u.)
   Center  Symbol    Alpha    Beta     Spin     Total
       1     O     4.17160  4.17160  0.00000 -0.34320
       2     C     2.86141  2.86141  0.00000  0.27718
       3     C     3.11365  3.11365  0.00000 -0.22729
       4     C     3.15182  3.15182  0.00000 -0.30365
       5     C     3.08676  3.08676  0.00000 -0.17352
       6     H     0.44436  0.44436  0.00000  0.11127
       7     H     0.44490  0.44490  0.00000  0.11020
       8     C     3.09609  3.09609  0.00000 -0.19218
       9     H     0.44117  0.44117  0.00000  0.11766
      10     H     0.44880  0.44880  0.00000  0.10241
      11     C     3.09008  3.09008  0.00000 -0.18016
      12     H     0.45482  0.45482  0.00000  0.09035
      13     H     0.45092  0.45092  0.00000  0.09817
      14     C     3.15270  3.15270  0.00000 -0.30540
      15     H     0.44862  0.44862  0.00000  0.10277
      16     H     0.45400  0.45400  0.00000  0.09199
      17     H     0.45567  0.45567  0.00000  0.08866
      18     H     0.44659  0.44659  0.00000  0.10682
      19     H     0.45066  0.45066  0.00000  0.09868
      20     H     0.45097  0.45097  0.00000  0.09805
      21     H     0.43560  0.43560  0.00000  0.12879
      22     H     0.44881  0.44881  0.00000  0.10239

   Total alpha = 32.00000, Total beta = 32.00000, Total charge = -0.00000
