                              Psi4 1.0.54 Driver

  ==> Input File <==

--------------------------------------------------------------------------
set {
	reference rhf
	basis cc-pvtz
}

set_num_threads( 4 )
memory 2 gb

molecule MOL {
0 1

H	 -2.365385	 -0.535454	 2.320124
C	 -2.244939	 -1.518462	 1.870600
O	 -1.046083	 -1.616986	 1.177363
H	 -2.235074	 -2.260679	 2.655397
H	 -3.098678	 -1.706922	 1.222142
C	 -0.918477	 -0.721747	 0.121948
C	 0.454732	 -0.845482	 -0.489062
H	 -1.665521	 -0.931761	 -0.643420
H	 -1.066879	 0.300227	 0.463968
O	 1.401606	 -0.295166	 0.366636
H	 0.669361	 -1.895337	 -0.676597
H	 0.463270	 -0.324546	 -1.446415
C	 2.714315	 -0.441627	 -0.061017
H	 2.765292	 -0.641548	 -1.128869
H	 3.305661	 0.447341	 0.150952
H	 3.143725	 -1.278506	 0.470147

	symmetry c1
}
set optking {
	frozen_dihedral = ("
		7 10 13 14
	")
}

ee,wfn = optimize('scf', return_wfn=True)
oeprop( wfn, 'DIPOLE', 'QUADRUPOLE', 'MULLIKEN_CHARGES')
f=open( 'psi4out.xyz', 'w' )
f.write( "16  " )
f.write( str(ee) + "\n" )
f.write( MOL.save_string_xyz() )
f.close()
--------------------------------------------------------------------------

    Molecular point group: c1
  Charge       = 0
  Multiplicity = 1
  Basis Set: CC-PVTZ
  Basis Set:
  @DF-RHF Final Energy:  -307.09451104639430
    Total Energy =                       -307.0945110463940182
    Molecular point group: c1
  Basis Set: CC-PVTZ
  Basis Set:
  Basis Set: CC-PVTZ
  Basis Set:
  @DF-RHF Final Energy:  -307.09507204271733
    Total Energy =                       -307.0950720427172200
  Basis Set: CC-PVTZ
  Basis Set:
  Basis Set: CC-PVTZ
  Basis Set:
  @DF-RHF Final Energy:  -307.09520033705320
    Total Energy =                       -307.0952003370531997
  Basis Set: CC-PVTZ
  Basis Set:
  Charge       = 0
  Multiplicity = 1
  Basis Set: CC-PVTZ
  Basis Set:

    Orbital Energies (a.u.)
    -----------------------

    Doubly Occupied:

       1A    -20.547547     2A    -20.544988     3A    -11.267743
       4A    -11.266672     5A    -11.261395     6A    -11.261216
       7A     -1.389998     8A     -1.372277     9A     -1.031784
      10A     -0.937173    11A     -0.892235    12A     -0.824141
      13A     -0.685207    14A     -0.681530    15A     -0.659030
      16A     -0.636009    17A     -0.631258    18A     -0.597658
      19A     -0.552980    20A     -0.538596    21A     -0.508851
      22A     -0.479623    23A     -0.464247    24A     -0.421138
      25A     -0.410983

  @DF-RHF Final Energy:  -307.09520120037377

   => Energetics <=

    Nuclear Repulsion Energy =            258.6878165079440919
    One-Electron Energy =                -931.8374864922171810
    Two-Electron Energy =                 366.0544687838992672
    DFT Exchange-Correlation Energy =       0.0000000000000000
    Empirical Dispersion Energy =           0.0000000000000000
    PCM Polarization Energy =               0.0000000000000000
    EFP Energy =                            0.0000000000000000
    Total Energy =                       -307.0952012003737650
    Molecular point group: c1
  Basis Set: CC-PVTZ
  Basis Set:

  -Total Gradient:
     Atom            X                  Y                   Z
    ------   -----------------  -----------------  -----------------
       1       -0.000003022110     0.000000285886     0.000003625696
       2       -0.000005738374     0.000014765437    -0.000005492658
       3        0.000008336558    -0.000007821265     0.000010554118
       4        0.000007126796     0.000000071625    -0.000005605822
       5        0.000002187813    -0.000001852340    -0.000000375425
       6        0.000008309627    -0.000007133514     0.000020456113
       7       -0.000179197053     0.001785498707    -0.001039678106
       8       -0.000003125406    -0.000000876981    -0.000009195704
       9        0.000005430994    -0.000008651416    -0.000000465615
      10        0.000308281143    -0.003231466739     0.001472199301
      11        0.000026738884     0.000029668255     0.000035204783
      12       -0.000000286699    -0.000008646805    -0.000003858327
      13        0.000015844137     0.003853693832    -0.000875432520
      14       -0.000149893129    -0.002440245765     0.000393943432
      15       -0.000047368428     0.000021435845    -0.000002086604
      16        0.000006375247     0.000001275239     0.000006207339

  **** Optimization is complete! (in 4 steps) ****
    Final optimized geometry and variables:
    Molecular point group: c1

    Geometry (in Angstrom), charge = 0, multiplicity = 1:

    H           -2.375019821375     0.354521380968     1.883524050250
    C           -2.274105209223    -0.622032363805     1.415528738825
    O           -1.096170445047    -0.717339813416     0.686950673900
    H           -2.247030648206    -1.376570736967     2.188074056520
    H           -3.147203962086    -0.794835687249     0.788817814670
    C           -0.992489551295     0.193494831632    -0.357685773708
    C            0.362378103674     0.072148149759    -1.008560258916
    H           -1.761448223727    -0.000769016705    -1.105463162679
    H           -1.125386025354     1.210767755477     0.003998160222
    O            1.333366632309     0.606159101660    -0.168216305869
    H            0.562075806922    -0.976245287881    -1.218072321782
    H            0.347075308768     0.608892440790    -1.956255274992
    C            2.648574709182     0.475317276958    -0.608102090520
    H            2.701764013289     0.293731258222    -1.677551928579
    H            3.187302346646     1.384727524659    -0.378137305831
    H            3.137280459427    -0.355755119939    -0.107858270474

  Mulliken Charges: (a.u.)
   Center  Symbol    Alpha    Beta     Spin     Total
       1     H     0.47015  0.47015  0.00000  0.05969
       2     C     3.03202  3.03202  0.00000 -0.06404
       3     O     4.17044  4.17044  0.00000 -0.34088
       4     H     0.44642  0.44642  0.00000  0.10717
       5     H     0.47372  0.47372  0.00000  0.05256
       6     C     2.96271  2.96271  0.00000  0.07458
       7     C     2.95900  2.95900  0.00000  0.08201
       8     H     0.47611  0.47611  0.00000  0.04778
       9     H     0.47109  0.47109  0.00000  0.05782
      10     O     4.17418  4.17418  0.00000 -0.34837
      11     H     0.47121  0.47121  0.00000  0.05757
      12     H     0.47566  0.47566  0.00000  0.04867
      13     C     3.02860  3.02860  0.00000 -0.05720
      14     H     0.47443  0.47443  0.00000  0.05114
      15     H     0.45345  0.45345  0.00000  0.09310
      16     H     0.46080  0.46080  0.00000  0.07840

   Total alpha = 25.00000, Total beta = 25.00000, Total charge = -0.00000

*** Psi4 exiting successfully. Buy a developer a beer!
