  ==> Input File <==

--------------------------------------------------------------------------
set {
	reference rhf
	basis 6-31G*
}

set_num_threads( 1 )
memory 2 gb

molecule MOL {
0 1

O	 -2.638852	 0.152351	 0.576039
C	 -2.162373	 -0.911958	 0.321776
C	 -0.904105	 -1.020097	 -0.521654
C	 -2.762234	 -2.196581	 0.848354
C	 0.346238	 -0.709534	 0.316996
H	 -0.986367	 -0.300329	 -1.328792
H	 -0.821125	 -2.010949	 -0.959092
C	 1.631333	 -0.777471	 -0.511575
H	 0.224754	 0.275582	 0.753084
H	 0.416228	 -1.413393	 1.144904
C	 2.915987	 -0.544314	 0.291766
H	 1.575560	 -0.049619	 -1.318945
H	 1.691653	 -1.754906	 -0.985739
C	 3.373361	 0.914346	 0.347591
H	 3.708709	 -1.142521	 -0.150311
H	 2.780642	 -0.921148	 1.303579
H	 3.506512	 1.320010	 -0.651625
H	 4.322697	 0.999599	 0.867103
H	 2.660624	 1.545032	 0.868198
H	 -3.147552	 -2.786038	 0.020504
H	 -3.566383	 -1.975061	 1.536145
H	 -2.006715	 -2.798287	 1.345290

	symmetry c1
}
set optking {
	frozen_dihedral = ("
		6 3 2 1,
		6 3 5 8,
		3 5 8 12
	")
}

ee = energy('scf')
oeprop('DIPOLE', 'QUADRUPOLE', 'MULLIKEN_CHARGES')
f=open( 'psi4out.xyz', 'w' )
f.write( "22  " )
f.write( str(ee) + "\n" )
f.write( MOL.save_string_xyz() )
f.close()
--------------------------------------------------------------------------

    Molecular point group: c1

    Geometry (in Angstrom), charge = 0, multiplicity = 1:

       Center              X                  Y                   Z               Mass
    ------------   -----------------  -----------------  -----------------  -----------------
           O         -2.616859608463     0.779922096294     0.358727851335    15.994914619560
           C         -2.140380608463    -0.284386903706     0.104464851335    12.000000000000
           C         -0.882112608463    -0.392525903706    -0.738965148665    12.000000000000
           C         -2.740241608463    -1.569009903706     0.631042851335    12.000000000000
           C          0.368230391537    -0.081962903706     0.099684851335    12.000000000000
           H         -0.964374608463     0.327242096294    -1.546103148665     1.007825032070
           H         -0.799132608463    -1.383377903706    -1.176403148665     1.007825032070
           C          1.653325391537    -0.149899903706    -0.728886148665    12.000000000000
           H          0.246746391537     0.903153096294     0.535772851335     1.007825032070
           H          0.438220391537    -0.785821903706     0.927592851335     1.007825032070
           C          2.937979391537     0.083257096294     0.074454851335    12.000000000000
           H          1.597552391537     0.577952096294    -1.536256148665     1.007825032070
           H          1.713645391537    -1.127334903706    -1.203050148665     1.007825032070
           C          3.395353391537     1.541917096294     0.130279851335    12.000000000000
           H          3.730701391537    -0.514949903706    -0.367622148665     1.007825032070
           H          2.802634391537    -0.293576903706     1.086267851335     1.007825032070
           H          3.528504391537     1.947581096294    -0.868936148665     1.007825032070
           H          4.344689391537     1.627170096294     0.649791851335     1.007825032070
           H          2.682616391537     2.172603096294     0.650886851335     1.007825032070
           H         -3.125559608463    -2.158466903706    -0.196807148665     1.007825032070
           H         -3.544390608463    -1.347489903706     1.318833851335     1.007825032070
           H         -1.984722608463    -2.170715903706     1.127978851335     1.007825032070

  Charge       = 0
  Multiplicity = 1
  Basis Set: 6-31G*
  Basis Set:

    Orbital Energies (a.u.)
    -----------------------

    Doubly Occupied:

       1A    -20.547315     2A    -11.324496     3A    -11.229908
       4A    -11.229010     5A    -11.228229     6A    -11.221604
       7A    -11.219885     8A    -11.211459     9A     -1.393073
      10A     -1.095196    11A     -1.044466    12A     -1.000092
      13A     -0.938122    14A     -0.853184    15A     -0.791579
      16A     -0.732668    17A     -0.662022    18A     -0.643890
      19A     -0.625521    20A     -0.618665    21A     -0.598450
      22A     -0.581757    23A     -0.562190    24A     -0.546210
      25A     -0.532692    26A     -0.513145    27A     -0.502492
      28A     -0.487609    29A     -0.473544    30A     -0.462091
      31A     -0.458043    32A     -0.396172

  @DF-RHF Final Energy:  -348.09618423811673

   => Energetics <=

    Nuclear Repulsion Energy =            371.1390313183591161
    One-Electron Energy =               -1207.0210510172089471
    Two-Electron Energy =                 487.7858354607338356
    DFT Exchange-Correlation Energy =       0.0000000000000000
    Empirical Dispersion Energy =           0.0000000000000000
    PCM Polarization Energy =               0.0000000000000000
    EFP Energy =                            0.0000000000000000
    Total Energy =                       -348.0961842381159954

  Mulliken Charges: (a.u.)
   Center  Symbol    Alpha    Beta     Spin     Total
       1     O     4.26246  4.26246  0.00000 -0.52491
       2     C     2.73717  2.73717  0.00000  0.52565
       3     C     3.20029  3.20029  0.00000 -0.40059
       4     C     3.28954  3.28954  0.00000 -0.57909
       5     C     3.16284  3.16284  0.00000 -0.32567
       6     H     0.40112  0.40112  0.00000  0.19775
       7     H     0.41692  0.41692  0.00000  0.16617
       8     C     3.15383  3.15383  0.00000 -0.30766
       9     H     0.40500  0.40500  0.00000  0.18999
      10     H     0.42078  0.42078  0.00000  0.15843
      11     C     3.15510  3.15510  0.00000 -0.31020
      12     H     0.41929  0.41929  0.00000  0.16142
      13     H     0.42159  0.42159  0.00000  0.15682
      14     C     3.24031  3.24031  0.00000 -0.48063
      15     H     0.41964  0.41964  0.00000  0.16072
      16     H     0.42151  0.42151  0.00000  0.15699
      17     H     0.42097  0.42097  0.00000  0.15807
      18     H     0.41884  0.41884  0.00000  0.16231
      19     H     0.41908  0.41908  0.00000  0.16183
      20     H     0.40692  0.40692  0.00000  0.18617
      21     H     0.39707  0.39707  0.00000  0.20585
      22     H     0.40972  0.40972  0.00000  0.18056

   Total alpha = 32.00000, Total beta = 32.00000, Total charge =  0.00000
