  ==> Input File <==

--------------------------------------------------------------------------
set {
	reference rhf
	basis cc-pvtz
}

set_num_threads( 4 )
memory 2 gb

molecule MOL {
0 1

O	 -0.664761	 -0.087640	 -0.112121
C	 0.485107	 0.171416	 -0.000134
C	 1.606966	 -0.836201	 0.000174
O	 0.943685	 1.402730	 0.141842
C	 2.988788	 -0.202529	 -0.000115
H	 1.465110	 -1.474645	 -0.864821
H	 1.465209	 -1.474077	 0.865596
H	 3.131767	 0.419673	 -0.873407
H	 3.750876	 -0.972315	 0.000098
H	 3.131883	 0.420264	 0.872742
C	 -0.000699	 2.463913	 0.159669
C	 0.761101	 3.757053	 0.332688
H	 -0.697791	 2.302510	 0.969829
H	 -0.560701	 2.453786	 -0.764787
H	 1.318575	 3.755231	 1.260908
H	 0.068159	 4.589965	 0.350606
H	 1.456397	 3.907419	 -0.483599

	symmetry c1
}
set optking {
	frozen_dihedral = ("
		4 2 3 6
	")
}

ee = optimize('scf')
oeprop('DIPOLE', 'QUADRUPOLE', 'MULLIKEN_CHARGES')
f=open( 'psi4out.xyz', 'w' )
f.write( "17  " )
f.write( str(ee) + "\n" )
f.write( MOL.save_string_xyz() )
f.close()
--------------------------------------------------------------------------

    Molecular point group: c1
  Charge       = 0
  Multiplicity = 1
  Basis Set: CC-PVTZ
  Basis Set:
  @DF-RHF Final Energy:  -345.03664683462728
    Total Energy =                       -345.0366468346270494
    Molecular point group: c1
  Basis Set: CC-PVTZ
  Basis Set:
  Basis Set: CC-PVTZ
  Basis Set:
  @DF-RHF Final Energy:  -345.03763518000682
    Total Energy =                       -345.0376351800069870
  Basis Set: CC-PVTZ
  Basis Set:
  Basis Set: CC-PVTZ
  Basis Set:
  @DF-RHF Final Energy:  -345.03799303650027
    Total Energy =                       -345.0379930365004952
  Basis Set: CC-PVTZ
  Basis Set:
  Basis Set: CC-PVTZ
  Basis Set:
  @DF-RHF Final Energy:  -345.03799366245437
    Total Energy =                       -345.0379936624539141
  Basis Set: CC-PVTZ
  Basis Set:
  Basis Set: CC-PVTZ
  Basis Set:
  @DF-RHF Final Energy:  -345.03801085204424
    Total Energy =                       -345.0380108520440672
  Basis Set: CC-PVTZ
  Basis Set:
  Charge       = 0
  Multiplicity = 1
  Basis Set: CC-PVTZ
  Basis Set:

    Orbital Energies (a.u.)
    -----------------------

    Doubly Occupied:

       1A    -20.596534     2A    -20.527849     3A    -11.363883
       4A    -11.283518     5A    -11.236147     6A    -11.221281
       7A    -11.218472     8A     -1.471607     9A     -1.362978
      10A     -1.072808    11A     -1.031279    12A     -0.906119
      13A     -0.862049    14A     -0.780473    15A     -0.693194
      16A     -0.680565    17A     -0.674664    18A     -0.630818
      19A     -0.575756    20A     -0.573606    21A     -0.554692
      22A     -0.550950    23A     -0.523159    24A     -0.515299
      25A     -0.508086    26A     -0.491435    27A     -0.453482
      28A     -0.433886

  @DF-RHF Final Energy:  -345.03801783065813

   => Energetics <=

    Nuclear Repulsion Energy =            318.0801366370363326
    One-Electron Energy =               -1100.6471314278114733
    Two-Electron Energy =                 437.5289769601166654
    DFT Exchange-Correlation Energy =       0.0000000000000000
    Empirical Dispersion Energy =           0.0000000000000000
    PCM Polarization Energy =               0.0000000000000000
    EFP Energy =                            0.0000000000000000
    Total Energy =                       -345.0380178306585321
    Molecular point group: c1
  Basis Set: CC-PVTZ
  Basis Set:

  -Total Gradient:
     Atom            X                  Y                   Z
    ------   -----------------  -----------------  -----------------
       1        0.000044271208     0.000014617136     0.000005230866
       2       -0.000098137275    -0.000138678511     0.000184586709
       3       -0.000091782497    -0.000038790083     0.000065183646
       4        0.000015919037     0.000154182264    -0.000167588917
       5       -0.000024224952    -0.000022088306    -0.000022939074
       6        0.000122130043     0.000106286317    -0.000103313784
       7       -0.000000783466    -0.000037714548     0.000015357769
       8       -0.000004603770    -0.000007225342     0.000011343237
       9        0.000011632192    -0.000002128065     0.000004357200
      10       -0.000013453383    -0.000003516350    -0.000003733844
      11        0.000034319168    -0.000036893359     0.000013454607
      12        0.000003295110     0.000008344993     0.000001207834
      13       -0.000006462234     0.000006142557    -0.000000692539
      14       -0.000001162384    -0.000002570916    -0.000002689371
      15        0.000004519518     0.000003835959     0.000002529744
      16        0.000000658888    -0.000007194760    -0.000001021209
      17        0.000003864799     0.000003391016    -0.000001272873

  **** Optimization is complete! (in 6 steps) ****
    Final optimized geometry and variables:
    Molecular point group: c1

    Geometry (in Angstrom), charge = 0, multiplicity = 1:

    O           -1.509972016385    -1.058554954186    -0.177091935651
    C           -0.364446271060    -0.772416734252    -0.075916143682
    C            0.741303575088    -1.804162118459    -0.083971599056
    O            0.062884672378     0.467320963905     0.061066825333
    C            2.171761709618    -1.283009308532    -0.074018238588
    H            0.560352342965    -2.424221037055    -0.953330236302
    H            0.557460635800    -2.439034104257     0.775651238072
    H            2.373213489379    -0.662710224201    -0.937657682595
    H            2.863525118910    -2.116495609747    -0.090039669760
    H            2.373633236535    -0.694127833074     0.810497100207
    C           -0.910545517940     1.502789052401     0.089393964035
    C           -0.182838613308     2.816689715517     0.251917687351
    H           -1.592790216478     1.321770559968     0.907688029533
    H           -1.480660888539     1.474401533913    -0.828182797227
    H            0.385132192228     2.832499922444     1.173640928058
    H           -0.898942522265     3.629537533843     0.276979767653
    H            0.498170447016     2.985853064943    -0.572704892599

  Mulliken Charges: (a.u.)
   Center  Symbol    Alpha    Beta     Spin     Total
       1     O     4.20520  4.20520  0.00000 -0.41040
       2     C     2.81074  2.81074  0.00000  0.37852
       3     C     3.09090  3.09090  0.00000 -0.18180
       4     O     4.14607  4.14607  0.00000 -0.29214
       5     C     3.14046  3.14046  0.00000 -0.28091
       6     H     0.43817  0.43817  0.00000  0.12366
       7     H     0.44058  0.44058  0.00000  0.11883
       8     H     0.45084  0.45084  0.00000  0.09832
       9     H     0.44927  0.44927  0.00000  0.10146
      10     H     0.44990  0.44990  0.00000  0.10020
      11     C     2.98116  2.98116  0.00000  0.03767
      12     C     3.13344  3.13344  0.00000 -0.26689
      13     H     0.45333  0.45333  0.00000  0.09335
      14     H     0.45332  0.45332  0.00000  0.09336
      15     H     0.45148  0.45148  0.00000  0.09704
      16     H     0.45377  0.45377  0.00000  0.09245
      17     H     0.45136  0.45136  0.00000  0.09727

   Total alpha = 28.00000, Total beta = 28.00000, Total charge = -0.00000
