  ==> Input File <==

--------------------------------------------------------------------------
set {
	reference rhf
	basis 6-31G*
}

set_num_threads( 4 )
memory 2 gb

molecule MOL {
0 1

H	 -3.420663	 1.227371	 -1.044276
O	 -3.452007	 0.283848	 -0.965577
C	 -3.181085	 -0.079926	 0.364119
C	 -1.765924	 0.277073	 0.805136
H	 -3.327791	 -1.152017	 0.410903
H	 -3.905698	 0.375695	 1.036898
C	 -0.677594	 -0.417312	 -0.014550
H	 -1.637766	 1.358238	 0.744969
H	 -1.659588	 0.017670	 1.857098
C	 0.738335	 -0.034840	 0.421385
H	 -0.814977	 -0.178223	 -1.064632
H	 -0.802730	 -1.495410	 0.071702
C	 1.822265	 -0.738362	 -0.399735
H	 0.853533	 1.043532	 0.342250
H	 0.871597	 -0.279636	 1.474438
C	 3.258060	 -0.455774	 0.057203
H	 1.718003	 -0.459167	 -1.447053
H	 1.651028	 -1.811884	 -0.354513
C	 3.550879	 -0.840665	 1.508589
H	 3.456449	 0.605942	 -0.068066
H	 3.953291	 -0.973220	 -0.600904
H	 2.862155	 -0.347410	 2.189395
H	 4.557950	 -0.547773	 1.789407
H	 3.466916	 -1.910213	 1.670399

	symmetry c1
}
set optking {
	frozen_dihedral = ("
		20 16 13 17
	")
}

ee = optimize('scf')
oeprop('DIPOLE', 'QUADRUPOLE', 'MULLIKEN_CHARGES')
f=open( 'psi4out.xyz', 'w' )
f.write( "24  " )
f.write( str(ee) + "\n" )
f.write( MOL.save_string_xyz() )
f.close()
--------------------------------------------------------------------------

    Molecular point group: c1
  Charge       = 0
  Multiplicity = 1
  Basis Set: 6-31G*
  Basis Set:
  @DF-RHF Final Energy:  -349.24648109096125
    Total Energy =                       -349.2464810909611970
    Molecular point group: c1
  Basis Set: 6-31G*
  Basis Set:
  Basis Set: 6-31G*
  Basis Set:
  @DF-RHF Final Energy:  -349.24719775732143
    Total Energy =                       -349.2471977573213735
  Basis Set: 6-31G*
  Basis Set:
  Basis Set: 6-31G*
  Basis Set:
  @DF-RHF Final Energy:  -349.24755250813081
    Total Energy =                       -349.2475525081309797
  Basis Set: 6-31G*
  Basis Set:
  Basis Set: 6-31G*
  Basis Set:
  @DF-RHF Final Energy:  -349.24756657337502
    Total Energy =                       -349.2475665733751384
  Basis Set: 6-31G*
  Basis Set:
  Basis Set: 6-31G*
  Basis Set:
  @DF-RHF Final Energy:  -349.24756823783986
    Total Energy =                       -349.2475682378399142
  Basis Set: 6-31G*
  Basis Set:
  Basis Set: 6-31G*
  Basis Set:
  @DF-RHF Final Energy:  -349.24757149635593
    Total Energy =                       -349.2475714963560449
  Basis Set: 6-31G*
  Basis Set:
  Charge       = 0
  Multiplicity = 1
  Basis Set: 6-31G*
  Basis Set:

    Orbital Energies (a.u.)
    -----------------------

    Doubly Occupied:

       1A    -20.553579     2A    -11.267699     3A    -11.217446
       4A    -11.214070     5A    -11.212374     6A    -11.211604
       7A    -11.211071     8A    -11.207385     9A     -1.360175
      10A     -1.088554    11A     -1.048267    12A     -0.985505
      13A     -0.915119    14A     -0.850972    15A     -0.800897
      16A     -0.775291    17A     -0.678967    18A     -0.654814
      19A     -0.624530    20A     -0.618819    21A     -0.597427
      22A     -0.585413    23A     -0.556572    24A     -0.541190
      25A     -0.517269    26A     -0.508409    27A     -0.497925
      28A     -0.471362    29A     -0.467759    30A     -0.458590
      31A     -0.457547    32A     -0.450862    33A     -0.418698

  @DF-RHF Final Energy:  -349.24757162067368

   => Energetics <=

    Nuclear Repulsion Energy =            384.4203973292239311
    One-Electron Energy =               -1235.2836169943147979
    Two-Electron Energy =                 501.6156480444176395
    DFT Exchange-Correlation Energy =       0.0000000000000000
    Empirical Dispersion Energy =           0.0000000000000000
    PCM Polarization Energy =               0.0000000000000000
    EFP Energy =                            0.0000000000000000
    Total Energy =                       -349.2475716206731704
    Molecular point group: c1
  Basis Set: 6-31G*
  Basis Set:

  -Total Gradient:
     Atom            X                  Y                   Z
    ------   -----------------  -----------------  -----------------
       1        0.000000795836    -0.000003021265     0.000002164312
       2        0.000010313816    -0.000009955794    -0.000005345079
       3       -0.000006267871     0.000022841323     0.000005292268
       4       -0.000002500614    -0.000017910171     0.000002291630
       5        0.000000921804     0.000001870065    -0.000000109284
       6       -0.000002864558     0.000000463306     0.000000716235
       7       -0.000002541157     0.000012684446    -0.000002747161
       8       -0.000003955945    -0.000003772458    -0.000000314410
       9        0.000001233203    -0.000002429431     0.000002013122
      10       -0.000004542771    -0.000002722490    -0.000003848905
      11       -0.000003950929     0.000000436289    -0.000009171000
      12       -0.000000405823     0.000002687118     0.000004375412
      13        0.000374625487    -0.000938553233    -0.000436091119
      14       -0.000002523297    -0.000007188921    -0.000002307949
      15        0.000000050723     0.000000011479     0.000002251030
      16       -0.000364673995     0.000342112003     0.001017946847
      17       -0.000265943700     0.000759846009     0.000197960464
      18        0.000012442227     0.000010630006     0.000005393260
      19        0.000010172044    -0.000006582318     0.000002726439
      20        0.000237782380    -0.000174882304    -0.000784525734
      21        0.000005833660     0.000005912158    -0.000002941066
      22       -0.000003123759     0.000002441778     0.000003408052
      23        0.000003853505    -0.000000068244     0.000002251097
      24        0.000005269735     0.000005150652    -0.000001388460

  **** Optimization is complete! (in 7 steps) ****
    Final optimized geometry and variables:
    Molecular point group: c1

    Geometry (in Angstrom), charge = 0, multiplicity = 1:

    H           -3.339537210722     1.560432722357    -1.253079059369
    O           -3.398778225033     0.615537302534    -1.221365429076
    C           -3.181901401546     0.181319374127     0.097082555205
    C           -1.772957739423     0.476453707561     0.599529806947
    H           -3.358711399579    -0.887107160679     0.086963470931
    H           -3.915887996369     0.624641676280     0.767845838823
    C           -0.677153269953    -0.207082156955    -0.219286518746
    H           -1.614280599613     1.555245541698     0.597048047973
    H           -1.708043645745     0.163241139217     1.640154468577
    C            0.733705069735     0.120027633463     0.274402186935
    H           -0.777868646063     0.081551033020    -1.260909772777
    H           -0.829696651517    -1.284694468967    -0.185236661378
    C            1.824024071272    -0.582014805867    -0.540047350896
    H            0.890315825779     1.197208966729     0.228639615480
    H            0.816477724653    -0.155815975624     1.322790591332
    C            3.258339029869    -0.194506124582    -0.162503546714
    H            1.671481750522    -0.348586260234    -1.591710216298
    H            1.705944883552    -1.660147302704    -0.444808226459
    C            3.659175385255    -0.540904063951     1.272334433158
    H            3.399457901524     0.870821737968    -0.333770648158
    H            3.938452727832    -0.698752435114    -0.845045274641
    H            3.087115970365     0.022708674688     2.001732239173
    H            4.708782504487    -0.321337126838     1.442344890115
    H            3.506378886913    -1.597528824519     1.475984560588

  Mulliken Charges: (a.u.)
   Center  Symbol    Alpha    Beta     Spin     Total
       1     H     0.28339  0.28339  0.00000  0.43322
       2     O     4.36828  4.36828  0.00000 -0.73657
       3     C     2.99617  2.99617  0.00000  0.00765
       4     C     3.16900  3.16900  0.00000 -0.33800
       5     H     0.41632  0.41632  0.00000  0.16735
       6     H     0.42816  0.42816  0.00000  0.14368
       7     C     3.15188  3.15188  0.00000 -0.30377
       8     H     0.42828  0.42828  0.00000  0.14345
       9     H     0.42242  0.42242  0.00000  0.15516
      10     C     3.15389  3.15389  0.00000 -0.30778
      11     H     0.41208  0.41208  0.00000  0.17585
      12     H     0.42353  0.42353  0.00000  0.15293
      13     C     3.15203  3.15203  0.00000 -0.30406
      14     H     0.42570  0.42570  0.00000  0.14859
      15     H     0.42265  0.42265  0.00000  0.15470
      16     C     3.15211  3.15211  0.00000 -0.30423
      17     H     0.42166  0.42166  0.00000  0.15668
      18     H     0.42400  0.42400  0.00000  0.15199
      19     C     3.24129  3.24129  0.00000 -0.48259
      20     H     0.42381  0.42381  0.00000  0.15238
      21     H     0.42121  0.42121  0.00000  0.15757
      22     H     0.42022  0.42022  0.00000  0.15957
      23     H     0.41950  0.41950  0.00000  0.16100
      24     H     0.42240  0.42240  0.00000  0.15521

   Total alpha = 33.00000, Total beta = 33.00000, Total charge = -0.00000
