  ==> Input File <==

--------------------------------------------------------------------------
set {
	reference rhf
	basis 6-31G*
}

set_num_threads( 1 )
memory 2 gb

molecule MOL {
0 1

O	 -2.787670	 0.111222	 0.766222
C	 -1.921153	 0.064240	 -0.045697
C	 -2.133378	 -0.109853	 -1.525224
O	 -0.632575	 0.154573	 0.251549
H	 -1.627631	 -1.006453	 -1.864749
H	 -3.190407	 -0.179772	 -1.734113
H	 -1.704219	 0.730789	 -2.058047
C	 0.160891	 -1.019931	 0.106212
C	 1.589627	 -0.672828	 0.480843
H	 0.089836	 -1.367806	 -0.916050
H	 -0.238459	 -1.792301	 0.749618
C	 2.246377	 0.346236	 -0.452210
H	 2.163194	 -1.597435	 0.473358
H	 1.604769	 -0.303424	 1.502885
C	 3.691736	 0.652107	 -0.061850
H	 2.219579	 -0.032311	 -1.472055
H	 1.666466	 1.263317	 -0.447249
H	 4.134505	 1.377213	 -0.737283
H	 4.305508	 -0.243868	 -0.089969
H	 3.748266	 1.059562	 0.943567

	symmetry c1
}
set optking {
	frozen_dihedral = ("
		16 12 9 8,
		2 4 8 10,
		12 9 8 10
	")
}

ee = energy('scf')
oeprop('DIPOLE', 'QUADRUPOLE', 'MULLIKEN_CHARGES')
f=open( 'psi4out.xyz', 'w' )
f.write( "20  " )
f.write( str(ee) + "\n" )
f.write( MOL.save_string_xyz() )
f.close()
--------------------------------------------------------------------------

    Molecular point group: c1

    Geometry (in Angstrom), charge = 0, multiplicity = 1:

       Center              X                  Y                   Z               Mass
    ------------   -----------------  -----------------  -----------------  -----------------
           O         -2.806424970539     0.169264952997     0.829885106696    15.994914619560
           C         -1.939907970539     0.122282952997     0.017966106696    12.000000000000
           C         -2.152132970539    -0.051810047003    -1.461560893304    12.000000000000
           O         -0.651329970539     0.212615952997     0.315212106696    15.994914619560
           H         -1.646385970539    -0.948410047003    -1.801085893304     1.007825032070
           H         -3.209161970539    -0.121729047003    -1.670449893304     1.007825032070
           H         -1.722973970539     0.788831952997    -1.994383893304     1.007825032070
           C          0.142136029461    -0.961888047003     0.169875106696    12.000000000000
           C          1.570872029461    -0.614785047003     0.544506106696    12.000000000000
           H          0.071081029461    -1.309763047003    -0.852386893304     1.007825032070
           H         -0.257213970539    -1.734258047003     0.813281106696     1.007825032070
           C          2.227622029461     0.404278952997    -0.388546893304    12.000000000000
           H          2.144439029461    -1.539392047003     0.537021106696     1.007825032070
           H          1.586014029461    -0.245381047003     1.566548106696     1.007825032070
           C          3.672981029461     0.710149952997     0.001813106696    12.000000000000
           H          2.200824029461     0.025731952997    -1.408391893304     1.007825032070
           H          1.647711029461     1.321359952997    -0.383585893304     1.007825032070
           H          4.115750029461     1.435255952997    -0.673619893304     1.007825032070
           H          4.286753029461    -0.185825047003    -0.026305893304     1.007825032070
           H          3.729511029461     1.117604952997     1.007230106696     1.007825032070

  Charge       = 0
  Multiplicity = 1
  Basis Set: 6-31G*
  Basis Set:

    Orbital Energies (a.u.)
    -----------------------

    Doubly Occupied:

       1A    -20.587863     2A    -20.552800     3A    -11.375783
       4A    -11.298405     5A    -11.234611     6A    -11.231700
       7A    -11.224754     8A    -11.216197     9A     -1.462892
      10A     -1.367888    11A     -1.088623    12A     -1.021297
      13A     -0.996036    14A     -0.889229    15A     -0.814808
      16A     -0.782137    17A     -0.693823    18A     -0.689525
      19A     -0.657384    20A     -0.635763    21A     -0.621960
      22A     -0.591108    23A     -0.579070    24A     -0.556839
      25A     -0.552145    26A     -0.536316    27A     -0.491226
      28A     -0.490162    29A     -0.483260    30A     -0.476290
      31A     -0.452174    32A     -0.435979

  @DF-RHF Final Energy:  -383.92246528318509

   => Energetics <=

    Nuclear Repulsion Energy =            386.3565851573860641
    One-Electron Energy =               -1288.3820058883875390
    Two-Electron Energy =                 518.1029554478168393
    DFT Exchange-Correlation Energy =       0.0000000000000000
    Empirical Dispersion Energy =           0.0000000000000000
    PCM Polarization Energy =               0.0000000000000000
    EFP Energy =                            0.0000000000000000
    Total Energy =                       -383.9224652831846925

  Mulliken Charges: (a.u.)
   Center  Symbol    Alpha    Beta     Spin     Total
       1     O     4.25523  4.25523  0.00000 -0.51046
       2     C     2.62582  2.62582  0.00000  0.74837
       3     C     3.29406  3.29406  0.00000 -0.58811
       4     O     4.30879  4.30879  0.00000 -0.61757
       5     H     0.40683  0.40683  0.00000  0.18634
       6     H     0.39648  0.39648  0.00000  0.20705
       7     H     0.39900  0.39900  0.00000  0.20200
       8     C     3.00646  3.00646  0.00000 -0.01292
       9     C     3.16221  3.16221  0.00000 -0.32443
      10     H     0.42218  0.42218  0.00000  0.15565
      11     H     0.40906  0.40906  0.00000  0.18188
      12     C     3.15589  3.15589  0.00000 -0.31178
      13     H     0.41890  0.41890  0.00000  0.16219
      14     H     0.40755  0.40755  0.00000  0.18489
      15     C     3.24083  3.24083  0.00000 -0.48166
      16     H     0.42522  0.42522  0.00000  0.14957
      17     H     0.40828  0.40828  0.00000  0.18344
      18     H     0.41677  0.41677  0.00000  0.16646
      19     H     0.42191  0.42191  0.00000  0.15619
      20     H     0.41854  0.41854  0.00000  0.16291

   Total alpha = 32.00000, Total beta = 32.00000, Total charge = -0.00000
