  ==> Input File <==

--------------------------------------------------------------------------
set {
	reference rhf
	basis cc-pvtz
}

set_num_threads( 4 )
memory 2 gb

molecule MOL {
0 1

H	 -3.144994	 -1.202467	 -0.018751
O	 -2.321472	 -0.864941	 -0.318626
C	 -2.021813	 0.336996	 0.342658
C	 -0.669613	 0.837286	 -0.127252
H	 -2.780861	 1.084746	 0.127159
H	 -2.006390	 0.184138	 1.420053
C	 0.490865	 -0.082543	 0.241244
H	 -0.708709	 0.967192	 -1.204587
H	 -0.507562	 1.822272	 0.303070
C	 1.839800	 0.429565	 -0.255472
H	 0.305636	 -1.070211	 -0.165276
H	 0.527397	 -0.195943	 1.322876
C	 1.854296	 0.720417	 -1.752462
H	 2.101834	 1.332970	 0.288496
H	 2.611784	 -0.299726	 -0.023382
H	 1.116522	 1.472589	 -2.011003
H	 2.823936	 1.083796	 -2.073490
H	 1.629128	 -0.172205	 -2.326892

	symmetry c1
}
set optking {
	frozen_dihedral = ("
		14 10 7 11
	")
}

ee = optimize('scf')
oeprop('DIPOLE', 'QUADRUPOLE', 'MULLIKEN_CHARGES')
f=open( 'psi4out.xyz', 'w' )
f.write( "18  " )
f.write( str(ee) + "\n" )
f.write( MOL.save_string_xyz() )
f.close()
--------------------------------------------------------------------------

    Molecular point group: c1
  Charge       = 0
  Multiplicity = 1
  Basis Set: CC-PVTZ
  Basis Set:
  @DF-RHF Final Energy:  -271.28335927513092
    Total Energy =                       -271.2833592751311471
    Molecular point group: c1
  Basis Set: CC-PVTZ
  Basis Set:
  Basis Set: CC-PVTZ
  Basis Set:
  @DF-RHF Final Energy:  -271.28414336318946
    Total Energy =                       -271.2841433631894574
  Basis Set: CC-PVTZ
  Basis Set:
  Basis Set: CC-PVTZ
  Basis Set:
  @DF-RHF Final Energy:  -271.28476734885129
    Total Energy =                       -271.2847673488511759
  Basis Set: CC-PVTZ
  Basis Set:
  Basis Set: CC-PVTZ
  Basis Set:
  @DF-RHF Final Energy:  -271.28481484635222
    Total Energy =                       -271.2848148463521625
  Basis Set: CC-PVTZ
  Basis Set:
  Basis Set: CC-PVTZ
  Basis Set:
  @DF-RHF Final Energy:  -271.28481857639810
    Total Energy =                       -271.2848185763984930
  Basis Set: CC-PVTZ
  Basis Set:
  Charge       = 0
  Multiplicity = 1
  Basis Set: CC-PVTZ
  Basis Set:

    Orbital Energies (a.u.)
    -----------------------

    Doubly Occupied:

       1A    -20.546095     2A    -11.265827     3A    -11.209975
       4A    -11.209565     5A    -11.205321     6A    -11.202192
       7A     -1.363992     8A     -1.075995     9A     -1.007265
      10A     -0.915962    11A     -0.831198    12A     -0.770982
      13A     -0.707215    14A     -0.644144    15A     -0.614490
      16A     -0.604193    17A     -0.564550    18A     -0.557016
      19A     -0.525791    20A     -0.505782    21A     -0.491907
      22A     -0.462581    23A     -0.456307    24A     -0.450429
      25A     -0.430138

  @DF-RHF Final Energy:  -271.28481902126123

   => Energetics <=

    Nuclear Repulsion Energy =            252.3276979478339399
    One-Electron Energy =                -867.9872110974044972
    Two-Electron Energy =                 344.3746941283094429
    DFT Exchange-Correlation Energy =       0.0000000000000000
    Empirical Dispersion Energy =           0.0000000000000000
    PCM Polarization Energy =               0.0000000000000000
    EFP Energy =                            0.0000000000000000
    Total Energy =                       -271.2848190212611144
    Molecular point group: c1
  Basis Set: CC-PVTZ
  Basis Set:

  -Total Gradient:
     Atom            X                  Y                   Z
    ------   -----------------  -----------------  -----------------
       1        0.000001458188    -0.000004524908     0.000002609352
       2        0.000017262962    -0.000020139461     0.000016889887
       3       -0.000022788009     0.000023320278    -0.000051155730
       4        0.000010141965     0.000011487657     0.000031621933
       5        0.000001985944     0.000015584302     0.000010723122
       6        0.000007124690    -0.000011605281    -0.000012400184
       7       -0.000824004849     0.000799744446    -0.001666189901
       8       -0.000013330435    -0.000003352393     0.000005819826
       9        0.000001501150     0.000007259583     0.000001767095
      10       -0.000900172458     0.001177604830    -0.001336663515
      11        0.000846454835    -0.000865448968     0.001594352394
      12        0.000015406684     0.000000834342    -0.000003693360
      13       -0.000014412177    -0.000004233853     0.000008411494
      14        0.000872610632    -0.001125695583     0.001381653774
      15        0.000002761995    -0.000002956167     0.000008068090
      16       -0.000002475553     0.000007490919    -0.000005039875
      17        0.000002915239    -0.000006253962     0.000010304317
      18       -0.000002440804     0.000000884218     0.000002921283

  **** Optimization is complete! (in 6 steps) ****
    Final optimized geometry and variables:
    Molecular point group: c1

    Geometry (in Angstrom), charge = 0, multiplicity = 1:

    H           -2.967518170778    -1.428859531096     0.427428235655
    O           -2.161744196974    -1.092150357615     0.082095540578
    C           -1.838168062540     0.122962832247     0.706975291270
    C           -0.517365793313     0.625858528356     0.156463925064
    H           -2.614187063157     0.861073625039     0.520337854719
    H           -1.763830219801    -0.012227820136     1.784178886802
    C            0.662512381732    -0.287135894142     0.480655767432
    H           -0.624245691381     0.744343775902    -0.915622623413
    H           -0.337248754862     1.616052754573     0.568676992147
    C            2.028519055459     0.245865415281     0.043539669202
    H            0.497790810811    -1.266189802989     0.045200331189
    H            0.691847469149    -0.443328597330     1.556640238686
    C            2.164421833161     0.534836713554    -1.448880850340
    H            2.268718895305     1.138597757156     0.615677205192
    H            2.777658396576    -0.489196685343     0.323119995799
    H            1.523926501084     1.349126141764    -1.765381142030
    H            3.184117643320     0.808963235950    -1.694493112515
    H            1.905307137347    -0.338032380090    -2.039430686843

  Mulliken Charges: (a.u.)
   Center  Symbol    Alpha    Beta     Spin     Total
       1     H     0.39581  0.39581  0.00000  0.20837
       2     O     4.19867  4.19867  0.00000 -0.39734
       3     C     2.97414  2.97414  0.00000  0.05173
       4     C     3.09367  3.09367  0.00000 -0.18734
       5     H     0.46562  0.46562  0.00000  0.06876
       6     H     0.47299  0.47299  0.00000  0.05403
       7     C     3.09370  3.09370  0.00000 -0.18739
       8     H     0.45012  0.45012  0.00000  0.09976
       9     H     0.45371  0.45371  0.00000  0.09259
      10     C     3.09001  3.09001  0.00000 -0.18002
      11     H     0.44345  0.44345  0.00000  0.11309
      12     H     0.45520  0.45520  0.00000  0.08960
      13     C     3.15356  3.15356  0.00000 -0.30711
      14     H     0.45569  0.45569  0.00000  0.08863
      15     H     0.45013  0.45013  0.00000  0.09974
      16     H     0.45383  0.45383  0.00000  0.09234
      17     H     0.44724  0.44724  0.00000  0.10552
      18     H     0.45248  0.45248  0.00000  0.09504

   Total alpha = 25.00000, Total beta = 25.00000, Total charge = -0.00000
