  ==> Input File <==

--------------------------------------------------------------------------
set {
	reference rhf
	basis 6-31G*
}

set_num_threads( 1 )
memory 2 gb

molecule MOL {
0 1

H	 1.468557	 -0.261083	 2.045312
C	 1.769475	 -0.021897	 1.018161
C	 0.692068	 0.589600	 0.160137
O	 2.877746	 -0.247059	 0.653241
C	 -0.558097	 -0.297372	 0.091132
H	 1.104120	 0.769430	 -0.825944
H	 0.427456	 1.552523	 0.595555
C	 -1.850991	 0.512573	 -0.019058
H	 -0.476753	 -0.965681	 -0.762987
H	 -0.604799	 -0.930658	 0.975228
C	 -3.096943	 -0.368295	 -0.099594
H	 -1.800724	 1.150330	 -0.898172
H	 -1.931651	 1.177355	 0.838044
H	 -3.060452	 -1.020287	 -0.967456
H	 -3.996858	 0.233488	 -0.175704
H	 -3.191959	 -0.995686	 0.782074

	symmetry c1
}
set optking {
	frozen_dihedral = ("
		9 5 8 12,
		4 2 3 6
	")
}

ee = energy('scf')
oeprop('DIPOLE', 'QUADRUPOLE', 'MULLIKEN_CHARGES')
f=open( 'psi4out.xyz', 'w' )
f.write( "16  " )
f.write( str(ee) + "\n" )
f.write( MOL.save_string_xyz() )
f.close()
--------------------------------------------------------------------------

    Molecular point group: c1

    Geometry (in Angstrom), charge = 0, multiplicity = 1:

       Center              X                  Y                   Z               Mass
    ------------   -----------------  -----------------  -----------------  -----------------
           H          1.499484308063    -0.281285638744     1.744679547955     1.007825032070
           C          1.800402308063    -0.042099638744     0.717528547955    12.000000000000
           C          0.722995308063     0.569397361256    -0.140495452045    12.000000000000
           O          2.908673308063    -0.267261638744     0.352608547955    15.994914619560
           C         -0.527169691937    -0.317574638744    -0.209500452045    12.000000000000
           H          1.135047308063     0.749227361256    -1.126576452045     1.007825032070
           H          0.458383308063     1.532320361256     0.294922547955     1.007825032070
           C         -1.820063691937     0.492370361256    -0.319690452045    12.000000000000
           H         -0.445825691937    -0.985883638744    -1.063619452045     1.007825032070
           H         -0.573871691937    -0.950860638744     0.674595547955     1.007825032070
           C         -3.066015691937    -0.388497638744    -0.400226452045    12.000000000000
           H         -1.769796691937     1.130127361256    -1.198804452045     1.007825032070
           H         -1.900723691937     1.157152361256     0.537411547955     1.007825032070
           H         -3.029524691937    -1.040489638744    -1.268088452045     1.007825032070
           H         -3.965930691937     0.213285361256    -0.476336452045     1.007825032070
           H         -3.161031691937    -1.015888638744     0.481441547955     1.007825032070

  Charge       = 0
  Multiplicity = 1
  Basis Set: 6-31G*
  Basis Set:

    Orbital Energies (a.u.)
    -----------------------

    Doubly Occupied:

       1A    -20.562409     2A    -11.326756     3A    -11.235964
       4A    -11.234550     5A    -11.229684     6A    -11.218498
       7A     -1.402301     8A     -1.096971     9A     -1.018707
      10A     -0.905739    11A     -0.813952    12A     -0.794407
      13A     -0.674266    14A     -0.652260    15A     -0.625567
      16A     -0.604151    17A     -0.580600    18A     -0.553518
      19A     -0.532093    20A     -0.505218    21A     -0.486187
      22A     -0.481165    23A     -0.479013    24A     -0.409664

  @DF-RHF Final Energy:  -270.01720914552607

   => Energetics <=

    Nuclear Repulsion Energy =            229.0360438974936415
    One-Electron Energy =                -819.2592020871137493
    Two-Electron Energy =                 320.2059490440943250
    DFT Exchange-Correlation Energy =       0.0000000000000000
    Empirical Dispersion Energy =           0.0000000000000000
    PCM Polarization Energy =               0.0000000000000000
    EFP Energy =                            0.0000000000000000
    Total Energy =                       -270.0172091455257828

  Mulliken Charges: (a.u.)
   Center  Symbol    Alpha    Beta     Spin     Total
       1     H     0.43172  0.43172  0.00000  0.13655
       2     C     2.83209  2.83209  0.00000  0.33581
       3     C     3.20790  3.20790  0.00000 -0.41580
       4     O     4.23715  4.23715  0.00000 -0.47430
       5     C     3.16492  3.16492  0.00000 -0.32984
       6     H     0.39772  0.39772  0.00000  0.20456
       7     H     0.40854  0.40854  0.00000  0.18292
       8     C     3.15365  3.15365  0.00000 -0.30729
       9     H     0.41063  0.41063  0.00000  0.17873
      10     H     0.41851  0.41851  0.00000  0.16299
      11     C     3.24083  3.24083  0.00000 -0.48166
      12     H     0.41866  0.41866  0.00000  0.16268
      13     H     0.42136  0.42136  0.00000  0.15729
      14     H     0.41940  0.41940  0.00000  0.16121
      15     H     0.41661  0.41661  0.00000  0.16679
      16     H     0.42031  0.42031  0.00000  0.15938

   Total alpha = 24.00000, Total beta = 24.00000, Total charge =  0.00000
