                              Psi4 1.0.54 Driver

  ==> Input File <==

--------------------------------------------------------------------------
set {
	reference rhf
	basis cc-pvtz
}

set_num_threads( 4 )
memory 2 gb

molecule MOL {
0 1

O	 1.397953	 2.074540	 0.294002
C	 0.400458	 2.381062	 0.852648
C	 -0.889911	 1.602526	 0.830964
O	 0.288758	 3.475821	 1.587116
C	 -0.824290	 0.329213	 -0.000115
H	 -1.151318	 1.386154	 1.861643
H	 -1.661997	 2.271416	 0.465028
C	 -2.146151	 -0.432825	 -0.000068
H	 -0.032977	 -0.306061	 0.381361
H	 -0.543990	 0.580215	 -1.016835
C	 -3.366283	 0.483552	 0.000557
H	 -2.189286	 -1.084450	 -0.869996
H	 -2.188867	 -1.085083	 0.869399
C	 -4.687436	 -0.278003	 0.000108
H	 -3.325150	 1.134819	 -0.867957
H	 -3.325087	 1.133730	 0.869885
H	 -4.773783	 -0.912098	 -0.876078
H	 -5.531922	 0.401392	 0.000363
H	 -4.773901	 -0.912898	 0.875703
C	 1.428923	 4.303865	 1.695244
H	 2.250572	 3.764812	 2.143050
H	 1.138538	 5.129488	 2.324426
H	 1.731949	 4.664291	 0.723400

	symmetry c1
}
set optking {
	frozen_dihedral = ("
		9 5 8 12
	")
}

ee,wfn = optimize('scf', return_wfn=True)
oeprop( wfn, 'DIPOLE', 'QUADRUPOLE', 'MULLIKEN_CHARGES')
f=open( 'psi4out.xyz', 'w' )
f.write( "23  " )
f.write( str(ee) + "\n" )
f.write( MOL.save_string_xyz() )
f.close()
--------------------------------------------------------------------------

    Molecular point group: c1
  Charge       = 0
  Multiplicity = 1
  Basis Set: CC-PVTZ
  Basis Set:
  @DF-RHF Final Energy:  -423.12360889198703
    Total Energy =                       -423.1236088919870326
    Molecular point group: c1
  Basis Set: CC-PVTZ
  Basis Set:
  Basis Set: CC-PVTZ
  Basis Set:
  @DF-RHF Final Energy:  -423.11585378790789
    Total Energy =                       -423.1158537879078949
  Basis Set: CC-PVTZ
  Basis Set:
  Basis Set: CC-PVTZ
  Basis Set:
  @DF-RHF Final Energy:  -423.12581192159968
    Total Energy =                       -423.1258119215996203
  Basis Set: CC-PVTZ
  Basis Set:
  Basis Set: CC-PVTZ
  Basis Set:
  @DF-RHF Final Energy:  -423.12629217334683
    Total Energy =                       -423.1262921733468829
  Basis Set: CC-PVTZ
  Basis Set:
  @DF-RHF Final Energy:  -423.12616636169918
    Total Energy =                       -423.1261663616992337
  @DF-RHF Final Energy:  -423.12593266029455
    Total Energy =                       -423.1259326602939836
  Basis Set: CC-PVTZ
  Basis Set:
  @DF-RHF Final Energy:  -423.12633970539025
    Total Energy =                       -423.1263397053896824
  Basis Set: CC-PVTZ
  Basis Set:
  Basis Set: CC-PVTZ
  Basis Set:
  @DF-RHF Final Energy:  -423.12635997656361
    Total Energy =                       -423.1263599765641175
  Basis Set: CC-PVTZ
  Basis Set:
  Basis Set: CC-PVTZ
  Basis Set:
  @DF-RHF Final Energy:  -423.12636257086217
    Total Energy =                       -423.1263625708622840
  Basis Set: CC-PVTZ
  Basis Set:
  Charge       = 0
  Multiplicity = 1
  Basis Set: CC-PVTZ
  Basis Set:

    Orbital Energies (a.u.)
    -----------------------

    Doubly Occupied:

       1A    -20.595925     2A    -20.533883     3A    -11.364150
       4A    -11.278236     5A    -11.232845     6A    -11.217700
       7A    -11.216976     8A    -11.216056     9A    -11.209204
      10A     -1.471863    11A     -1.365456    12A     -1.094156
      13A     -1.042648    14A     -0.987654    15A     -0.933356
      16A     -0.852973    17A     -0.792693    18A     -0.762273
      19A     -0.702114    20A     -0.686089    21A     -0.675038
      22A     -0.647895    23A     -0.614289    24A     -0.602187
      25A     -0.577937    26A     -0.560448    27A     -0.552679
      28A     -0.527954    29A     -0.522024    30A     -0.511846
      31A     -0.494082    32A     -0.467354    33A     -0.464616
      34A     -0.459508    35A     -0.453281    36A     -0.440554

  @DF-RHF Final Energy:  -423.12636298706815

   => Energetics <=

    Nuclear Repulsion Energy =            459.1828545284318466
    One-Electron Energy =               -1486.3625462785489617
    Two-Electron Energy =                 604.0533287630488530
    DFT Exchange-Correlation Energy =       0.0000000000000000
    Empirical Dispersion Energy =           0.0000000000000000
    PCM Polarization Energy =               0.0000000000000000
    EFP Energy =                            0.0000000000000000
    Total Energy =                       -423.1263629870683189
    Molecular point group: c1
  Basis Set: CC-PVTZ
  Basis Set:

  -Total Gradient:
     Atom            X                  Y                   Z
    ------   -----------------  -----------------  -----------------
       1        0.000004894746     0.000003709868     0.000003357266
       2       -0.000000413997    -0.000000073072    -0.000031951360
       3        0.000007019706    -0.000021410153     0.000031186414
       4        0.000008547500     0.000007338404     0.000021286535
       5        0.001848007758    -0.001254272133    -0.007036760966
       6       -0.000006868256     0.000006450093    -0.000004088058
       7       -0.000002737111     0.000006887352    -0.000008095138
       8        0.002409600360    -0.004469116328     0.005198705872
       9       -0.001918843943     0.001722346241     0.005155526331
      10        0.000000034469    -0.000001057172    -0.000002544580
      11       -0.000001740890     0.000009579830     0.000009856755
      12       -0.002344333132     0.004007965295    -0.003327486857
      13       -0.000001033511     0.000004873564    -0.000000316523
      14        0.000002532147    -0.000016083778    -0.000007472345
      15       -0.000003052830    -0.000011825822     0.000015863254
      16        0.000005228455    -0.000001322329    -0.000013849644
      17       -0.000003532521     0.000002543591     0.000013071565
      18        0.000004237157     0.000001035120    -0.000000973933
      19        0.000000162613     0.000007442247    -0.000010078461
      20       -0.000010555287    -0.000006500120    -0.000006289209
      21        0.000000625012     0.000001156092     0.000000239230
      22        0.000000640360    -0.000000928281    -0.000000335472
      23        0.000001581198     0.000001261488     0.000001149327

  **** Optimization is complete! (in 10 steps) ****
    Final optimized geometry and variables:
    Molecular point group: c1

    Geometry (in Angstrom), charge = 0, multiplicity = 1:

    O            2.312076189509     0.592864231992     0.094881441971
    C            1.237610974979     0.880507466752     0.499719188848
    C           -0.034035354488     0.112667036870     0.241161791392
    O            1.009284317124     1.945161490546     1.251919982482
    C            0.178241148331    -1.125993741253    -0.624669941061
    H           -0.449323643228    -0.148982130296     1.209328621458
    H           -0.734575265353     0.808720286957    -0.203311777476
    C           -1.071708546635    -2.001715231289    -0.796964435939
    H            0.949470175266    -1.712495013659    -0.141426539653
    H            0.561842929975    -0.821874876900    -1.590406840307
    C           -2.383910233231    -1.250961557544    -1.034648890618
    H           -0.915269941393    -2.631845539807    -1.667178668054
    H           -1.187518718365    -2.655359400653     0.062295850845
    C           -3.543008117624    -2.192064312565    -1.347275249069
    H           -2.257320580748    -0.553414209877    -1.858974172958
    H           -2.641081729200    -0.654818403075    -0.165632032176
    H           -3.347084445431    -2.771738330942    -2.242973893639
    H           -4.463969936923    -1.642323066182    -1.503704772002
    H           -3.709189137567    -2.890366357810    -0.533580021728
    C            2.116706315910     2.761643732891     1.574063079141
    H            2.857614198902     2.200178568502     2.123690129925
    H            1.729238587840     3.562121789404     2.183189011142
    H            2.569902487689     3.160523284643     0.678646468041

  Mulliken Charges: (a.u.)
   Center  Symbol    Alpha    Beta     Spin     Total
       1     O     4.19665  4.19665  0.00000 -0.39329
       2     C     2.81031  2.81031  0.00000  0.37939
       3     C     3.10163  3.10163  0.00000 -0.20326
       4     O     4.14673  4.14673  0.00000 -0.29346
       5     C     3.09116  3.09116  0.00000 -0.18231
       6     H     0.43917  0.43917  0.00000  0.12166
       7     H     0.43678  0.43678  0.00000  0.12644
       8     C     3.09593  3.09593  0.00000 -0.19186
       9     H     0.44159  0.44159  0.00000  0.11682
      10     H     0.44436  0.44436  0.00000  0.11127
      11     C     3.09190  3.09190  0.00000 -0.18379
      12     H     0.44901  0.44901  0.00000  0.10199
      13     H     0.45098  0.45098  0.00000  0.09803
      14     C     3.15058  3.15058  0.00000 -0.30115
      15     H     0.45258  0.45258  0.00000  0.09483
      16     H     0.45185  0.45185  0.00000  0.09629
      17     H     0.45377  0.45377  0.00000  0.09247
      18     H     0.44791  0.44791  0.00000  0.10418
      19     H     0.45494  0.45494  0.00000  0.09012
      20     C     3.03830  3.03830  0.00000 -0.07660
      21     H     0.45426  0.45426  0.00000  0.09147
      22     H     0.44519  0.44519  0.00000  0.10961
      23     H     0.45442  0.45442  0.00000  0.09115

   Total alpha = 36.00000, Total beta = 36.00000, Total charge = -0.00000

*** Psi4 exiting successfully. Buy a developer a beer!
