  ==> Input File <==

--------------------------------------------------------------------------
set {
	reference rhf
	basis 6-31G*
}

set_num_threads( 4 )
memory 2 gb

molecule MOL {
0 1

O	 -0.473679	 -0.709632	 1.659119
C	 -0.373950	 0.150741	 0.825743
C	 -1.392390	 1.273779	 0.765313
N	 0.623947	 0.147590	 -0.102813
H	 -1.900688	 1.298298	 -0.192348
H	 -2.116168	 1.095163	 1.545882
H	 -0.929124	 2.241437	 0.925327
C	 1.665360	 -0.855771	 0.000151
C	 0.921843	 1.261992	 -0.975517
H	 2.465253	 -0.618490	 -0.692587
H	 1.257730	 -1.821716	 -0.242189
H	 2.081488	 -0.891645	 1.004627
H	 1.313354	 0.883598	 -1.912307
H	 0.038043	 1.837597	 -1.200267
H	 1.667797	 1.927367	 -0.544656

	symmetry c1
}
set optking {
	frozen_dihedral = ("
		2 4 8 10
	")
}

ee = optimize('scf')
oeprop('DIPOLE', 'QUADRUPOLE', 'MULLIKEN_CHARGES')
f=open( 'psi4out.xyz', 'w' )
f.write( "15  " )
f.write( str(ee) + "\n" )
f.write( MOL.save_string_xyz() )
f.close()
--------------------------------------------------------------------------

    Molecular point group: c1
  Charge       = 0
  Multiplicity = 1
  Basis Set: 6-31G*
  Basis Set:
  @DF-RHF Final Energy:  -286.02793193365846
    Total Energy =                       -286.0279319336585786
    Molecular point group: c1
  Basis Set: 6-31G*
  Basis Set:
  Basis Set: 6-31G*
  Basis Set:
  @DF-RHF Final Energy:  -286.02859677151889
    Total Energy =                       -286.0285967715188349
  Basis Set: 6-31G*
  Basis Set:
  Basis Set: 6-31G*
  Basis Set:
  @DF-RHF Final Energy:  -286.02870284698014
    Total Energy =                       -286.0287028469800816
  Basis Set: 6-31G*
  Basis Set:
  Basis Set: 6-31G*
  Basis Set:
  @DF-RHF Final Energy:  -286.02868987457248
    Total Energy =                       -286.0286898745723079
  Basis Set: 6-31G*
  Basis Set:
  @DF-RHF Final Energy:  -286.02873858539175
    Total Energy =                       -286.0287385853916362
  @DF-RHF Final Energy:  -286.02877787790123
    Total Energy =                       -286.0287778779013479
  @DF-RHF Final Energy:  -286.02881022234021
    Total Energy =                       -286.0288102223403826
  @DF-RHF Final Energy:  -286.02885787366051
    Total Energy =                       -286.0288578736606269
  @DF-RHF Final Energy:  -285.94367216683725
    Total Energy =                       -285.9436721668373593
  @DF-RHF Final Energy:  -286.01648468177757
    Total Energy =                       -286.0164846817775697
  @DF-RHF Final Energy:  -286.02862521722170
    Total Energy =                       -286.0286252172219292
  @DF-RHF Final Energy:  -286.02897937862650
    Total Energy =                       -286.0289793786265022
  @DF-RHF Final Energy:  -286.02916464780299
    Total Energy =                       -286.0291646478029293
  @DF-RHF Final Energy:  -286.02925380714601
    Total Energy =                       -286.0292538071460058
  @DF-RHF Final Energy:  -286.02935558599381
    Total Energy =                       -286.0293555859938124
  @DF-RHF Final Energy:  -286.02931359699807
    Total Energy =                       -286.0293135969981222
  Basis Set: 6-31G*
  Basis Set:
  @DF-RHF Final Energy:  -286.02940322864049
    Total Energy =                       -286.0294032286404331
  Basis Set: 6-31G*
  Basis Set:
  Basis Set: 6-31G*
  Basis Set:
  @DF-RHF Final Energy:  -286.02941113308202
    Total Energy =                       -286.0294111330821352
  Basis Set: 6-31G*
  Basis Set:
  Basis Set: 6-31G*
  Basis Set:
  @DF-RHF Final Energy:  -286.02941206193668
    Total Energy =                       -286.0294120619366822
  Basis Set: 6-31G*
  Basis Set:
  Charge       = 0
  Multiplicity = 1
  Basis Set: 6-31G*
  Basis Set:

    Orbital Energies (a.u.)
    -----------------------

    Doubly Occupied:

       1A    -20.515545     2A    -15.582872     3A    -11.339982
       4A    -11.266698     5A    -11.248284     6A    -11.228455
       7A     -1.385221     8A     -1.242187     9A     -1.013816
      10A     -0.973073    11A     -0.917758    12A     -0.737149
      13A     -0.680022    14A     -0.657995    15A     -0.651264
      16A     -0.588046    17A     -0.576087    18A     -0.569957
      19A     -0.563842    20A     -0.545583    21A     -0.530365
      22A     -0.499927    23A     -0.411110    24A     -0.367382

  @DF-RHF Final Energy:  -286.02941243130090

   => Energetics <=

    Nuclear Repulsion Energy =            252.6181842200218455
    One-Electron Energy =                -889.1099562280051032
    Two-Electron Energy =                 350.4623595766822177
    DFT Exchange-Correlation Energy =       0.0000000000000000
    Empirical Dispersion Energy =           0.0000000000000000
    PCM Polarization Energy =               0.0000000000000000
    EFP Energy =                            0.0000000000000000
    Total Energy =                       -286.0294124313010684
    Molecular point group: c1
  Basis Set: 6-31G*
  Basis Set:

  -Total Gradient:
     Atom            X                  Y                   Z
    ------   -----------------  -----------------  -----------------
       1        0.000007300147    -0.000025027028     0.000024065016
       2       -0.000320667550    -0.000324955360    -0.000680470037
       3       -0.000010943473     0.000012660918    -0.000005864866
       4        0.000428216697     0.000362628533     0.000738949092
       5       -0.000007795460     0.000004336837     0.000001142980
       6       -0.000014348275     0.000007538139    -0.000000203627
       7        0.000007406925    -0.000005745110    -0.000005828641
       8        0.000220892472     0.000255134544     0.000758516154
       9        0.000067492467    -0.000018203261     0.000037006884
      10       -0.000326544218    -0.000280026522    -0.000843924739
      11       -0.000012590787    -0.000023508764    -0.000010644069
      12        0.000001935782     0.000013811899     0.000013413603
      13       -0.000017914599    -0.000005985743    -0.000005092820
      14       -0.000023081469     0.000015348980    -0.000002725621
      15        0.000000641341     0.000011991937    -0.000018339308

  **** Optimization is complete! (in 20 steps) ****
    Final optimized geometry and variables:
    Molecular point group: c1

    Geometry (in Angstrom), charge = 0, multiplicity = 1:

    O           -0.696704437888    -1.016087752931     1.176108408917
    C           -0.545933614542    -0.067743884462     0.453576903455
    C           -1.612256645503     1.006825733356     0.362239570495
    N            0.591057951557     0.089627974765    -0.282027010632
    H           -2.038845223333     1.057486354213    -0.634055711466
    H           -2.390739882579     0.751853702589     1.065309024289
    H           -1.214632684530     1.985273315039     0.607883720615
    C            1.533090936162    -1.016159754037    -0.263408174595
    C            0.702004747286     1.015874971311    -1.389258044204
    H            2.454828993970    -0.697648519138    -0.732441947780
    H            1.151623230048    -1.878976990911    -0.802216908237
    H            1.733098427514    -1.314690842681     0.753599615091
    H            0.380514072880     0.573209187146    -2.330546067053
    H            0.117899631574     1.905610803014    -1.213631971295
    H            1.735392540573     1.320514675620    -1.496785067745

  Mulliken Charges: (a.u.)
   Center  Symbol    Alpha    Beta     Spin     Total
       1     O     4.30292  4.30292  0.00000 -0.60583
       2     C     2.62636  2.62636  0.00000  0.74729
       3     C     3.29797  3.29797  0.00000 -0.59594
       4     N     3.82173  3.82173  0.00000 -0.64346
       5     H     0.40763  0.40763  0.00000  0.18474
       6     H     0.39072  0.39072  0.00000  0.21857
       7     H     0.40649  0.40649  0.00000  0.18703
       8     C     3.13822  3.13822  0.00000 -0.27644
       9     C     3.14290  3.14290  0.00000 -0.28580
      10     H     0.41983  0.41983  0.00000  0.16035
      11     H     0.41491  0.41491  0.00000  0.17019
      12     H     0.39596  0.39596  0.00000  0.20808
      13     H     0.41719  0.41719  0.00000  0.16562
      14     H     0.40759  0.40759  0.00000  0.18483
      15     H     0.40960  0.40960  0.00000  0.18080

   Total alpha = 24.00000, Total beta = 24.00000, Total charge =  0.00000
