  ==> Input File <==

--------------------------------------------------------------------------
set {
	reference rhf
	basis 6-31G*
}

set_num_threads( 4 )
memory 2 gb

molecule MOL {
0 1

O	 -2.821601	 1.309235	 -0.001213
C	 -2.668563	 0.129746	 -0.000350
C	 -3.801572	 -0.864014	 -0.000442
O	 -1.481751	 -0.454642	 0.000584
H	 -4.417280	 -0.689587	 -0.874708
H	 -3.443784	 -1.883046	 -0.000565
H	 -4.417179	 -0.689832	 0.873954
C	 -0.334255	 0.388708	 0.000906
C	 0.891947	 -0.504646	 0.000751
H	 -0.365390	 1.025305	 -0.873475
H	 -0.365484	 1.024911	 0.875569
C	 2.191998	 0.301789	 0.000897
H	 0.855148	 -1.151283	 -0.871571
H	 0.855132	 -1.151660	 0.872805
C	 3.441114	 -0.581407	 0.000108
H	 2.215074	 0.954890	 -0.869742
H	 2.215465	 0.953923	 0.872248
C	 4.668783	 0.123472	 0.575296
H	 3.652691	 -0.903491	 -1.017031
H	 3.242370	 -1.485234	 0.571656
H	 4.913408	 1.014202	 0.003656
H	 5.537428	 -0.527290	 0.561151
H	 4.500140	 0.427777	 1.604358

	symmetry c1
}
set optking {
	frozen_dihedral = ("
		19 15 12 16
	")
}

ee = optimize('scf')
oeprop('DIPOLE', 'QUADRUPOLE', 'MULLIKEN_CHARGES')
f=open( 'psi4out.xyz', 'w' )
f.write( "23  " )
f.write( str(ee) + "\n" )
f.write( MOL.save_string_xyz() )
f.close()
--------------------------------------------------------------------------

    Molecular point group: c1
  Charge       = 0
  Multiplicity = 1
  Basis Set: 6-31G*
  Basis Set:
  @DF-RHF Final Energy:  -422.97748987892186
    Total Energy =                       -422.9774898789219151
    Molecular point group: c1
  Basis Set: 6-31G*
  Basis Set:
  Basis Set: 6-31G*
  Basis Set:
  @DF-RHF Final Energy:  -422.97768302134011
    Total Energy =                       -422.9776830213396579
  Basis Set: 6-31G*
  Basis Set:
  Basis Set: 6-31G*
  Basis Set:
  @DF-RHF Final Energy:  -422.97774959547445
    Total Energy =                       -422.9777495954742790
  Basis Set: 6-31G*
  Basis Set:
  Basis Set: 6-31G*
  Basis Set:
  @DF-RHF Final Energy:  -422.97774196506901
    Total Energy =                       -422.9777419650695265
  Basis Set: 6-31G*
  Basis Set:
  Basis Set: 6-31G*
  Basis Set:
  @DF-RHF Final Energy:  -422.97775453236625
    Total Energy =                       -422.9777545323660206
  Basis Set: 6-31G*
  Basis Set:
  Charge       = 0
  Multiplicity = 1
  Basis Set: 6-31G*
  Basis Set:

    Orbital Energies (a.u.)
    -----------------------

    Doubly Occupied:

       1A    -20.602956     2A    -20.540499     3A    -11.374046
       4A    -11.281335     5A    -11.232356     6A    -11.224359
       7A    -11.223771     8A    -11.221719     9A    -11.212794
      10A     -1.467912    11A     -1.360694    12A     -1.093671
      13A     -1.041876    14A     -1.003318    15A     -0.930618
      16A     -0.841407    17A     -0.802405    18A     -0.774318
      19A     -0.692054    20A     -0.685014    21A     -0.668192
      22A     -0.645623    23A     -0.607157    24A     -0.589021
      25A     -0.582174    26A     -0.569013    27A     -0.555949
      28A     -0.535946    29A     -0.524105    30A     -0.504189
      31A     -0.493053    32A     -0.476406    33A     -0.470464
      34A     -0.464864    35A     -0.451220    36A     -0.435138

  @DF-RHF Final Energy:  -422.97775472090700

   => Energetics <=

    Nuclear Repulsion Energy =            449.6620867639798007
    One-Electron Energy =               -1466.9204053180885694
    Two-Electron Energy =                 594.2805638332013132
    DFT Exchange-Correlation Energy =       0.0000000000000000
    Empirical Dispersion Energy =           0.0000000000000000
    PCM Polarization Energy =               0.0000000000000000
    EFP Energy =                            0.0000000000000000
    Total Energy =                       -422.9777547209074555
    Molecular point group: c1
  Basis Set: 6-31G*
  Basis Set:

  -Total Gradient:
     Atom            X                  Y                   Z
    ------   -----------------  -----------------  -----------------
       1        0.000001383227    -0.000001106568     0.000010258258
       2       -0.000000262562     0.000003834106    -0.000031672568
       3        0.000000626891    -0.000000816056     0.000019204494
       4        0.000009251071    -0.000002550852    -0.000011856529
       5        0.000002973055     0.000001493614    -0.000002620413
       6       -0.000000097250    -0.000000183289     0.000000493284
       7       -0.000002061316    -0.000001112908    -0.000002564447
       8       -0.000001812261     0.000002451000     0.000040779925
       9       -0.000002445634    -0.000019499439     0.000011054987
      10       -0.000006375579    -0.000002305204    -0.000006920488
      11        0.000006078239     0.000003298262    -0.000005479117
      12        0.002981969518     0.004022464202     0.002394100232
      13        0.000004679601     0.000000372519    -0.000001022716
      14       -0.000010977399    -0.000001388723     0.000000548628
      15       -0.003241895594    -0.004516913491     0.000208076553
      16       -0.001978263115    -0.002678171044    -0.002064732703
      17        0.000014878183    -0.000006432459    -0.000005126706
      18       -0.000004398398     0.000015787581     0.000016058558
      19        0.002237026008     0.003175567162    -0.000564663923
      20       -0.000011868710     0.000006392515    -0.000007616924
      21        0.000001528691    -0.000001813590    -0.000002044172
      22       -0.000005414123    -0.000003661636     0.000002333675
      23        0.000005477470     0.000004294297     0.000003412112

  **** Optimization is complete! (in 6 steps) ****
    Final optimized geometry and variables:
    Molecular point group: c1

    Geometry (in Angstrom), charge = 0, multiplicity = 1:

    O           -2.816155490481     1.321696937020    -0.108308005827
    C           -2.663351922005     0.142334289454    -0.088263703199
    C           -3.796509282849    -0.851266337948    -0.091155813030
    O           -1.476895025700    -0.442070923950    -0.060601766334
    H           -4.399237477789    -0.689034143524    -0.976736201039
    H           -3.439028058055    -1.870224869989    -0.071730217189
    H           -4.424876555819    -0.664833353048     0.771560548847
    C           -0.329205016800     0.401066826424    -0.054606294672
    C            0.896705194079    -0.491855870779    -0.022851296722
    H           -0.346899929470     1.025285531827    -0.938253040841
    H           -0.373693067276     1.049833416141     0.810331910698
    C            2.198463436000     0.314782270533    -0.003095480492
    H            0.877953729779    -1.145968825585    -0.890538937689
    H            0.842776282307    -1.131797098363     0.853364778760
    C            3.445852888381    -0.577668232925    -0.046990841131
    H            2.204771813299     0.976043918370    -0.867024143627
    H            2.221611772445     0.943516843952     0.883981345415
    C            4.699508786344     0.135091626444     0.463256903496
    H            3.625575897269    -0.887132251051    -1.073374309349
    H            3.280429586470    -1.478975104912     0.537145982285
    H            4.893761281734     1.040244806527    -0.105484636642
    H            5.574942437896    -0.501405228082     0.379945470233
    H            4.592919139306     0.417910513618     1.506572486869

  Mulliken Charges: (a.u.)
   Center  Symbol    Alpha    Beta     Spin     Total
       1     O     4.28393  4.28393  0.00000 -0.56786
       2     C     2.61532  2.61532  0.00000  0.76936
       3     C     3.28774  3.28774  0.00000 -0.57547
       4     O     4.31263  4.31263  0.00000 -0.62527
       5     H     0.39751  0.39751  0.00000  0.20497
       6     H     0.39986  0.39986  0.00000  0.20027
       7     H     0.39751  0.39751  0.00000  0.20498
       8     C     2.99580  2.99580  0.00000  0.00840
       9     C     3.16584  3.16584  0.00000 -0.33169
      10     H     0.41077  0.41077  0.00000  0.17845
      11     H     0.41077  0.41077  0.00000  0.17846
      12     C     3.16068  3.16068  0.00000 -0.32136
      13     H     0.41434  0.41434  0.00000  0.17132
      14     H     0.41425  0.41425  0.00000  0.17151
      15     C     3.15213  3.15213  0.00000 -0.30426
      16     H     0.41979  0.41979  0.00000  0.16043
      17     H     0.41974  0.41974  0.00000  0.16053
      18     C     3.24026  3.24026  0.00000 -0.48052
      19     H     0.42012  0.42012  0.00000  0.15975
      20     H     0.42042  0.42042  0.00000  0.15916
      21     H     0.42087  0.42087  0.00000  0.15825
      22     H     0.41862  0.41862  0.00000  0.16275
      23     H     0.42108  0.42108  0.00000  0.15785

   Total alpha = 36.00000, Total beta = 36.00000, Total charge =  0.00000
