                              Psi4 1.0.54 Driver

  ==> Input File <==

--------------------------------------------------------------------------
set {
	reference rhf
	basis cc-pvtz
}

set_num_threads( 4 )
memory 2 gb

molecule MOL {
0 1

O	 -2.374409	 1.338660	 -0.336961
C	 -2.104891	 0.204655	 -0.107126
C	 -0.881910	 -0.448129	 -0.720509
C	 -2.949910	 -0.638219	 0.818225
C	 -1.002747	 -1.977047	 -0.694987
H	 -0.021059	 -0.142046	 -0.139682
H	 -0.744538	 -0.105950	 -1.740758
C	 0.222248	 -2.665489	 -1.293269
H	 -1.149790	 -2.288967	 0.331323
H	 -1.888684	 -2.283939	 -1.245652
C	 0.131330	 -4.191517	 -1.346934
H	 1.104752	 -2.378431	 -0.726910
H	 0.374028	 -2.292617	 -2.302493
C	 0.108583	 -4.877043	 0.017036
H	 0.981671	 -4.563752	 -1.909666
H	 -0.752607	 -4.478573	 -1.910484
H	 0.978751	 -4.603115	 0.604709
H	 0.113370	 -5.954996	 -0.095951
H	 -0.772543	 -4.614477	 0.589710
H	 -3.440322	 -1.417144	 0.243099
H	 -3.694377	 -0.025850	 1.303346
H	 -2.331085	 -1.129829	 1.560495

	symmetry c1
}
set optking {
	frozen_dihedral = ("
		6 3 2 1
	")
}

ee,wfn = optimize('scf', return_wfn=True)
oeprop( wfn, 'DIPOLE', 'QUADRUPOLE', 'MULLIKEN_CHARGES')
f=open( 'psi4out.xyz', 'w' )
f.write( "22  " )
f.write( str(ee) + "\n" )
f.write( MOL.save_string_xyz() )
f.close()
--------------------------------------------------------------------------

    Molecular point group: c1
  Charge       = 0
  Multiplicity = 1
  Basis Set: CC-PVTZ
  Basis Set:
  @DF-RHF Final Energy:  -348.21714720292363
    Total Energy =                       -348.2171472029236838
    Molecular point group: c1
  Basis Set: CC-PVTZ
  Basis Set:
  Basis Set: CC-PVTZ
  Basis Set:
  @DF-RHF Final Energy:  -347.55049534746979
    Total Energy =                       -347.5504953474693366
  Basis Set: CC-PVTZ
  Basis Set:
  Basis Set: CC-PVTZ
  Basis Set:
  @DF-RHF Final Energy:  -347.76797149521116
    Total Energy =                       -347.7679714952113272
  Basis Set: CC-PVTZ
  Basis Set:
  Basis Set: CC-PVTZ
  Basis Set:
  @DF-RHF Final Energy:  -348.06714318424673
    Total Energy =                       -348.0671431842464472
  Basis Set: CC-PVTZ
  Basis Set:
  @DF-RHF Final Energy:  -348.19830293294626
    Total Energy =                       -348.1983029329461488
  @DF-RHF Final Energy:  -348.21991506661675
    Total Energy =                       -348.2199150666167498
  @DF-RHF Final Energy:  -348.22109768625330
    Total Energy =                       -348.2210976862534153
  @DF-RHF Final Energy:  -348.22127949633341
    Total Energy =                       -348.2212794963335227
  @DF-RHF Final Energy:  -348.22153812894118
    Total Energy =                       -348.2215381289408924
  @DF-RHF Final Energy:  -348.22156239758351
    Total Energy =                       -348.2215623975829430
  Basis Set: CC-PVTZ
  Basis Set:
  @DF-RHF Final Energy:  -348.22156681330000
    Total Energy =                       -348.2215668132998871
  Basis Set: CC-PVTZ
  Basis Set:
  Basis Set: CC-PVTZ
  Basis Set:
  @DF-RHF Final Energy:  -348.22156907219164
    Total Energy =                       -348.2215690721908459
  Basis Set: CC-PVTZ
  Basis Set:
  Basis Set: CC-PVTZ
  Basis Set:
  @DF-RHF Final Energy:  -348.22157059489416
    Total Energy =                       -348.2215705948941604
  Basis Set: CC-PVTZ
  Basis Set:
  Charge       = 0
  Multiplicity = 1
  Basis Set: CC-PVTZ
  Basis Set:

    Orbital Energies (a.u.)
    -----------------------

    Doubly Occupied:

       1A    -20.535200     2A    -11.320256     3A    -11.228982
       4A    -11.228250     5A    -11.226398     6A    -11.222593
       7A    -11.221362     8A    -11.213604     9A     -1.396246
      10A     -1.100079    11A     -1.046663    12A     -0.997753
      13A     -0.942388    14A     -0.864789    15A     -0.789952
      16A     -0.732765    17A     -0.661599    18A     -0.650962
      19A     -0.633035    20A     -0.620248    21A     -0.603053
      22A     -0.586452    23A     -0.557071    24A     -0.546147
      25A     -0.539494    26A     -0.513974    27A     -0.512446
      28A     -0.483020    29A     -0.475605    30A     -0.467578
      31A     -0.466516    32A     -0.398507

  @DF-RHF Final Energy:  -348.22157151390689

   => Energetics <=

    Nuclear Repulsion Energy =            373.2343506271701585
    One-Electron Energy =               -1211.3458737223677417
    Two-Electron Energy =                 489.8899515812909726
    DFT Exchange-Correlation Energy =       0.0000000000000000
    Empirical Dispersion Energy =           0.0000000000000000
    PCM Polarization Energy =               0.0000000000000000
    EFP Energy =                            0.0000000000000000
    Total Energy =                       -348.2215715139065537
    Molecular point group: c1
  Basis Set: CC-PVTZ
  Basis Set:

  -Total Gradient:
     Atom            X                  Y                   Z
    ------   -----------------  -----------------  -----------------
       1        0.001315573300     0.000991055180     0.000256580982
       2       -0.001957730394    -0.001287962818    -0.000643992584
       3        0.001146630103    -0.000268273600     0.001877136560
       4        0.000006608604     0.000009091614    -0.000016141830
       5       -0.000002602595     0.000000086361    -0.000002090878
       6       -0.000507821541     0.000563602342    -0.001485917565
       7        0.000000937789    -0.000001273320     0.000001039123
       8       -0.000003640588    -0.000002878845    -0.000001374511
       9        0.000000602921    -0.000001445222     0.000000104700
      10        0.000000051232    -0.000000096311     0.000001059125
      11        0.000003539225     0.000000957142    -0.000005286372
      12       -0.000000648971    -0.000000498688     0.000002291520
      13        0.000000122238     0.000001145662    -0.000001527459
      14       -0.000000196701    -0.000000244088     0.000007238800
      15       -0.000001495539     0.000000801096    -0.000000323312
      16        0.000000442169     0.000002331554     0.000002251245
      17       -0.000000321419     0.000000407509    -0.000001427782
      18       -0.000000048084    -0.000000459545    -0.000000371934
      19        0.000000223579     0.000000055747    -0.000001228124
      20       -0.000021458533    -0.000002463065    -0.000005327133
      21        0.000004319776     0.000015247651     0.000006197670
      22        0.000016913426    -0.000019186353     0.000011109758

  **** Optimization is complete! (in 14 steps) ****
    Final optimized geometry and variables:
    Molecular point group: c1

    Geometry (in Angstrom), charge = 0, multiplicity = 1:

    O           -1.581751137677     2.768503458840    -0.671342155753
    C           -1.056315752912     1.913013286253    -0.035885061024
    C           -0.158008064126     0.899684482177    -0.727366667833
    C           -1.216584350446     1.853247564486     1.465294474100
    C            0.046750629740    -0.449814444483    -0.043467969472
    H            0.798040593282     1.400392338684    -0.865237622260
    H           -0.564030968116     0.765523415131    -1.722242938207
    C            0.942082950144    -1.374591823790    -0.866923436279
    H            0.476490243364    -0.304652347296     0.940333894980
    H           -0.915999630926    -0.931837023833     0.106708809212
    C            1.122771687284    -2.776294075176    -0.282289540735
    H            1.917413796161    -0.910011757458    -0.992197809094
    H            0.521134127187    -1.467883584075    -1.863719265855
    C            1.880401687659    -2.823615214424     1.042389760436
    H            1.654982125202    -3.382049450070    -1.008779404369
    H            0.148330449618    -3.241052247161    -0.157795765955
    H            2.856349114507    -2.357938573183     0.949836430926
    H            2.033739691782    -3.848437897574     1.359897412182
    H            1.345274637596    -2.315810066763     1.835918021222
    H           -1.700034816108     0.928936313327     1.759251152971
    H           -1.809441730681     2.692732893825     1.793573460191
    H           -0.246445048629     1.877370755964     1.949529525569

  Mulliken Charges: (a.u.)
   Center  Symbol    Alpha    Beta     Spin     Total
       1     O     4.17457  4.17457  0.00000 -0.34913
       2     C     2.86032  2.86032  0.00000  0.27936
       3     C     3.09853  3.09853  0.00000 -0.19706
       4     C     3.16598  3.16598  0.00000 -0.33195
       5     C     3.10586  3.10586  0.00000 -0.21171
       6     H     0.44191  0.44191  0.00000  0.11618
       7     H     0.43673  0.43673  0.00000  0.12653
       8     C     3.09748  3.09748  0.00000 -0.19496
       9     H     0.44818  0.44818  0.00000  0.10363
      10     H     0.44885  0.44885  0.00000  0.10231
      11     C     3.09012  3.09012  0.00000 -0.18024
      12     H     0.45224  0.45224  0.00000  0.09552
      13     H     0.44572  0.44572  0.00000  0.10855
      14     C     3.15307  3.15307  0.00000 -0.30614
      15     H     0.44664  0.44664  0.00000  0.10673
      16     H     0.45362  0.45362  0.00000  0.09275
      17     H     0.45398  0.45398  0.00000  0.09205
      18     H     0.44466  0.44466  0.00000  0.11067
      19     H     0.45494  0.45494  0.00000  0.09012
      20     H     0.44721  0.44721  0.00000  0.10557
      21     H     0.43141  0.43141  0.00000  0.13718
      22     H     0.44798  0.44798  0.00000  0.10403

   Total alpha = 32.00000, Total beta = 32.00000, Total charge = -0.00000

*** Psi4 exiting successfully. Buy a developer a beer!
