  ==> Input File <==

--------------------------------------------------------------------------
set {
	reference rhf
	basis 6-31G*
}

set_num_threads( 1 )
memory 2 gb

molecule MOL {
0 1

H	 -3.261111	 -0.295142	 1.469456
C	 -3.306842	 -0.277400	 0.373456
C	 -2.660244	 0.921717	 -0.272021
O	 -3.838538	 -1.161155	 -0.216482
C	 -3.595575	 2.137710	 -0.324673
H	 -1.744645	 1.145995	 0.262850
H	 -2.391531	 0.632407	 -1.287279
C	 -3.927357	 2.712723	 1.054668
H	 -3.126975	 2.905937	 -0.932560
H	 -4.515376	 1.863962	 -0.839244
C	 -4.850785	 3.930676	 0.986218
H	 -3.002363	 2.986062	 1.558176
H	 -4.390729	 1.945837	 1.672495
C	 -5.167571	 4.512911	 2.366290
H	 -4.387704	 4.688823	 0.359720
H	 -5.780469	 3.650930	 0.492443
C	 -6.155759	 5.684839	 2.354497
H	 -4.241990	 4.828900	 2.844981
H	 -5.577340	 3.722483	 2.991610
C	 -5.635882	 6.947772	 1.665767
H	 -6.410336	 5.929135	 3.382825
H	 -7.082724	 5.369615	 1.879849
H	 -4.700051	 7.277153	 2.109611
H	 -5.462560	 6.791031	 0.606350
H	 -6.350021	 7.760091	 1.761356

	symmetry c1
}
set optking {
	frozen_dihedral = ("
		6 3 5 8,
		3 5 8 12,
		12 8 11 14,
		8 11 14 18,
		20 17 14 18
	")
}

ee = energy('scf')
oeprop('DIPOLE', 'QUADRUPOLE', 'MULLIKEN_CHARGES')
f=open( 'psi4out.xyz', 'w' )
f.write( "25  " )
f.write( str(ee) + "\n" )
f.write( MOL.save_string_xyz() )
f.close()
--------------------------------------------------------------------------

    Molecular point group: c1

    Geometry (in Angstrom), charge = 0, multiplicity = 1:

       Center              X                  Y                   Z               Mass
    ------------   -----------------  -----------------  -----------------  -----------------
           H          1.094098384427    -3.120310684024     0.583850291139     1.007825032070
           C          1.048367384427    -3.102568684024    -0.512149708861    12.000000000000
           C          1.694965384427    -1.903451684024    -1.157626708861    12.000000000000
           O          0.516671384427    -3.986323684024    -1.102087708861    15.994914619560
           C          0.759634384427    -0.687458684024    -1.210278708861    12.000000000000
           H          2.610564384427    -1.679173684024    -0.622755708861     1.007825032070
           H          1.963678384427    -2.192761684024    -2.172884708861     1.007825032070
           C          0.427852384427    -0.112445684024     0.169062291139    12.000000000000
           H          1.228234384427     0.080768315976    -1.818165708861     1.007825032070
           H         -0.160166615573    -0.961206684024    -1.724849708861     1.007825032070
           C         -0.495575615573     1.105507315976     0.100612291139    12.000000000000
           H          1.352846384427     0.160893315976     0.672570291139     1.007825032070
           H         -0.035519615573    -0.879331684024     0.786889291139     1.007825032070
           C         -0.812361615573     1.687742315976     1.480684291139    12.000000000000
           H         -0.032494615573     1.863654315976    -0.525885708861     1.007825032070
           H         -1.425259615573     0.825761315976    -0.393162708861     1.007825032070
           C         -1.800549615573     2.859670315976     1.468891291139    12.000000000000
           H          0.113219384427     2.003731315976     1.959375291139     1.007825032070
           H         -1.222130615573     0.897314315976     2.106004291139     1.007825032070
           C         -1.280672615573     4.122603315976     0.780161291139    12.000000000000
           H         -2.055126615573     3.103966315976     2.497219291139     1.007825032070
           H         -2.727514615573     2.544446315976     0.994243291139     1.007825032070
           H         -0.344841615573     4.451984315976     1.224005291139     1.007825032070
           H         -1.107350615573     3.965862315976    -0.279255708861     1.007825032070
           H         -1.994811615573     4.934922315976     0.875750291139     1.007825032070

  Charge       = 0
  Multiplicity = 1
  Basis Set: 6-31G*
  Basis Set:

    Orbital Energies (a.u.)
    -----------------------

    Doubly Occupied:

       1A    -20.562382     2A    -11.325407     3A    -11.235092
       4A    -11.233803     5A    -11.226772     6A    -11.221157
       7A    -11.219291     8A    -11.218691     9A    -11.211585
      10A     -1.402102    11A     -1.104820    12A     -1.069983
      13A     -1.013720    14A     -0.943491    15A     -0.877834
      16A     -0.827656    17A     -0.783559    18A     -0.774576
      19A     -0.681504    20A     -0.657564    21A     -0.632754
      22A     -0.621061    23A     -0.597874    24A     -0.592126
      25A     -0.579051    26A     -0.553980    27A     -0.540395
      28A     -0.520262    29A     -0.511054    30A     -0.498428
      31A     -0.490171    32A     -0.481137    33A     -0.466285
      34A     -0.460597    35A     -0.441725    36A     -0.407199

  @DF-RHF Final Energy:  -387.11992157026907

   => Energetics <=

    Nuclear Repulsion Energy =            438.5766200618323865
    One-Electron Energy =               -1393.4229367709372127
    Two-Electron Energy =                 567.7263951388359828
    DFT Exchange-Correlation Energy =       0.0000000000000000
    Empirical Dispersion Energy =           0.0000000000000000
    PCM Polarization Energy =               0.0000000000000000
    EFP Energy =                            0.0000000000000000
    Total Energy =                       -387.1199215702688434

  Mulliken Charges: (a.u.)
   Center  Symbol    Alpha    Beta     Spin     Total
       1     H     0.43119  0.43119  0.00000  0.13762
       2     C     2.83553  2.83553  0.00000  0.32894
       3     C     3.20536  3.20536  0.00000 -0.41071
       4     O     4.23682  4.23682  0.00000 -0.47365
       5     C     3.16245  3.16245  0.00000 -0.32489
       6     H     0.41339  0.41339  0.00000  0.17322
       7     H     0.39989  0.39989  0.00000  0.20022
       8     C     3.15730  3.15730  0.00000 -0.31461
       9     H     0.41331  0.41331  0.00000  0.17337
      10     H     0.40969  0.40969  0.00000  0.18062
      11     C     3.15420  3.15420  0.00000 -0.30839
      12     H     0.42162  0.42162  0.00000  0.15676
      13     H     0.42145  0.42145  0.00000  0.15709
      14     C     3.15309  3.15309  0.00000 -0.30619
      15     H     0.42033  0.42033  0.00000  0.15935
      16     H     0.42132  0.42132  0.00000  0.15737
      17     C     3.15281  3.15281  0.00000 -0.30561
      18     H     0.42401  0.42401  0.00000  0.15198
      19     H     0.42149  0.42149  0.00000  0.15702
      20     C     3.24145  3.24145  0.00000 -0.48290
      21     H     0.42016  0.42016  0.00000  0.15968
      22     H     0.42236  0.42236  0.00000  0.15528
      23     H     0.42226  0.42226  0.00000  0.15548
      24     H     0.42018  0.42018  0.00000  0.15963
      25     H     0.41834  0.41834  0.00000  0.16333

   Total alpha = 36.00000, Total beta = 36.00000, Total charge = -0.00000
