  ==> Input File <==

--------------------------------------------------------------------------
set {
	reference rhf
	basis 6-31G*
}

set_num_threads( 4 )
memory 2 gb

molecule MOL {
0 1

H	 -0.095197	 -3.703586	 -0.510876
O	 0.246836	 -2.838830	 -0.305946
C	 -0.770630	 -1.978427	 -0.315930
C	 -0.318135	 -0.576402	 0.000164
O	 -1.884210	 -2.318704	 -0.550767
C	 -1.454360	 0.441875	 -0.000474
H	 0.183311	 -0.607106	 0.963809
H	 0.448360	 -0.312303	 -0.723535
C	 -2.826123	 -0.230780	 0.000056
H	 -1.357605	 1.085198	 -0.868380
H	 -1.357504	 1.086451	 0.866496
H	 -2.959731	 -0.858053	 -0.876869
H	 -3.619374	 0.509403	 -0.000080
H	 -2.959371	 -0.857318	 0.877556

	symmetry c1
}
set optking {
	frozen_dihedral = ("
		7 4 6 10
	")
}

ee = optimize('scf')
oeprop('DIPOLE', 'QUADRUPOLE', 'MULLIKEN_CHARGES')
f=open( 'psi4out.xyz', 'w' )
f.write( "14  " )
f.write( str(ee) + "\n" )
f.write( MOL.save_string_xyz() )
f.close()
--------------------------------------------------------------------------

    Molecular point group: c1
  Charge       = 0
  Multiplicity = 1
  Basis Set: 6-31G*
  Basis Set:
  @DF-RHF Final Energy:  -305.84511609827399
    Total Energy =                       -305.8451160982739907
    Molecular point group: c1
  Basis Set: 6-31G*
  Basis Set:
  Basis Set: 6-31G*
  Basis Set:
  @DF-RHF Final Energy:  -305.86395831161894
    Total Energy =                       -305.8639583116188305
  Basis Set: 6-31G*
  Basis Set:
  Basis Set: 6-31G*
  Basis Set:
  @DF-RHF Final Energy:  -305.86792905768954
    Total Energy =                       -305.8679290576898211
  Basis Set: 6-31G*
  Basis Set:
  Basis Set: 6-31G*
  Basis Set:
  @DF-RHF Final Energy:  -305.86690778594425
    Total Energy =                       -305.8669077859443064
  Basis Set: 6-31G*
  Basis Set:
  @DF-RHF Final Energy:  -305.86999870401974
    Total Energy =                       -305.8699987040197925
  @DF-RHF Final Energy:  -305.87036630856301
    Total Energy =                       -305.8703663085627795
  @DF-RHF Final Energy:  -305.87051271846656
    Total Energy =                       -305.8705127184668981
  @DF-RHF Final Energy:  -305.87064715055169
    Total Energy =                       -305.8706471505518039
  @DF-RHF Final Energy:  -305.87102266805152
    Total Energy =                       -305.8710226680515802
  @DF-RHF Final Energy:  -305.87132391524045
    Total Energy =                       -305.8713239152402821
  @DF-RHF Final Energy:  -305.87150237943467
    Total Energy =                       -305.8715023794349008
  @DF-RHF Final Energy:  -305.87158627972747
    Total Energy =                       -305.8715862797274099
  @DF-RHF Final Energy:  -305.87162105686292
    Total Energy =                       -305.8716210568629208
  @DF-RHF Final Energy:  -305.87164466717797
    Total Energy =                       -305.8716446671779181
  @DF-RHF Final Energy:  -305.87169113872085
    Total Energy =                       -305.8716911387205073
  @DF-RHF Final Energy:  -305.87175289550521
    Total Energy =                       -305.8717528955052671
  @DF-RHF Final Energy:  -305.87177223945923
    Total Energy =                       -305.8717722394593466
  @DF-RHF Final Energy:  -305.87177707061073
    Total Energy =                       -305.8717770706108467
  @DF-RHF Final Energy:  -305.87178377396606
    Total Energy =                       -305.8717837739661718
  @DF-RHF Final Energy:  -305.87178840726517
    Total Energy =                       -305.8717884072653419
  @DF-RHF Final Energy:  -305.87178637230278
    Total Energy =                       -305.8717863723030632
  @DF-RHF Final Energy:  -305.87178299175372
    Total Energy =                       -305.8717829917537188
  @DF-RHF Final Energy:  -305.87176654187169
    Total Energy =                       -305.8717665418718070
  @DF-RHF Final Energy:  -305.87176247808361
    Total Energy =                       -305.8717624780834399
  @DF-RHF Final Energy:  -305.87178383040111
    Total Energy =                       -305.8717838304012275
  @DF-RHF Final Energy:  -305.87176409344625
    Total Energy =                       -305.8717640934464157
  @DF-RHF Final Energy:  -305.87178313344810
    Total Energy =                       -305.8717831334480479
  @DF-RHF Final Energy:  -305.87178560643338
    Total Energy =                       -305.8717856064332068
  @DF-RHF Final Energy:  -305.87178510965038
    Total Energy =                       -305.8717851096502045
  @DF-RHF Final Energy:  -305.87143564209407
    Total Energy =                       -305.8714356420942977
  @DF-RHF Final Energy:  -305.87178576257401
    Total Energy =                       -305.8717857625738361
  @DF-RHF Final Energy:  -305.87178518469238
    Total Energy =                       -305.8717851846924418
  @DF-RHF Final Energy:  -305.87177353133040
    Total Energy =                       -305.8717735313302910
  @DF-RHF Final Energy:  -305.87178615734706
    Total Energy =                       -305.8717861573471168
  @DF-RHF Final Energy:  -305.87178620208545
    Total Energy =                       -305.8717862020853318
  @DF-RHF Final Energy:  -305.87178616770115
    Total Energy =                       -305.8717861677009751
  Basis Set: 6-31G*
  Basis Set:
  @DF-RHF Final Energy:  -305.87178596715717
    Total Energy =                       -305.8717859671571659
  Basis Set: 6-31G*
  Basis Set:
  Basis Set: 6-31G*
  Basis Set:
  @DF-RHF Final Energy:  -305.87178579253919
    Total Energy =                       -305.8717857925391854
  Basis Set: 6-31G*
  Basis Set:
  Basis Set: 6-31G*
  Basis Set:
  @DF-RHF Final Energy:  -305.87178598060325
    Total Energy =                       -305.8717859806031356
  Basis Set: 6-31G*
  Basis Set:
  Charge       = 0
  Multiplicity = 1
  Basis Set: 6-31G*
  Basis Set:

    Orbital Energies (a.u.)
    -----------------------

    Doubly Occupied:

       1A    -20.615147     2A    -20.548481     3A    -11.381750
       4A    -11.239871     5A    -11.234081     6A    -11.213757
       7A     -1.475458     8A     -1.364766     9A     -1.078752
      10A     -0.976938    11A     -0.864643    12A     -0.792950
      13A     -0.702278    14A     -0.681473    15A     -0.653303
      16A     -0.625386    17A     -0.589723    18A     -0.569662
      19A     -0.555665    20A     -0.507399    21A     -0.492208
      22A     -0.479741    23A     -0.472158    24A     -0.439252

  @DF-RHF Final Energy:  -305.87178627553379

   => Energetics <=

    Nuclear Repulsion Energy =            245.8694486091659996
    One-Electron Energy =                -904.3727836485295484
    Two-Electron Energy =                 352.6315487638296986
    DFT Exchange-Correlation Energy =       0.0000000000000000
    Empirical Dispersion Energy =           0.0000000000000000
    PCM Polarization Energy =               0.0000000000000000
    EFP Energy =                            0.0000000000000000
    Total Energy =                       -305.8717862755337933
    Molecular point group: c1
  Basis Set: 6-31G*
  Basis Set:

  -Total Gradient:
     Atom            X                  Y                   Z
    ------   -----------------  -----------------  -----------------
       1        0.000000188917    -0.000033197113     0.000034850649
       2       -0.000068905200     0.000134403161    -0.000082967184
       3        0.000819247367     0.000175436538    -0.000287352949
       4       -0.003479679919    -0.004490199444     0.003384593650
       5       -0.000545513767    -0.000158185487    -0.000004193415
       6       -0.002313885117    -0.003229892330    -0.003882166322
       7        0.003018549310     0.003956449123    -0.001704216980
       8       -0.000052783745     0.000155588473     0.000111231269
       9       -0.000054340631    -0.000021231718    -0.000126445578
      10        0.002712909903     0.003432910209     0.002608243235
      11        0.000041165183     0.000087391936    -0.000109362510
      12       -0.000042905550     0.000009489854     0.000049602200
      13       -0.000022789643     0.000003218050     0.000026462059
      14       -0.000011257109    -0.000022181243    -0.000018278122

    Molecular point group: c1

    Geometry (in Angstrom), charge = 0, multiplicity = 1:

    H            0.628729604558    -2.434671401309     0.293627709402
    O            0.851610353957    -1.575957688343     0.640774874484
    C            0.499954722939    -0.663582757560    -0.261254296834
    C            0.823193590433     0.744433178733     0.168035291253
    O           -0.005832161306    -0.961219838267    -1.295656648906
    C           -0.397609616667     1.697788397779     0.271896086535
    H            1.387211981237     0.735814060226     1.090584170502
    H            1.497719981921     1.127480476134    -0.591145772354
    C           -1.763303159194     1.035469676147     0.454555388457
    H           -0.409444965826     2.361576834444    -0.584880808378
    H           -0.214363363297     2.345856587018     1.123567635522
    H           -2.047970138544     0.456737151869    -0.414551638118
    H           -2.523049017339     1.792500285932     0.619097051114
    H           -1.766829834043     0.374446788894     1.317360118147

  Mulliken Charges: (a.u.)
   Center  Symbol    Alpha    Beta     Spin     Total
       1     H     0.26833  0.26833  0.00000  0.46334
       2     O     4.34649  4.34649  0.00000 -0.69298
       3     C     2.62808  2.62808  0.00000  0.74383
       4     C     3.21150  3.21150  0.00000 -0.42299
       5     O     4.28063  4.28063  0.00000 -0.56126
       6     C     3.15133  3.15133  0.00000 -0.30265
       7     H     0.39775  0.39775  0.00000  0.20450
       8     H     0.39672  0.39672  0.00000  0.20656
       9     C     3.25559  3.25559  0.00000 -0.51118
      10     H     0.41115  0.41115  0.00000  0.17770
      11     H     0.41532  0.41532  0.00000  0.16937
      12     H     0.40136  0.40136  0.00000  0.19729
      13     H     0.41611  0.41611  0.00000  0.16778
      14     H     0.41965  0.41965  0.00000  0.16070

   Total alpha = 24.00000, Total beta = 24.00000, Total charge = -0.00000
