  ==> Input File <==

--------------------------------------------------------------------------
set {
	reference rhf
	basis 6-31G*
}

set_num_threads( 1 )
memory 2 gb

molecule MOL {
0 1

H	 -2.798360	 -0.862255	 -0.071053
N	 -1.863561	 -0.715187	 0.256814
C	 -1.344686	 0.554728	 -0.219830
H	 -1.300452	 -1.461917	 -0.101532
C	 -0.544924	 1.229950	 0.874515
H	 -0.711516	 0.466244	 -1.103724
H	 -2.181435	 1.195192	 -0.481438
O	 0.574316	 0.437913	 1.152122
H	 -0.230592	 2.222767	 0.553347
H	 -1.161088	 1.337568	 1.764457
C	 1.358151	 0.900416	 2.205338
H	 2.185871	 0.214505	 2.324101
H	 1.752177	 1.894500	 2.001564
H	 0.793775	 0.936776	 3.134836

	symmetry c1
}
set optking {
	frozen_dihedral = ("
		8 5 3 6,
		5 8 11 13,
		11 8 5 3
	")
}

ee = energy('scf')
oeprop('DIPOLE', 'QUADRUPOLE', 'MULLIKEN_CHARGES')
f=open( 'psi4out.xyz', 'w' )
f.write( "14  " )
f.write( str(ee) + "\n" )
f.write( MOL.save_string_xyz() )
f.close()
--------------------------------------------------------------------------

    Molecular point group: c1

    Geometry (in Angstrom), charge = 0, multiplicity = 1:

       Center              X                  Y                   Z               Mass
    ------------   -----------------  -----------------  -----------------  -----------------
           H         -2.439125698265    -1.331168326682    -0.929308426404     1.007825032070
           N         -1.504326698265    -1.184100326682    -0.601441426404    14.003074004780
           C         -0.985451698265     0.085814673318    -1.078085426404    12.000000000000
           H         -0.941217698265    -1.930830326682    -0.959787426404     1.007825032070
           C         -0.185689698265     0.761036673318     0.016259573596    12.000000000000
           H         -0.352281698265    -0.002669326682    -1.961979426404     1.007825032070
           H         -1.822200698265     0.726278673318    -1.339693426404     1.007825032070
           O          0.933550301735    -0.031000326682     0.293866573596    15.994914619560
           H          0.128642301735     1.753853673318    -0.304908426404     1.007825032070
           H         -0.801853698265     0.868654673318     0.906201573596     1.007825032070
           C          1.717385301735     0.431502673318     1.347082573596    12.000000000000
           H          2.545105301735    -0.254408326682     1.465845573596     1.007825032070
           H          2.111411301735     1.425586673318     1.143308573596     1.007825032070
           H          1.153009301735     0.467862673318     2.276580573596     1.007825032070

  Charge       = 0
  Multiplicity = 1
  Basis Set: 6-31G*
  Basis Set:

    Orbital Energies (a.u.)
    -----------------------

    Doubly Occupied:

       1A    -20.548406     2A    -15.530629     3A    -11.259850
       4A    -11.258353     5A    -11.241843     6A     -1.372330
       7A     -1.175239     8A     -0.995767     9A     -0.901901
      10A     -0.811356    11A     -0.681167    12A     -0.670680
      13A     -0.634566    14A     -0.622450    15A     -0.599767
      16A     -0.529833    17A     -0.520087    18A     -0.501913
      19A     -0.467426    20A     -0.409785    21A     -0.381199

  @DF-RHF Final Energy:  -248.12056822847441

   => Energetics <=

    Nuclear Repulsion Energy =            194.1401124291451481
    One-Electron Energy =                -722.2921719194482648
    Two-Electron Energy =                 280.0314912618284211
    DFT Exchange-Correlation Energy =       0.0000000000000000
    Empirical Dispersion Energy =           0.0000000000000000
    PCM Polarization Energy =               0.0000000000000000
    EFP Energy =                            0.0000000000000000
    Total Energy =                       -248.1205682284747240

  Mulliken Charges: (a.u.)
   Center  Symbol    Alpha    Beta     Spin     Total
       1     H     0.33266  0.33266  0.00000  0.33467
       2     N     3.91711  3.91711  0.00000 -0.83422
       3     C     3.08087  3.08087  0.00000 -0.16174
       4     H     0.32782  0.32782  0.00000  0.34435
       5     C     2.97515  2.97515  0.00000  0.04970
       6     H     0.42091  0.42091  0.00000  0.15817
       7     H     0.42342  0.42342  0.00000  0.15317
       8     O     4.30662  4.30662  0.00000 -0.61325
       9     H     0.43647  0.43647  0.00000  0.12707
      10     H     0.42732  0.42732  0.00000  0.14535
      11     C     3.07734  3.07734  0.00000 -0.15469
      12     H     0.41360  0.41360  0.00000  0.17280
      13     H     0.43225  0.43225  0.00000  0.13550
      14     H     0.42844  0.42844  0.00000  0.14311

   Total alpha = 21.00000, Total beta = 21.00000, Total charge =  0.00000
