  ==> Input File <==

--------------------------------------------------------------------------
set {
	reference rhf
	basis 6-31G*
}

set_num_threads( 1 )
memory 2 gb

molecule MOL {
0 1

O	 3.392538	 1.157702	 0.104554
C	 2.790186	 0.157771	 0.328988
C	 1.322897	 0.072507	 0.673344
O	 3.347903	 -1.046386	 0.304773
C	 0.633142	 1.434701	 0.701307
H	 0.865984	 -0.600175	 -0.044933
H	 1.245573	 -0.424962	 1.636797
C	 -0.830591	 1.376167	 1.151369
H	 0.697525	 1.889537	 -0.282613
H	 1.184309	 2.087633	 1.369377
C	 -1.770927	 0.637647	 0.194568
H	 -1.187413	 2.396580	 1.270364
H	 -0.888420	 0.919705	 2.138439
C	 -3.235600	 0.701777	 0.632310
H	 -1.674651	 1.065005	 -0.802385
H	 -1.475302	 -0.405596	 0.109594
C	 -4.183830	 -0.037312	 -0.313597
H	 -3.543504	 1.743346	 0.706910
H	 -3.330818	 0.284364	 1.633509
C	 -5.644979	 0.034786	 0.128608
H	 -4.089223	 0.377878	 -1.314751
H	 -3.880289	 -1.079613	 -0.386068
H	 -6.291967	 -0.498012	 -0.561420
H	 -5.989514	 1.063926	 0.177212
H	 -5.778751	 -0.404256	 1.113301
C	 4.728119	 -1.109107	 -0.004993
H	 4.882018	 -1.033965	 -1.071845
H	 5.068212	 -2.067527	 0.355250
H	 5.265056	 -0.311663	 0.488280

	symmetry c1
}
set optking {
	frozen_dihedral = ("
		21 17 14 11,
		17 14 11 15,
		15 11 8 5,
		6 3 5 9,
		11 8 5 9,
		1 2 4 26,
		6 3 2 1
	")
}

ee = energy('scf')
oeprop('DIPOLE', 'QUADRUPOLE', 'MULLIKEN_CHARGES')
f=open( 'psi4out.xyz', 'w' )
f.write( "29  " )
f.write( str(ee) + "\n" )
f.write( MOL.save_string_xyz() )
f.close()
--------------------------------------------------------------------------

    Molecular point group: c1

    Geometry (in Angstrom), charge = 0, multiplicity = 1:

       Center              X                  Y                   Z               Mass
    ------------   -----------------  -----------------  -----------------  -----------------
           O          3.301192357846     0.866492973492    -0.243488221824    15.994914619560
           C          2.698840357846    -0.133438026508    -0.019054221824    12.000000000000
           C          1.231551357846    -0.218702026508     0.325301778176    12.000000000000
           O          3.256557357846    -1.337595026508    -0.043269221824    15.994914619560
           C          0.541796357846     1.143491973492     0.353264778176    12.000000000000
           H          0.774638357846    -0.891384026508    -0.392975221824     1.007825032070
           H          1.154227357846    -0.716171026508     1.288754778176     1.007825032070
           C         -0.921936642154     1.084957973492     0.803326778176    12.000000000000
           H          0.606179357846     1.598327973492    -0.630655221824     1.007825032070
           H          1.092963357846     1.796423973492     1.021334778176     1.007825032070
           C         -1.862272642154     0.346437973492    -0.153474221824    12.000000000000
           H         -1.278758642154     2.105370973492     0.922321778176     1.007825032070
           H         -0.979765642154     0.628495973492     1.790396778176     1.007825032070
           C         -3.326945642154     0.410567973492     0.284267778176    12.000000000000
           H         -1.765996642154     0.773795973492    -1.150427221824     1.007825032070
           H         -1.566647642154    -0.696805026508    -0.238448221824     1.007825032070
           C         -4.275175642154    -0.328521026508    -0.661639221824    12.000000000000
           H         -3.634849642154     1.452136973492     0.358867778176     1.007825032070
           H         -3.422163642154    -0.006845026508     1.285466778176     1.007825032070
           C         -5.736324642154    -0.256423026508    -0.219434221824    12.000000000000
           H         -4.180568642154     0.086668973492    -1.662793221824     1.007825032070
           H         -3.971634642154    -1.370822026508    -0.734110221824     1.007825032070
           H         -6.383312642154    -0.789221026508    -0.909462221824     1.007825032070
           H         -6.080859642154     0.772716973492    -0.170830221824     1.007825032070
           H         -5.870096642154    -0.695465026508     0.765258778176     1.007825032070
           C          4.636773357846    -1.400316026508    -0.353035221824    12.000000000000
           H          4.790672357846    -1.325174026508    -1.419887221824     1.007825032070
           H          4.976866357846    -2.358736026508     0.007207778176     1.007825032070
           H          5.173710357846    -0.602872026508     0.140237778176     1.007825032070

  Charge       = 0
  Multiplicity = 1
  Basis Set: 6-31G*
  Basis Set:

    Orbital Energies (a.u.)
    -----------------------

    Doubly Occupied:

       1A    -20.603360     2A    -20.544965     3A    -11.372275
       4A    -11.279562     5A    -11.234845     6A    -11.219133
       7A    -11.217665     8A    -11.216017     9A    -11.215861
      10A    -11.214470    11A    -11.209072    12A     -1.469149
      13A     -1.362544    14A     -1.098114    15A     -1.066852
      16A     -1.019508    17A     -0.977081    18A     -0.928479
      19A     -0.861582    20A     -0.799255    21A     -0.790491
      22A     -0.763704    23A     -0.701450    24A     -0.681958
      25A     -0.672293    26A     -0.650972    27A     -0.628954
      28A     -0.604588    29A     -0.594447    30A     -0.580530
      31A     -0.567683    32A     -0.549286    33A     -0.533054
      34A     -0.528811    35A     -0.515225    36A     -0.512264
      37A     -0.496490    38A     -0.477842    39A     -0.470224
      40A     -0.462373    41A     -0.458727    42A     -0.455706
      43A     -0.440813    44A     -0.435627

  @DF-RHF Final Energy:  -501.04346392882655

   => Energetics <=

    Nuclear Repulsion Energy =            610.2196835530804719
    One-Electron Energy =               -1891.5596748048383233
    Two-Electron Energy =                 780.2965273229312970
    DFT Exchange-Correlation Energy =       0.0000000000000000
    Empirical Dispersion Energy =           0.0000000000000000
    PCM Polarization Energy =               0.0000000000000000
    EFP Energy =                            0.0000000000000000
    Total Energy =                       -501.0434639288266681

  Mulliken Charges: (a.u.)
   Center  Symbol    Alpha    Beta     Spin     Total
       1     O     4.28612  4.28612  0.00000 -0.57224
       2     C     2.60482  2.60482  0.00000  0.79036
       3     C     3.20989  3.20989  0.00000 -0.41979
       4     O     4.30738  4.30738  0.00000 -0.61476
       5     C     3.15379  3.15379  0.00000 -0.30759
       6     H     0.39867  0.39867  0.00000  0.20266
       7     H     0.40126  0.40126  0.00000  0.19749
       8     C     3.15663  3.15663  0.00000 -0.31326
       9     H     0.41305  0.41305  0.00000  0.17390
      10     H     0.40876  0.40876  0.00000  0.18249
      11     C     3.15508  3.15508  0.00000 -0.31017
      12     H     0.41822  0.41822  0.00000  0.16355
      13     H     0.42386  0.42386  0.00000  0.15228
      14     C     3.15029  3.15029  0.00000 -0.30059
      15     H     0.42260  0.42260  0.00000  0.15481
      16     H     0.42361  0.42361  0.00000  0.15279
      17     C     3.15146  3.15146  0.00000 -0.30292
      18     H     0.42332  0.42332  0.00000  0.15336
      19     H     0.42397  0.42397  0.00000  0.15205
      20     C     3.23935  3.23935  0.00000 -0.47871
      21     H     0.42280  0.42280  0.00000  0.15441
      22     H     0.42342  0.42342  0.00000  0.15315
      23     H     0.41922  0.41922  0.00000  0.16155
      24     H     0.42154  0.42154  0.00000  0.15691
      25     H     0.42183  0.42183  0.00000  0.15634
      26     C     3.09439  3.09439  0.00000 -0.18878
      27     H     0.41242  0.41242  0.00000  0.17516
      28     H     0.40940  0.40940  0.00000  0.18121
      29     H     0.40284  0.40284  0.00000  0.19431

   Total alpha = 44.00000, Total beta = 44.00000, Total charge =  0.00000
