  ==> Input File <==

--------------------------------------------------------------------------
set {
	reference rhf
	basis 6-31G*
}

set_num_threads( 4 )
memory 2 gb

molecule MOL {
0 1

O	 2.857084	 1.365754	 -0.187455
C	 2.835468	 0.177537	 -0.289597
C	 1.538612	 -0.611825	 -0.286749
C	 4.112311	 -0.625692	 -0.429778
C	 0.287110	 0.248933	 -0.141588
H	 1.500894	 -1.193968	 -1.206573
H	 1.596687	 -1.345309	 0.516389
C	 -0.998232	 -0.580318	 -0.143170
H	 0.259158	 0.974888	 -0.948023
H	 0.354889	 0.823225	 0.776967
C	 -2.259874	 0.272531	 0.000494
H	 -1.058085	 -1.156315	 -1.065499
H	 -0.962850	 -1.307323	 0.666941
C	 -3.549786	 -0.549746	 -0.000374
H	 -2.296649	 0.999184	 -0.809223
H	 -2.201538	 0.848121	 0.922605
C	 -4.809590	 0.315458	 -0.000369
H	 -3.560515	 -1.202009	 -0.871156
H	 -3.561123	 -1.202955	 0.869711
H	 -4.844746	 0.956611	 -0.876632
H	 -5.706986	 -0.295590	 -0.001609
H	 -4.845960	 0.954827	 0.877144
H	 4.104051	 -1.191919	 -1.356567
H	 4.964575	 0.039439	 -0.420730
H	 4.201452	 -1.340105	 0.383427

	symmetry c1
}
set optking {
	frozen_dihedral = ("
		15 11 14 18
	")
}

ee = optimize('scf')
oeprop('DIPOLE', 'QUADRUPOLE', 'MULLIKEN_CHARGES')
f=open( 'psi4out.xyz', 'w' )
f.write( "25  " )
f.write( str(ee) + "\n" )
f.write( MOL.save_string_xyz() )
f.close()
--------------------------------------------------------------------------

    Molecular point group: c1
  Charge       = 0
  Multiplicity = 1
  Basis Set: 6-31G*
  Basis Set:
  @DF-RHF Final Energy:  -387.13640579534797
    Total Energy =                       -387.1364057953476276
    Molecular point group: c1
  Basis Set: 6-31G*
  Basis Set:
  Basis Set: 6-31G*
  Basis Set:
  @DF-RHF Final Energy:  -387.13641243892431
    Total Energy =                       -387.1364124389242534
  Basis Set: 6-31G*
  Basis Set:
  Basis Set: 6-31G*
  Basis Set:
  @DF-RHF Final Energy:  -387.13642649693293
    Total Energy =                       -387.1364264969332680
  Basis Set: 6-31G*
  Basis Set:
  Basis Set: 6-31G*
  Basis Set:
  @DF-RHF Final Energy:  -387.13641902897751
    Total Energy =                       -387.1364190289771159
  Basis Set: 6-31G*
  Basis Set:
  Basis Set: 6-31G*
  Basis Set:
  @DF-RHF Final Energy:  -387.13642872910094
    Total Energy =                       -387.1364287291014534
  Basis Set: 6-31G*
  Basis Set:
  Charge       = 0
  Multiplicity = 1
  Basis Set: 6-31G*
  Basis Set:

    Orbital Energies (a.u.)
    -----------------------

    Doubly Occupied:

       1A    -20.550494     2A    -11.326333     3A    -11.231924
       4A    -11.228368     5A    -11.217183     6A    -11.216578
       7A    -11.215352     8A    -11.213492     9A    -11.208418
      10A     -1.395799    11A     -1.093631    12A     -1.056316
      13A     -1.014550    14A     -0.969315    15A     -0.890797
      16A     -0.814213    17A     -0.790959    18A     -0.729947
      19A     -0.661375    20A     -0.651990    21A     -0.631563
      22A     -0.624142    23A     -0.595941    24A     -0.584426
      25A     -0.566510    26A     -0.559851    27A     -0.540320
      28A     -0.526305    29A     -0.512666    30A     -0.489988
      31A     -0.487827    32A     -0.473146    33A     -0.464074
      34A     -0.461725    35A     -0.450925    36A     -0.399468

  @DF-RHF Final Energy:  -387.13642889443224

   => Energetics <=

    Nuclear Repulsion Energy =            438.3232071739572575
    One-Electron Energy =               -1393.2274493670529409
    Two-Electron Energy =                 567.7678132986635546
    DFT Exchange-Correlation Energy =       0.0000000000000000
    Empirical Dispersion Energy =           0.0000000000000000
    PCM Polarization Energy =               0.0000000000000000
    EFP Energy =                            0.0000000000000000
    Total Energy =                       -387.1364288944321288
    Molecular point group: c1
  Basis Set: 6-31G*
  Basis Set:

  -Total Gradient:
     Atom            X                  Y                   Z
    ------   -----------------  -----------------  -----------------
       1        0.000000334471    -0.000000035582     0.000007565233
       2       -0.000000859115     0.000000597662    -0.000024604620
       3        0.000001338373     0.000001177309    -0.000003314370
       4        0.000000719344    -0.000000354339     0.000004984610
       5        0.000001078808    -0.000002308963     0.000015275930
       6        0.000001819944    -0.000003153089    -0.000000788387
       7       -0.000002120840     0.000003552682    -0.000000174401
       8       -0.000006399702     0.000004394129    -0.000002932164
       9        0.000000310774     0.000000062017     0.000001786027
      10       -0.000000875262    -0.000002176050     0.000001250563
      11        0.000679156482    -0.001099003177    -0.000699727334
      12        0.000005090327     0.000001843730     0.000001795803
      13       -0.000003642579     0.000000546173     0.000000000698
      14       -0.000725862476     0.001149507842    -0.000573047565
      15       -0.000473121582     0.000736040906     0.000673355068
      16        0.000016461280    -0.000006853163     0.000010928506
      17        0.000003297380    -0.000002534307    -0.000002010147
      18        0.000513153740    -0.000785531111     0.000578726781
      19       -0.000010475037     0.000006002998     0.000012528387
      20       -0.000001875853    -0.000005319388    -0.000001376266
      21       -0.000000019399     0.000000629460     0.000001604563
      22        0.000002207228     0.000002811887    -0.000003518134
      23       -0.000000537326    -0.000000086916     0.000000520290
      24        0.000000354933     0.000000064284     0.000000788997
      25        0.000000466079     0.000000125004     0.000000381933

  **** Optimization is complete! (in 6 steps) ****
    Final optimized geometry and variables:
    Molecular point group: c1

    Geometry (in Angstrom), charge = 0, multiplicity = 1:

    O            2.862451270255     1.357469258466    -0.011294352027
    C            2.840743567620     0.169710852636    -0.118529014655
    C            1.543514231786    -0.619032535133    -0.124748478659
    C            4.117820117907    -0.633577611219    -0.256191726656
    C            0.291785090078     0.241789411032     0.018010175437
    H            1.509785368390    -1.197571926477    -1.047002509198
    H            1.597513569254    -1.355651934055     0.675795794388
    C           -0.993917087635    -0.586820329294     0.007289734256
    H            0.267782805871     0.970810380054    -0.785789304749
    H            0.355614742859     0.812523102006     0.939022710076
    C           -2.255770364402     0.266052541113     0.144318866968
    H           -1.048523086337    -1.161376078644    -0.916189849078
    H           -0.963927580628    -1.315099089196     0.816564389179
    C           -3.546196367816    -0.555801174426     0.159174004633
    H           -2.297181354520     0.989222964373    -0.668370200906
    H           -2.196155844995     0.850888280932     1.060719950405
    C           -4.806592077886     0.307538393817     0.179095477273
    H           -3.566943809476    -1.213622864243    -0.707345184361
    H           -3.543150547547    -1.208506165319     1.029906246431
    H           -4.862865105286     0.939378808613    -0.702735181290
    H           -5.702890623637    -0.304500016090     0.205374594340
    H           -4.823346712255     0.956066405468     1.050515467623
    H            4.113669017417    -1.195651660012    -1.185531959562
    H            4.970375676969     0.031036530710    -0.240157012755
    H            4.202737119482    -1.351668185489     0.554227561974

  Mulliken Charges: (a.u.)
   Center  Symbol    Alpha    Beta     Spin     Total
       1     O     4.26115  4.26115  0.00000 -0.52230
       2     C     2.73570  2.73570  0.00000  0.52861
       3     C     3.21089  3.21089  0.00000 -0.42178
       4     C     3.28663  3.28663  0.00000 -0.57326
       5     C     3.14807  3.14807  0.00000 -0.29613
       6     H     0.40998  0.40998  0.00000  0.18003
       7     H     0.41000  0.41000  0.00000  0.18001
       8     C     3.15392  3.15392  0.00000 -0.30783
       9     H     0.41210  0.41210  0.00000  0.17580
      10     H     0.41213  0.41213  0.00000  0.17574
      11     C     3.15089  3.15089  0.00000 -0.30178
      12     H     0.42478  0.42478  0.00000  0.15043
      13     H     0.42483  0.42483  0.00000  0.15034
      14     C     3.15157  3.15157  0.00000 -0.30314
      15     H     0.42252  0.42252  0.00000  0.15495
      16     H     0.42238  0.42238  0.00000  0.15524
      17     C     3.23935  3.23935  0.00000 -0.47870
      18     H     0.42369  0.42369  0.00000  0.15262
      19     H     0.42344  0.42344  0.00000  0.15311
      20     H     0.42133  0.42133  0.00000  0.15733
      21     H     0.41949  0.41949  0.00000  0.16102
      22     H     0.42128  0.42128  0.00000  0.15744
      23     H     0.40873  0.40873  0.00000  0.18254
      24     H     0.39645  0.39645  0.00000  0.20709
      25     H     0.40870  0.40870  0.00000  0.18261

   Total alpha = 36.00000, Total beta = 36.00000, Total charge =  0.00000
