  ==> Input File <==

--------------------------------------------------------------------------
set {
	reference rhf
	basis cc-pvtz
}

set_num_threads( 4 )
memory 2 gb

molecule MOL {
0 1

H	 1.140552	 -0.022511	 -0.949381
C	 0.788096	 -0.429819	 0.000000
N	 -0.537714	 -0.645117	 0.000000
O	 1.531090	 -0.642921	 0.905133
C	 -1.522613	 0.412524	 0.000000
H	 -0.845894	 -1.585866	 0.000000
H	 -2.150256	 0.356137	 -0.880771
H	 -1.005621	 1.357208	 0.000000
H	 -2.150256	 0.356137	 0.880771

	symmetry c1
}
set optking {
	frozen_dihedral = ("
		1 2 3 6
	")
}

ee = optimize('scf')
oeprop('DIPOLE', 'QUADRUPOLE', 'MULLIKEN_CHARGES')
f=open( 'psi4out.xyz', 'w' )
f.write( "9  " )
f.write( str(ee) + "\n" )
f.write( MOL.save_string_xyz() )
f.close()
--------------------------------------------------------------------------

    Molecular point group: c1
  Charge       = 0
  Multiplicity = 1
  Basis Set: CC-PVTZ
  Basis Set:
  @DF-RHF Final Energy:  -208.00556433378421
    Total Energy =                       -208.0055643337841786
    Molecular point group: c1
  Basis Set: CC-PVTZ
  Basis Set:
  Basis Set: CC-PVTZ
  Basis Set:
  @DF-RHF Final Energy:  -208.01083525420646
    Total Energy =                       -208.0108352542063699
  Basis Set: CC-PVTZ
  Basis Set:
  Basis Set: CC-PVTZ
  Basis Set:
  @DF-RHF Final Energy:  -208.01519477410622
    Total Energy =                       -208.0151947741062202
  Basis Set: CC-PVTZ
  Basis Set:
  Basis Set: CC-PVTZ
  Basis Set:
  @DF-RHF Final Energy:  -208.02118212091045
    Total Energy =                       -208.0211821209103960
  Basis Set: CC-PVTZ
  Basis Set:
  @DF-RHF Final Energy:  -208.02253869394531
    Total Energy =                       -208.0225386939452505
  @DF-RHF Final Energy:  -208.02301887514091
    Total Energy =                       -208.0230188751409059
  @DF-RHF Final Energy:  -208.02350825104190
    Total Energy =                       -208.0235082510419886
  @DF-RHF Final Energy:  -208.02390518916980
    Total Energy =                       -208.0239051891699376
  @DF-RHF Final Energy:  -208.02419886087864
    Total Energy =                       -208.0241988608785846
  Basis Set: CC-PVTZ
  Basis Set:
  @DF-RHF Final Energy:  -208.02441236928746
    Total Energy =                       -208.0244123692875178
  Basis Set: CC-PVTZ
  Basis Set:
  Basis Set: CC-PVTZ
  Basis Set:
  @DF-RHF Final Energy:  -208.02450056061861
    Total Energy =                       -208.0245005606186339
  Basis Set: CC-PVTZ
  Basis Set:
  Basis Set: CC-PVTZ
  Basis Set:
  @DF-RHF Final Energy:  -208.02451698625197
    Total Energy =                       -208.0245169862519390
  Basis Set: CC-PVTZ
  Basis Set:
  Charge       = 0
  Multiplicity = 1
  Basis Set: CC-PVTZ
  Basis Set:

    Orbital Energies (a.u.)
    -----------------------

    Doubly Occupied:

       1A    -20.543923     2A    -15.574692     3A    -11.346603
       4A    -11.265526     5A     -1.414584     6A     -1.236280
       7A     -0.950619     8A     -0.833778     9A     -0.705745
      10A     -0.678060    11A     -0.646509    12A     -0.583801
      13A     -0.564758    14A     -0.537701    15A     -0.444188
      16A     -0.407598

  @DF-RHF Final Energy:  -208.02451717953457

   => Energetics <=

    Nuclear Repulsion Energy =            120.4037980010598687
    One-Electron Energy =                -521.3879042181381465
    Two-Electron Energy =                 192.9595890375437932
    DFT Exchange-Correlation Energy =       0.0000000000000000
    Empirical Dispersion Energy =           0.0000000000000000
    PCM Polarization Energy =               0.0000000000000000
    EFP Energy =                            0.0000000000000000
    Total Energy =                       -208.0245171795345129
    Molecular point group: c1
  Basis Set: CC-PVTZ
  Basis Set:

  -Total Gradient:
     Atom            X                  Y                   Z
    ------   -----------------  -----------------  -----------------
       1       -0.001974799294    -0.009586250110    -0.006132430814
       2        0.001467281244     0.013485295552     0.005459841685
       3        0.005323249754    -0.006803090775     0.011584567089
       4       -0.000030888275     0.000007470646    -0.000000087078
       5        0.000009201952     0.000013898939    -0.000033225711
       6       -0.004798073038     0.002891479629    -0.010882695071
       7       -0.000015390798     0.000015640268    -0.000010717425
       8        0.000005569818    -0.000014731365     0.000007513596
       9        0.000013848639    -0.000009712783     0.000007233728

  **** Optimization is complete! (in 13 steps) ****
    Final optimized geometry and variables:
    Molecular point group: c1

    Geometry (in Angstrom), charge = 0, multiplicity = 1:

    H            0.731384767957     0.527744841894    -1.160007786391
    C            0.661256283557    -0.049775472708    -0.232236586097
    N           -0.617310644191    -0.132544971629     0.307861625608
    O            1.594213662950    -0.636657919622     0.186703687362
    C           -1.581812325480     0.825115055822    -0.213202820812
    H           -0.969455022816    -1.061780501002     0.216238464899
    H           -1.727128481845     0.757038048826    -1.289238200233
    H           -1.264625422052     1.830953167166     0.025679501634
    H           -2.533470164927     0.660058313079     0.270438460780

  Mulliken Charges: (a.u.)
   Center  Symbol    Alpha    Beta     Spin     Total
       1     H     0.47428  0.47428  0.00000  0.05144
       2     C     2.87470  2.87470  0.00000  0.25060
       3     N     3.60126  3.60126  0.00000 -0.20252
       4     O     4.17356  4.17356  0.00000 -0.34711
       5     C     3.09075  3.09075  0.00000 -0.18151
       6     H     0.42824  0.42824  0.00000  0.14352
       7     H     0.46364  0.46364  0.00000  0.07273
       8     H     0.44846  0.44846  0.00000  0.10307
       9     H     0.44511  0.44511  0.00000  0.10978

   Total alpha = 16.00000, Total beta = 16.00000, Total charge = -0.00000
