                              Psi4 1.0.54 Driver

  ==> Input File <==

--------------------------------------------------------------------------
set {
	reference rhf
	basis cc-pvtz
}

set_num_threads( 4 )
memory 2 gb

molecule MOL {
0 1

H	 -2.644180	 -0.653737	 1.272255
C	 -2.092774	 -0.380414	 0.391915
O	 -0.808934	 -0.154049	 0.752536
F	 -2.163230	 -1.351640	 -0.507133
F	 -2.627232	 0.691260	 -0.169301
C	 -0.564399	 0.496716	 1.942497
C	 0.527750	 1.531376	 1.681796
Cl	 -0.039226	 -0.639556	 3.198928
H	 -1.431112	 1.012249	 2.317572
F	 0.798004	 2.197761	 2.775376
F	 0.100398	 2.386118	 0.782851
F	 1.628502	 0.988324	 1.239426

	symmetry c1
}
set optking {
	frozen_dihedral = ("
		6 3 2 4
	")
}

ee,wfn = optimize('scf', return_wfn=True)
oeprop( wfn, 'DIPOLE', 'QUADRUPOLE', 'MULLIKEN_CHARGES')
f=open( 'psi4out.xyz', 'w' )
f.write( "12  " )
f.write( str(ee) + "\n" )
f.write( MOL.save_string_xyz() )
f.close()
--------------------------------------------------------------------------

    Molecular point group: c1
  Charge       = 0
  Multiplicity = 1
  Basis Set: CC-PVTZ
  Basis Set:
  @DF-RHF Final Energy: -1146.61509219745199
    Total Energy =                      -1146.6150921974524408
    Molecular point group: c1
  Basis Set: CC-PVTZ
  Basis Set:
  Basis Set: CC-PVTZ
  Basis Set:
  @DF-RHF Final Energy: -1146.15749026230287
    Total Energy =                      -1146.1574902623024172
  Basis Set: CC-PVTZ
  Basis Set:
  Basis Set: CC-PVTZ
  Basis Set:
  @DF-RHF Final Energy: -1146.34640543108753
    Total Energy =                      -1146.3464054310879874
  Basis Set: CC-PVTZ
  Basis Set:
  Basis Set: CC-PVTZ
  Basis Set:
  @DF-RHF Final Energy: -1146.25459752736629
    Total Energy =                      -1146.2545975273667409
  Basis Set: CC-PVTZ
  Basis Set:
  @DF-RHF Final Energy: -1146.50280167538358
    Total Energy =                      -1146.5028016753840348
  @DF-RHF Final Energy: -1146.38941482194468
    Total Energy =                      -1146.3894148219446834
  @DF-RHF Final Energy: -1146.56792611848482
    Total Energy =                      -1146.5679261184848201
  @DF-RHF Final Energy: -1146.60376230470570
    Total Energy =                      -1146.6037623047066063
  @DF-RHF Final Energy: -1146.58472825981244
    Total Energy =                      -1146.5847282598119818
  @DF-RHF Final Energy: -1146.61641069268398
    Total Energy =                      -1146.6164106926844397
  @DF-RHF Final Energy: -1146.61835308356672
    Total Energy =                      -1146.6183530835669444
  @DF-RHF Final Energy: -1146.61867548980808
    Total Energy =                      -1146.6186754898085383
  @DF-RHF Final Energy: -1146.61880455005530
    Total Energy =                      -1146.6188045500543922
  Basis Set: CC-PVTZ
  Basis Set:
  @DF-RHF Final Energy: -1146.61880389496355
    Total Energy =                      -1146.6188038949640031
  Basis Set: CC-PVTZ
  Basis Set:
  Basis Set: CC-PVTZ
  Basis Set:
  @DF-RHF Final Energy: -1146.61881833229882
    Total Energy =                      -1146.6188183322992700
  Basis Set: CC-PVTZ
  Basis Set:
  Basis Set: CC-PVTZ
  Basis Set:
  @DF-RHF Final Energy: -1146.61882578471750
    Total Energy =                      -1146.6188257847181831
  Basis Set: CC-PVTZ
  Basis Set:
  Charge       = 0
  Multiplicity = 1
  Basis Set: CC-PVTZ
  Basis Set:

    Orbital Energies (a.u.)
    -----------------------

    Doubly Occupied:

       1A   -104.866608     2A    -26.359215     3A    -26.357412
       4A    -26.357037     5A    -26.341915     6A    -26.340232
       7A    -20.642960     8A    -11.525702     9A    -11.483400
      10A    -11.408958    11A    -10.592146    12A     -8.058903
      13A     -8.056995    14A     -8.056903    15A     -1.772257
      16A     -1.723165    17A     -1.667138    18A     -1.665428
      19A     -1.645235    20A     -1.491851    21A     -1.181210
      22A     -1.061584    23A     -0.987825    24A     -0.932602
      25A     -0.867616    26A     -0.862922    27A     -0.856354
      28A     -0.828587    29A     -0.820459    30A     -0.795682
      31A     -0.737861    32A     -0.734795    33A     -0.706041
      34A     -0.696723    35A     -0.692555    36A     -0.683186
      37A     -0.673363    38A     -0.667851    39A     -0.664590
      40A     -0.644891    41A     -0.603869    42A     -0.572443
      43A     -0.524020    44A     -0.489950    45A     -0.479797

  @DF-RHF Final Energy: -1146.61882590998698

   => Energetics <=

    Nuclear Repulsion Energy =            727.8031764891957209
    One-Electron Energy =               -3038.4835322809130957
    Two-Electron Energy =                1164.0615298817301664
    DFT Exchange-Correlation Energy =       0.0000000000000000
    Empirical Dispersion Energy =           0.0000000000000000
    PCM Polarization Energy =               0.0000000000000000
    EFP Energy =                            0.0000000000000000
    Total Energy =                      -1146.6188259099872084
    Molecular point group: c1
  Basis Set: CC-PVTZ
  Basis Set:

  -Total Gradient:
     Atom            X                  Y                   Z
    ------   -----------------  -----------------  -----------------
       1       -0.000024519671    -0.000020895767     0.000007824127
       2       -0.000810542260     0.001014462634    -0.001014688968
       3       -0.002049368597     0.001201992082    -0.000128863691
       4        0.001265237788    -0.001167254665     0.000829749838
       5       -0.000024512109    -0.000017512185     0.000024954673
       6        0.001652758815    -0.000977712799     0.000270176490
       7        0.000012300961     0.000064544715     0.000038533720
       8        0.000008649410     0.000007051958     0.000010474912
       9       -0.000006418483     0.000017624349     0.000019278776
      10        0.000006483345    -0.000052142363    -0.000017778882
      11       -0.000045330575    -0.000019267673    -0.000034494557
      12        0.000015261397    -0.000050890363    -0.000005166402

  **** Optimization is complete! (in 15 steps) ****
    Final optimized geometry and variables:
    Molecular point group: c1

    Geometry (in Angstrom), charge = 0, multiplicity = 1:

    H           -0.403139198147    -2.198196063066    -1.023591558185
    C           -0.491261430672    -1.275725116702    -1.574898394640
    O            0.022656105705    -0.209849414207    -0.904833813718
    F            0.159685112756    -1.370173948152    -2.707047321842
    F           -1.770020936879    -1.060852144063    -1.844859882775
    C           -0.184989059643    -0.151361329384     0.445404814528
    C            0.081922458166     1.288256388900     0.879306324470
    CL           0.883514029315    -1.268489823199     1.335591552507
    H           -1.196714191898    -0.400644559636     0.723060281877
    F           -0.116663564884     1.415707382224     2.166984699106
    F           -0.755216053457     2.083386055483     0.259932211510
    F            1.297192392654     1.668967652994     0.602428934727

  Mulliken Charges: (a.u.)
   Center  Symbol    Alpha    Beta     Spin     Total
       1     H     0.47820  0.47820  0.00000  0.04360
       2     C     2.73919  2.73919  0.00000  0.52162
       3     O     4.13895  4.13895  0.00000 -0.27790
       4     F     4.59912  4.59912  0.00000 -0.19824
       5     F     4.61507  4.61507  0.00000 -0.23014
       6     C     2.94780  2.94780  0.00000  0.10440
       7     C     2.66888  2.66888  0.00000  0.66224
       8    CL     8.57937  8.57937  0.00000 -0.15873
       9     H     0.43053  0.43053  0.00000  0.13895
      10     F     4.60238  4.60238  0.00000 -0.20476
      11     F     4.60206  4.60206  0.00000 -0.20411
      12     F     4.59846  4.59846  0.00000 -0.19692

   Total alpha = 45.00000, Total beta = 45.00000, Total charge = -0.00000

*** Psi4 exiting successfully. Buy a developer a beer!
