  ==> Input File <==

--------------------------------------------------------------------------
set {
	reference rhf
	basis 6-31G*
}

set_num_threads( 1 )
memory 2 gb

molecule MOL {
0 1

H	 -3.261111	 -0.295142	 1.469456
C	 -3.306842	 -0.277400	 0.373456
C	 -2.660244	 0.921717	 -0.272021
O	 -3.838538	 -1.161155	 -0.216482
C	 -1.220012	 1.144545	 0.209990
H	 -2.705793	 0.797307	 -1.347733
H	 -3.263782	 1.790044	 -0.010477
C	 -0.252658	 0.041456	 -0.226725
H	 -0.873521	 2.100229	 -0.171974
H	 -1.211708	 1.231594	 1.295398
C	 1.180775	 0.282413	 0.250794
H	 -0.266029	 -0.034465	 -1.312038
H	 -0.597733	 -0.921000	 0.146291
C	 2.148627	 -0.814315	 -0.201312
H	 1.516199	 1.249228	 -0.115937
H	 1.192670	 0.346017	 1.338083
C	 3.580890	 -0.659131	 0.322722
H	 2.166869	 -0.852443	 -1.289387
H	 1.762857	 -1.776509	 0.128956
C	 4.461840	 -1.896248	 0.140825
H	 3.534339	 -0.417916	 1.381776
H	 4.051224	 0.194117	 -0.161710
H	 4.007994	 -2.769633	 0.601791
H	 4.630577	 -2.124768	 -0.906210
H	 5.433772	 -1.747836	 0.601605

	symmetry c1
}
set optking {
	frozen_dihedral = ("
		6 3 5 8,
		6 3 2 4,
		3 5 8 12,
		12 8 11 14,
		8 11 14 18
	")
}

ee = energy('scf')
oeprop('DIPOLE', 'QUADRUPOLE', 'MULLIKEN_CHARGES')
f=open( 'psi4out.xyz', 'w' )
f.write( "25  " )
f.write( str(ee) + "\n" )
f.write( MOL.save_string_xyz() )
f.close()
--------------------------------------------------------------------------

    Molecular point group: c1

    Geometry (in Angstrom), charge = 0, multiplicity = 1:

       Center              X                  Y                   Z               Mass
    ------------   -----------------  -----------------  -----------------  -----------------
           H         -3.276989561213    -0.007032743287     1.427535012965     1.007825032070
           C         -3.322720561213     0.010709256713     0.331535012965    12.000000000000
           C         -2.676122561213     1.209826256713    -0.313941987035    12.000000000000
           O         -3.854416561213    -0.873045743287    -0.258402987035    15.994914619560
           C         -1.235890561213     1.432654256713     0.168069012965    12.000000000000
           H         -2.721671561213     1.085416256713    -1.389653987035     1.007825032070
           H         -3.279660561213     2.078153256713    -0.052397987035     1.007825032070
           C         -0.268536561213     0.329565256713    -0.268645987035    12.000000000000
           H         -0.889399561213     2.388338256713    -0.213894987035     1.007825032070
           H         -1.227586561213     1.519703256713     1.253477012965     1.007825032070
           C          1.164896438787     0.570522256713     0.208873012965    12.000000000000
           H         -0.281907561213     0.253644256713    -1.353958987035     1.007825032070
           H         -0.613611561213    -0.632890743287     0.104370012965     1.007825032070
           C          2.132748438787    -0.526205743287    -0.243232987035    12.000000000000
           H          1.500320438787     1.537337256713    -0.157857987035     1.007825032070
           H          1.176791438787     0.634126256713     1.296162012965     1.007825032070
           C          3.565011438787    -0.371021743287     0.280801012965    12.000000000000
           H          2.150990438787    -0.564333743287    -1.331307987035     1.007825032070
           H          1.746978438787    -1.488399743287     0.087035012965     1.007825032070
           C          4.445961438787    -1.608138743287     0.098904012965    12.000000000000
           H          3.518460438787    -0.129806743287     1.339855012965     1.007825032070
           H          4.035345438787     0.482226256713    -0.203630987035     1.007825032070
           H          3.992115438787    -2.481523743287     0.559870012965     1.007825032070
           H          4.614698438787    -1.836658743287    -0.948130987035     1.007825032070
           H          5.417893438787    -1.459726743287     0.559684012965     1.007825032070

  Charge       = 0
  Multiplicity = 1
  Basis Set: 6-31G*
  Basis Set:

    Orbital Energies (a.u.)
    -----------------------

    Doubly Occupied:

       1A    -20.562115     2A    -11.326234     3A    -11.235510
       4A    -11.234778     5A    -11.224179     6A    -11.220805
       7A    -11.217798     8A    -11.216835     9A    -11.210701
      10A     -1.402083    11A     -1.103854    12A     -1.069050
      13A     -1.015382    14A     -0.943805    15A     -0.868996
      16A     -0.815069    17A     -0.793404    18A     -0.786963
      19A     -0.665289    20A     -0.664116    21A     -0.638843
      22A     -0.615830    23A     -0.604932    24A     -0.592676
      25A     -0.566887    26A     -0.552264    27A     -0.540501
      28A     -0.521302    29A     -0.506339    30A     -0.499899
      31A     -0.488358    32A     -0.477097    33A     -0.464303
      34A     -0.463676    35A     -0.442132    36A     -0.409657

  @DF-RHF Final Energy:  -387.12263490343275

   => Energetics <=

    Nuclear Repulsion Energy =            435.1738956305903230
    One-Electron Energy =               -1386.6700312064067475
    Two-Electron Energy =                 564.3735006723834431
    DFT Exchange-Correlation Energy =       0.0000000000000000
    Empirical Dispersion Energy =           0.0000000000000000
    PCM Polarization Energy =               0.0000000000000000
    EFP Energy =                            0.0000000000000000
    Total Energy =                       -387.1226349034329814

  Mulliken Charges: (a.u.)
   Center  Symbol    Alpha    Beta     Spin     Total
       1     H     0.43259  0.43259  0.00000  0.13483
       2     C     2.83087  2.83087  0.00000  0.33825
       3     C     3.20811  3.20811  0.00000 -0.41621
       4     O     4.23771  4.23771  0.00000 -0.47543
       5     C     3.16666  3.16666  0.00000 -0.33332
       6     H     0.39966  0.39966  0.00000  0.20068
       7     H     0.40664  0.40664  0.00000  0.18672
       8     C     3.15537  3.15537  0.00000 -0.31074
       9     H     0.41275  0.41275  0.00000  0.17450
      10     H     0.41956  0.41956  0.00000  0.16089
      11     C     3.15262  3.15262  0.00000 -0.30524
      12     H     0.41786  0.41786  0.00000  0.16427
      13     H     0.41817  0.41817  0.00000  0.16366
      14     C     3.15153  3.15153  0.00000 -0.30307
      15     H     0.42250  0.42250  0.00000  0.15501
      16     H     0.42328  0.42328  0.00000  0.15343
      17     C     3.15179  3.15179  0.00000 -0.30357
      18     H     0.42234  0.42234  0.00000  0.15533
      19     H     0.42303  0.42303  0.00000  0.15395
      20     C     3.23950  3.23950  0.00000 -0.47899
      21     H     0.42382  0.42382  0.00000  0.15236
      22     H     0.42261  0.42261  0.00000  0.15477
      23     H     0.42128  0.42128  0.00000  0.15743
      24     H     0.42074  0.42074  0.00000  0.15851
      25     H     0.41900  0.41900  0.00000  0.16200

   Total alpha = 36.00000, Total beta = 36.00000, Total charge =  0.00000
