  ==> Input File <==

--------------------------------------------------------------------------
set {
	reference rhf
	basis cc-pvtz
}

set_num_threads( 4 )
memory 2 gb

molecule MOL {
0 1

H	 -2.698799	 -0.000846	 0.036018
C	 -1.694291	 -0.000483	 0.434279
O	 -0.828718	 -0.000608	 -0.655022
H	 -1.576855	 0.881100	 1.056504
H	 -1.576401	 -0.881658	 1.057001
C	 0.557892	 0.000078	 -0.420099
C	 1.369124	 0.144391	 -1.702811
C	 0.971248	 1.011452	 0.643155
H	 0.742048	 -0.990314	 -0.022822
H	 1.024791	 -0.562050	 -2.448086
H	 2.414833	 -0.056708	 -1.500825
H	 1.303429	 1.142815	 -2.119245
H	 0.351055	 0.906270	 1.524824
H	 2.002538	 0.841961	 0.930360
H	 0.894890	 2.032866	 0.289003

	symmetry c1
}
set optking {
	frozen_dihedral = ("
		9 6 3 2
	")
}

ee = optimize('scf')
oeprop('DIPOLE', 'QUADRUPOLE', 'MULLIKEN_CHARGES')
f=open( 'psi4out.xyz', 'w' )
f.write( "15  " )
f.write( str(ee) + "\n" )
f.write( MOL.save_string_xyz() )
f.close()
--------------------------------------------------------------------------

    Molecular point group: c1
  Charge       = 0
  Multiplicity = 1
  Basis Set: CC-PVTZ
  Basis Set:
  @DF-RHF Final Energy:  -232.22293476725787
    Total Energy =                       -232.2229347672580388
    Molecular point group: c1
  Basis Set: CC-PVTZ
  Basis Set:
  Basis Set: CC-PVTZ
  Basis Set:
  @DF-RHF Final Energy:  -232.22699500001269
    Total Energy =                       -232.2269950000128347
  Basis Set: CC-PVTZ
  Basis Set:
  Basis Set: CC-PVTZ
  Basis Set:
  @DF-RHF Final Energy:  -232.22853420233210
    Total Energy =                       -232.2285342023319572
  Basis Set: CC-PVTZ
  Basis Set:
  Basis Set: CC-PVTZ
  Basis Set:
  @DF-RHF Final Energy:  -232.22856415152256
    Total Energy =                       -232.2285641515223915
  Basis Set: CC-PVTZ
  Basis Set:
  Basis Set: CC-PVTZ
  Basis Set:
  @DF-RHF Final Energy:  -232.22860327361093
    Total Energy =                       -232.2286032736108723
  Basis Set: CC-PVTZ
  Basis Set:
  Basis Set: CC-PVTZ
  Basis Set:
  @DF-RHF Final Energy:  -232.22860531100432
    Total Energy =                       -232.2286053110044008
  Basis Set: CC-PVTZ
  Basis Set:
  Charge       = 0
  Multiplicity = 1
  Basis Set: CC-PVTZ
  Basis Set:

    Orbital Energies (a.u.)
    -----------------------

    Doubly Occupied:

       1A    -20.543799     2A    -11.273025     3A    -11.260043
       4A    -11.210240     5A    -11.203843     6A     -1.377205
       7A     -1.053927     8A     -0.947498     9A     -0.913732
      10A     -0.789770    11A     -0.677244    12A     -0.641379
      13A     -0.635270    14A     -0.593379    15A     -0.550321
      16A     -0.543449    17A     -0.526323    18A     -0.498468
      19A     -0.495849    20A     -0.452219    21A     -0.411144

  @DF-RHF Final Energy:  -232.22860558857209

   => Energetics <=

    Nuclear Repulsion Energy =            198.1316655163626876
    One-Electron Energy =                -707.5242925364910889
    Two-Electron Energy =                 277.1640214315564208
    DFT Exchange-Correlation Energy =       0.0000000000000000
    Empirical Dispersion Energy =           0.0000000000000000
    PCM Polarization Energy =               0.0000000000000000
    EFP Energy =                            0.0000000000000000
    Total Energy =                       -232.2286055885720089
    Molecular point group: c1
  Basis Set: CC-PVTZ
  Basis Set:

  -Total Gradient:
     Atom            X                  Y                   Z
    ------   -----------------  -----------------  -----------------
       1        0.000000984137     0.000003613884    -0.000010348543
       2        0.000151384729     0.002912566720     0.000162965442
       3       -0.000049506613    -0.004511131278    -0.000992605090
       4        0.000007380959    -0.000002542861    -0.000015800784
       5        0.000000325416    -0.000003305125     0.000005756556
       6       -0.000813904974     0.002657941807     0.004116652553
       7        0.000005060316    -0.000012925629    -0.000022809427
       8       -0.000012880896     0.000005114082     0.000023892297
       9        0.000714540037    -0.001048627069    -0.003251248051
      10        0.000005322458     0.000005900168    -0.000019715840
      11       -0.000001493824    -0.000003527360    -0.000002828942
      12        0.000001453471    -0.000008704926     0.000008502212
      13        0.000002753160     0.000008917961     0.000009637115
      14       -0.000014159311    -0.000008067403    -0.000010129299
      15        0.000002740933     0.000004777029    -0.000001920199

  **** Optimization is complete! (in 7 steps) ****
    Final optimized geometry and variables:
    Molecular point group: c1

    Geometry (in Angstrom), charge = 0, multiplicity = 1:

    H           -2.752345140468    -0.313784504072     0.250272869892
    C           -1.769873331997    -0.196087632230     0.684953161011
    O           -0.854903083802    -0.185056447152    -0.360672143408
    H           -1.756144782327     0.726734918507     1.255060867662
    H           -1.594144982627    -1.026608797743     1.366420808786
    C            0.507418083746    -0.274162062756    -0.034673884315
    C            1.262793224267    -0.104997810732    -1.342076777109
    C            0.955452159110     0.744400517036     1.005495556349
    H            0.707232854564    -1.280877359021     0.334582398782
    H            0.911107629548    -0.823184055540    -2.071285167842
    H            2.325748619446    -0.255524011173    -1.193444117570
    H            1.106920073135     0.889666099647    -1.743328718508
    H            0.494575704074     0.578594786551     1.970584167162
    H            2.028280573592     0.677131549856     1.140850211745
    H            0.716272382368     1.750755554359     0.679266318660

  Mulliken Charges: (a.u.)
   Center  Symbol    Alpha    Beta     Spin     Total
       1     H     0.44337  0.44337  0.00000  0.11326
       2     C     3.04051  3.04051  0.00000 -0.08102
       3     O     4.18081  4.18081  0.00000 -0.36163
       4     H     0.46782  0.46782  0.00000  0.06436
       5     H     0.47140  0.47140  0.00000  0.05719
       6     C     2.92304  2.92304  0.00000  0.15391
       7     C     3.14097  3.14097  0.00000 -0.28194
       8     C     3.16243  3.16243  0.00000 -0.32486
       9     H     0.46417  0.46417  0.00000  0.07166
      10     H     0.44629  0.44629  0.00000  0.10742
      11     H     0.45923  0.45923  0.00000  0.08154
      12     H     0.45439  0.45439  0.00000  0.09122
      13     H     0.44861  0.44861  0.00000  0.10278
      14     H     0.44723  0.44723  0.00000  0.10554
      15     H     0.44972  0.44972  0.00000  0.10056

   Total alpha = 21.00000, Total beta = 21.00000, Total charge = -0.00000
