  ==> Input File <==

--------------------------------------------------------------------------
set {
	reference rhf
	basis 6-31G*
}

set_num_threads( 1 )
memory 2 gb

molecule MOL {
0 1

O	 -2.035333	 -0.204121	 0.747299
C	 -1.083277	 0.139568	 0.115197
C	 0.323299	 -0.082943	 0.642902
C	 -1.225338	 0.832008	 -1.222029
C	 1.355627	 -0.005344	 -0.493127
H	 0.396251	 -1.044647	 1.143147
H	 0.528637	 0.693580	 1.371677
C	 2.786168	 -0.195604	 0.007473
H	 1.132807	 -0.760304	 -1.243899
H	 1.259610	 0.958506	 -0.981915
H	 3.495561	 -0.130713	 -0.811210
H	 2.912696	 -1.165395	 0.480041
H	 3.049284	 0.565503	 0.735850
H	 -0.646172	 1.750576	 -1.243659
H	 -2.266203	 1.049226	 -1.417353
H	 -0.837199	 0.190005	 -2.008404

	symmetry c1
}
set optking {
	frozen_dihedral = ("
		9 5 3 2
	")
}

ee = energy('scf')
oeprop('DIPOLE', 'QUADRUPOLE', 'MULLIKEN_CHARGES')
f=open( 'psi4out.xyz', 'w' )
f.write( "16  " )
f.write( str(ee) + "\n" )
f.write( MOL.save_string_xyz() )
f.close()
--------------------------------------------------------------------------

    Molecular point group: c1

    Geometry (in Angstrom), charge = 0, multiplicity = 1:

       Center              X                  Y                   Z               Mass
    ------------   -----------------  -----------------  -----------------  -----------------
           O         -2.063433110960    -0.286726783027     0.787367928309    15.994914619560
           C         -1.111377110960     0.056962216973     0.155265928309    12.000000000000
           C          0.295198889040    -0.165548783027     0.682970928309    12.000000000000
           C         -1.253438110960     0.749402216973    -1.181960071691    12.000000000000
           C          1.327526889040    -0.087949783027    -0.453058071691    12.000000000000
           H          0.368150889040    -1.127252783027     1.183215928309     1.007825032070
           H          0.500536889040     0.610974216973     1.411745928309     1.007825032070
           C          2.758067889040    -0.278209783027     0.047541928309    12.000000000000
           H          1.104706889040    -0.842909783027    -1.203830071691     1.007825032070
           H          1.231509889040     0.875900216973    -0.941846071691     1.007825032070
           H          3.467460889040    -0.213318783027    -0.771141071691     1.007825032070
           H          2.884595889040    -1.248000783027     0.520109928309     1.007825032070
           H          3.021183889040     0.482897216973     0.775918928309     1.007825032070
           H         -0.674272110960     1.667970216973    -1.203590071691     1.007825032070
           H         -2.294303110960     0.966620216973    -1.377284071691     1.007825032070
           H         -0.865299110960     0.107399216973    -1.968335071691     1.007825032070

  Charge       = 0
  Multiplicity = 1
  Basis Set: 6-31G*
  Basis Set:

    Orbital Energies (a.u.)
    -----------------------

    Doubly Occupied:

       1A    -20.546449     2A    -11.325282     3A    -11.232745
       4A    -11.231608     5A    -11.228107     6A    -11.220693
       7A     -1.392361     8A     -1.089904     9A     -1.008657
      10A     -0.951618    11A     -0.833213    12A     -0.734630
      13A     -0.660734    14A     -0.654242    15A     -0.624699
      16A     -0.596901    17A     -0.576942    18A     -0.555269
      19A     -0.542774    20A     -0.518332    21A     -0.505478
      22A     -0.485802    23A     -0.471197    24A     -0.397434

  @DF-RHF Final Energy:  -270.02421430803656

   => Energetics <=

    Nuclear Repulsion Energy =            238.6170891086139818
    One-Electron Energy =                -838.5123211513164279
    Two-Electron Energy =                 329.8710177346657701
    DFT Exchange-Correlation Energy =       0.0000000000000000
    Empirical Dispersion Energy =           0.0000000000000000
    PCM Polarization Energy =               0.0000000000000000
    EFP Energy =                            0.0000000000000000
    Total Energy =                       -270.0242143080366759

  Mulliken Charges: (a.u.)
   Center  Symbol    Alpha    Beta     Spin     Total
       1     O     4.26287  4.26287  0.00000 -0.52574
       2     C     2.73354  2.73354  0.00000  0.53293
       3     C     3.20119  3.20119  0.00000 -0.40238
       4     C     3.29667  3.29667  0.00000 -0.59335
       5     C     3.16772  3.16772  0.00000 -0.33544
       6     H     0.39910  0.39910  0.00000  0.20180
       7     H     0.40256  0.40256  0.00000  0.19488
       8     C     3.23840  3.23840  0.00000 -0.47681
       9     H     0.41774  0.41774  0.00000  0.16451
      10     H     0.41806  0.41806  0.00000  0.16388
      11     H     0.41636  0.41636  0.00000  0.16728
      12     H     0.41856  0.41856  0.00000  0.16289
      13     H     0.41983  0.41983  0.00000  0.16034
      14     H     0.40816  0.40816  0.00000  0.18368
      15     H     0.39461  0.39461  0.00000  0.21078
      16     H     0.40463  0.40463  0.00000  0.19074

   Total alpha = 24.00000, Total beta = 24.00000, Total charge = -0.00000
