  ==> Input File <==

--------------------------------------------------------------------------
set {
	reference rhf
	basis 6-31G*
}

set_num_threads( 4 )
memory 2 gb

molecule MOL {
0 1

O	 0.050696	 0.712161	 -0.963162
C	 0.486307	 0.169203	 0.000779
C	 1.608116	 -0.841643	 0.000302
O	 0.032299	 0.384047	 1.227696
C	 2.990107	 -0.200498	 -0.000684
H	 1.468623	 -1.481519	 -0.865924
H	 1.469683	 -1.481289	 0.866878
H	 3.129736	 0.423364	 -0.875135
H	 3.757882	 -0.966877	 -0.001197
H	 3.130964	 0.423383	 0.873533
C	 -1.031949	 1.317422	 1.381278
C	 -1.367745	 1.384168	 2.856099
H	 -1.877614	 0.987682	 0.793309
H	 -0.715909	 2.278554	 0.999262
H	 -1.677127	 0.412749	 3.224591
H	 -2.178077	 2.087351	 3.019019
H	 -0.509133	 1.710740	 3.431767

	symmetry c1
}
set optking {
	frozen_dihedral = ("
		4 2 3 6
	")
}

ee = optimize('scf')
oeprop('DIPOLE', 'QUADRUPOLE', 'MULLIKEN_CHARGES')
f=open( 'psi4out.xyz', 'w' )
f.write( "17  " )
f.write( str(ee) + "\n" )
f.write( MOL.save_string_xyz() )
f.close()
--------------------------------------------------------------------------

    Molecular point group: c1
  Charge       = 0
  Multiplicity = 1
  Basis Set: 6-31G*
  Basis Set:
  @DF-RHF Final Energy:  -344.90935538823572
    Total Energy =                       -344.9093553882357241
    Molecular point group: c1
  Basis Set: 6-31G*
  Basis Set:
  Basis Set: 6-31G*
  Basis Set:
  @DF-RHF Final Energy:  -344.90970701309624
    Total Energy =                       -344.9097070130961811
  Basis Set: 6-31G*
  Basis Set:
  Basis Set: 6-31G*
  Basis Set:
  @DF-RHF Final Energy:  -344.90998181171148
    Total Energy =                       -344.9099818117115319
  Basis Set: 6-31G*
  Basis Set:
  Basis Set: 6-31G*
  Basis Set:
  @DF-RHF Final Energy:  -344.91005558683355
    Total Energy =                       -344.9100555868333799
  Basis Set: 6-31G*
  Basis Set:
  Basis Set: 6-31G*
  Basis Set:
  @DF-RHF Final Energy:  -344.91006343218277
    Total Energy =                       -344.9100634321823691
  Basis Set: 6-31G*
  Basis Set:
  Charge       = 0
  Multiplicity = 1
  Basis Set: 6-31G*
  Basis Set:

    Orbital Energies (a.u.)
    -----------------------

    Doubly Occupied:

       1A    -20.602595     2A    -20.541149     3A    -11.370235
       4A    -11.284623     5A    -11.235841     6A    -11.226035
       7A    -11.222415     8A     -1.467315     9A     -1.360256
      10A     -1.071618    11A     -1.031986    12A     -0.908757
      13A     -0.852934    14A     -0.776936    15A     -0.694046
      16A     -0.683627    17A     -0.666772    18A     -0.615839
      19A     -0.599675    20A     -0.573954    21A     -0.554489
      22A     -0.536711    23A     -0.526624    24A     -0.509020
      25A     -0.501660    26A     -0.495843    27A     -0.451047
      28A     -0.431715

  @DF-RHF Final Energy:  -344.91006377273374

   => Energetics <=

    Nuclear Repulsion Energy =            315.9301538364905468
    One-Electron Energy =               -1096.0930001895781061
    Two-Electron Energy =                 435.2527825803541646
    DFT Exchange-Correlation Energy =       0.0000000000000000
    Empirical Dispersion Energy =           0.0000000000000000
    PCM Polarization Energy =               0.0000000000000000
    EFP Energy =                            0.0000000000000000
    Total Energy =                       -344.9100637727334515
    Molecular point group: c1
  Basis Set: 6-31G*
  Basis Set:

  -Total Gradient:
     Atom            X                  Y                   Z
    ------   -----------------  -----------------  -----------------
       1       -0.000041588913    -0.000032562622     0.000002572960
       2        0.000160851321     0.000170010026     0.000005867667
       3        0.000155891977     0.000177474219    -0.000139869154
       4       -0.000211812899    -0.000191015260     0.000000905685
       5        0.000022289772    -0.000023487553     0.000005772240
       6       -0.000128547678    -0.000155243145     0.000147734784
       7       -0.000022634753    -0.000023076224    -0.000025150928
       8       -0.000004372243     0.000016343929    -0.000006525603
       9       -0.000019303334    -0.000006278278     0.000000162373
      10       -0.000004558232     0.000009704722     0.000001110899
      11        0.000206597758     0.000198257156     0.000036537161
      12       -0.000040600389    -0.000054996520    -0.000008675091
      13       -0.000013410924    -0.000054808400    -0.000034158093
      14       -0.000056005283    -0.000021761440     0.000015182920
      15       -0.000006035229    -0.000002684895     0.000026148608
      16       -0.000001159173    -0.000006764369    -0.000007425849
      17        0.000004398222     0.000000888655    -0.000020190584

  **** Optimization is complete! (in 6 steps) ****
    Final optimized geometry and variables:
    Molecular point group: c1

    Geometry (in Angstrom), charge = 0, multiplicity = 1:

    O           -0.285809153948     0.287590488446    -1.597507655688
    C            0.102648731747    -0.283229365712    -0.628352569210
    C            1.217132607549    -1.301524204690    -0.635078610201
    O           -0.376889541533    -0.066666659278     0.587316227407
    C            2.582893822619    -0.606505251451    -0.697492742985
    H            1.080257384224    -1.925140765740    -1.510066979309
    H            1.147585797654    -1.922585120053     0.248480920187
    H            2.656279023323     0.014346763975    -1.582593831536
    H            3.377300521504    -1.343582311363    -0.730773924237
    H            2.742475620948     0.019134540205     0.174520887929
    C           -1.404774558171     0.909495743434     0.723254486136
    C           -1.788078605716     0.964278908830     2.186933766049
    H           -2.242384538498     0.626738630142     0.100516044607
    H           -1.034832100408     1.862358913985     0.370131446721
    H           -2.151102613311     0.000723487828     2.526053176791
    H           -2.572926368160     1.698750631418     2.335896106220
    H           -0.936872447844     1.243263357323     2.797579446967

  Mulliken Charges: (a.u.)
   Center  Symbol    Alpha    Beta     Spin     Total
       1     O     4.28694  4.28694  0.00000 -0.57388
       2     C     2.61281  2.61281  0.00000  0.77437
       3     C     3.19588  3.19588  0.00000 -0.39175
       4     O     4.30937  4.30937  0.00000 -0.61873
       5     C     3.25052  3.25052  0.00000 -0.50104
       6     H     0.40028  0.40028  0.00000  0.19944
       7     H     0.40273  0.40273  0.00000  0.19454
       8     H     0.40502  0.40502  0.00000  0.18996
       9     H     0.41211  0.41211  0.00000  0.17578
      10     H     0.41287  0.41287  0.00000  0.17426
      11     C     3.00315  3.00315  0.00000 -0.00631
      12     C     3.24856  3.24856  0.00000 -0.49711
      13     H     0.40944  0.40944  0.00000  0.18111
      14     H     0.41031  0.41031  0.00000  0.17939
      15     H     0.41172  0.41172  0.00000  0.17655
      16     H     0.41621  0.41621  0.00000  0.16757
      17     H     0.41207  0.41207  0.00000  0.17586

   Total alpha = 28.00000, Total beta = 28.00000, Total charge =  0.00000
