                              Psi4 1.0.54 Driver

  ==> Input File <==

--------------------------------------------------------------------------
set {
	reference rhf
	basis cc-pvtz
}

set_num_threads( 4 )
memory 2 gb

molecule MOL {
0 1

H	 1.725993	 0.817294	 -1.172938
O	 0.943468	 0.290070	 -1.229110
C	 0.489979	 0.078084	 0.002623
C	 -0.763662	 -0.754014	 0.000816
O	 1.031596	 0.515245	 0.958371
C	 -2.038001	 0.074705	 -0.000833
H	 -0.712945	 -1.405886	 -0.864342
H	 -0.715137	 -1.405770	 0.866182
H	 -2.087267	 0.710831	 -0.874232
H	 -2.903419	 -0.576199	 -0.001922
H	 -2.089467	 0.710909	 0.872389

	symmetry c1
}
set optking {
	frozen_dihedral = ("
		2 3 4 7
	")
}

ee,wfn = optimize('scf', return_wfn=True)
oeprop( wfn, 'DIPOLE', 'QUADRUPOLE', 'MULLIKEN_CHARGES')
f=open( 'psi4out.xyz', 'w' )
f.write( "11  " )
f.write( str(ee) + "\n" )
f.write( MOL.save_string_xyz() )
f.close()
--------------------------------------------------------------------------

    Molecular point group: c1
  Charge       = 0
  Multiplicity = 1
  Basis Set: CC-PVTZ
  Basis Set:
  @DF-RHF Final Energy:  -266.95072024572170
    Total Energy =                       -266.9507202457215840
    Molecular point group: c1
  Basis Set: CC-PVTZ
  Basis Set:
  Basis Set: CC-PVTZ
  Basis Set:
  @DF-RHF Final Energy:  -266.95131874083381
    Total Energy =                       -266.9513187408338126
  Basis Set: CC-PVTZ
  Basis Set:
  Basis Set: CC-PVTZ
  Basis Set:
  @DF-RHF Final Energy:  -266.95142581879816
    Total Energy =                       -266.9514258187983273
  Basis Set: CC-PVTZ
  Basis Set:
  Basis Set: CC-PVTZ
  Basis Set:
  @DF-RHF Final Energy:  -266.95147687506955
    Total Energy =                       -266.9514768750693747
  Basis Set: CC-PVTZ
  Basis Set:
  Basis Set: CC-PVTZ
  Basis Set:
  @DF-RHF Final Energy:  -266.95149130522793
    Total Energy =                       -266.9514913052279894
  Basis Set: CC-PVTZ
  Basis Set:
  Charge       = 0
  Multiplicity = 1
  Basis Set: CC-PVTZ
  Basis Set:

    Orbital Energies (a.u.)
    -----------------------

    Doubly Occupied:

       1A    -20.606448     2A    -20.539347     3A    -11.373566
       4A    -11.241385     5A    -11.229288     6A     -1.478421
       7A     -1.369063     8A     -1.068749     9A     -0.914669
      10A     -0.817077    11A     -0.706794    12A     -0.689228
      13A     -0.644708    14A     -0.619012    15A     -0.595412
      16A     -0.544079    17A     -0.527813    18A     -0.513933
      19A     -0.480097    20A     -0.444321

  @DF-RHF Final Energy:  -266.95149199719606

   => Energetics <=

    Nuclear Repulsion Energy =            180.3334736087446970
    One-Electron Energy =                -721.7631135683504908
    Two-Electron Energy =                 274.4781479624096505
    DFT Exchange-Correlation Energy =       0.0000000000000000
    Empirical Dispersion Energy =           0.0000000000000000
    PCM Polarization Energy =               0.0000000000000000
    EFP Energy =                            0.0000000000000000
    Total Energy =                       -266.9514919971961149
    Molecular point group: c1
  Basis Set: CC-PVTZ
  Basis Set:

  -Total Gradient:
     Atom            X                  Y                   Z
    ------   -----------------  -----------------  -----------------
       1        0.000018482806     0.000024508211     0.000012028505
       2        0.000164427496    -0.000370235174    -0.000043271240
       3       -0.000287330178     0.000476975741    -0.000094026488
       4        0.000306052514    -0.000450990891     0.000292073991
       5        0.000003575427     0.000033346814     0.000083587186
       6        0.000002147739    -0.000030244626     0.000032324005
       7       -0.000194553680     0.000294117301    -0.000309790611
       8        0.000010568914    -0.000010255802     0.000033582419
       9        0.000005649874     0.000011445481    -0.000024252500
      10       -0.000012545940    -0.000000465236     0.000002028112
      11       -0.000016474967     0.000021798181     0.000015716623

  **** Optimization is complete! (in 6 steps) ****
    Final optimized geometry and variables:
    Molecular point group: c1

    Geometry (in Angstrom), charge = 0, multiplicity = 1:

    H            1.804147199875     0.741803477641    -1.019219078746
    O            1.032858361363     0.202412194577    -1.111378408035
    C            0.523279330311    -0.012085491886     0.097407511436
    C           -0.745779952205    -0.819747112132     0.058405912581
    O            1.022325804943     0.421693509496     1.078274553832
    C           -1.968604692299     0.098959203319    -0.028131885992
    H           -0.720055450363    -1.485504250026    -0.793129019557
    H           -0.783382761806    -1.405559500665     0.965506331450
    H           -1.945296449870     0.695165698669    -0.932033763008
    H           -2.875427703232    -0.491652763968    -0.038634235779
    H           -2.008133360260     0.766934941341     0.822609755392

  Mulliken Charges: (a.u.)
   Center  Symbol    Alpha    Beta     Spin     Total
       1     H     0.37990  0.37990  0.00000  0.24020
       2     O     4.16359  4.16359  0.00000 -0.32718
       3     C     2.79755  2.79755  0.00000  0.40491
       4     C     3.08938  3.08938  0.00000 -0.17876
       5     O     4.19810  4.19810  0.00000 -0.39620
       6     C     3.14968  3.14968  0.00000 -0.29936
       7     H     0.44249  0.44249  0.00000  0.11503
       8     H     0.43864  0.43864  0.00000  0.12271
       9     H     0.44893  0.44893  0.00000  0.10214
      10     H     0.44698  0.44698  0.00000  0.10604
      11     H     0.44476  0.44476  0.00000  0.11048

   Total alpha = 20.00000, Total beta = 20.00000, Total charge = -0.00000

*** Psi4 exiting successfully. Buy a developer a beer!
