  ==> Input File <==

--------------------------------------------------------------------------
set {
	reference rhf
	basis 6-31G*
}

set_num_threads( 4 )
memory 2 gb

molecule MOL {
0 1

O	 -2.439739	 -0.935931	 -0.423848
C	 -1.921153	 0.064240	 -0.045697
C	 -2.624470	 1.379923	 0.150949
O	 -0.632575	 0.154573	 0.251549
H	 -2.168117	 2.136577	 -0.476876
H	 -3.669540	 1.273223	 -0.098610
H	 -2.519365	 1.700893	 1.180846
C	 0.160891	 -1.019931	 0.106212
C	 1.589627	 -0.672828	 0.480843
H	 0.089836	 -1.367806	 -0.916050
H	 -0.238459	 -1.792301	 0.749618
C	 2.246377	 0.346236	 -0.452210
H	 2.163194	 -1.597435	 0.473358
H	 1.604769	 -0.303424	 1.502885
C	 3.520528	 -0.190659	 -1.102812
H	 1.537477	 0.631829	 -1.226806
H	 2.475190	 1.248348	 0.105640
H	 3.967389	 0.550111	 -1.758258
H	 3.316326	 -1.077299	 -1.696485
H	 4.260310	 -0.458161	 -0.353650

	symmetry c1
}
set optking {
	frozen_dihedral = ("
		16 12 9 8
	")
}

ee = optimize('scf')
oeprop('DIPOLE', 'QUADRUPOLE', 'MULLIKEN_CHARGES')
f=open( 'psi4out.xyz', 'w' )
f.write( "20  " )
f.write( str(ee) + "\n" )
f.write( MOL.save_string_xyz() )
f.close()
--------------------------------------------------------------------------

    Molecular point group: c1
  Charge       = 0
  Multiplicity = 1
  Basis Set: 6-31G*
  Basis Set:
  @DF-RHF Final Energy:  -383.94015949618284
    Total Energy =                       -383.9401594961826731
    Molecular point group: c1
  Basis Set: 6-31G*
  Basis Set:
  Basis Set: 6-31G*
  Basis Set:
  @DF-RHF Final Energy:  -383.94030813266590
    Total Energy =                       -383.9403081326655638
  Basis Set: 6-31G*
  Basis Set:
  Basis Set: 6-31G*
  Basis Set:
  @DF-RHF Final Energy:  -383.94026681196192
    Total Energy =                       -383.9402668119621467
  Basis Set: 6-31G*
  Basis Set:
  Basis Set: 6-31G*
  Basis Set:
  @DF-RHF Final Energy:  -383.94047084448670
    Total Energy =                       -383.9404708444865264
  Basis Set: 6-31G*
  Basis Set:
  Charge       = 0
  Multiplicity = 1
  Basis Set: 6-31G*
  Basis Set:

    Orbital Energies (a.u.)
    -----------------------

    Doubly Occupied:

       1A    -20.601602     2A    -20.543994     3A    -11.374387
       4A    -11.282410     5A    -11.233255     6A    -11.225169
       7A    -11.220997     8A    -11.214014     9A     -1.467840
      10A     -1.362096    11A     -1.084033    12A     -1.027574
      13A     -0.981238    14A     -0.880927    15A     -0.812684
      16A     -0.772802    17A     -0.689315    18A     -0.687223
      19A     -0.666243    20A     -0.625902    21A     -0.602305
      22A     -0.589516    23A     -0.572763    24A     -0.557604
      25A     -0.542953    26A     -0.529246    27A     -0.511045
      28A     -0.485416    29A     -0.474157    30A     -0.468289
      31A     -0.448689    32A     -0.438341

  @DF-RHF Final Energy:  -383.94047155195040

   => Energetics <=

    Nuclear Repulsion Energy =            385.6877364584272527
    One-Electron Energy =               -1287.3083567214689538
    Two-Electron Energy =                 517.6801487110909648
    DFT Exchange-Correlation Energy =       0.0000000000000000
    Empirical Dispersion Energy =           0.0000000000000000
    PCM Polarization Energy =               0.0000000000000000
    EFP Energy =                            0.0000000000000000
    Total Energy =                       -383.9404715519507363
    Molecular point group: c1
  Basis Set: 6-31G*
  Basis Set:

  -Total Gradient:
     Atom            X                  Y                   Z
    ------   -----------------  -----------------  -----------------
       1        0.000048586057     0.000018556217    -0.000052405951
       2       -0.000020544328    -0.000005398107     0.000003265786
       3       -0.000001660967    -0.000011255249     0.000037133146
       4        0.000015854606     0.000039105620    -0.000134614901
       5        0.000007268074     0.000001115753    -0.000010520770
       6       -0.000001564846    -0.000002585183     0.000003772961
       7       -0.000001967352     0.000003067924    -0.000011456386
       8        0.000079671663    -0.000474530536     0.000057257385
       9       -0.000252399295     0.000832434812     0.000401622661
      10       -0.000057310299     0.000008971082    -0.000103095636
      11        0.000093999314     0.000008818961    -0.000067737006
      12        0.000374993742    -0.000936218176    -0.000633566595
      13        0.000067395095     0.000009582460    -0.000022275187
      14       -0.000018492557     0.000021302583    -0.000021465882
      15        0.000025245684    -0.000090967696     0.000014330300
      16       -0.000327240139     0.000587514740     0.000502566876
      17       -0.000019911121    -0.000005952217     0.000033427825
      18       -0.000029470136     0.000012632251     0.000023520918
      19        0.000009466143    -0.000007694833    -0.000016913729
      20        0.000008080665    -0.000008500406    -0.000002845816

  **** Optimization is complete! (in 5 steps) ****
    Final optimized geometry and variables:
    Molecular point group: c1

    Geometry (in Angstrom), charge = 0, multiplicity = 1:

    O           -2.415573585752    -0.816362774929    -0.309682976478
    C           -1.894410004585     0.177213809064     0.082265752193
    C           -2.590519912589     1.496606784421     0.280003747046
    O           -0.610502162224     0.254114098774     0.402344435675
    H           -2.118156063587     2.255192827945    -0.333446955223
    H           -3.632294758532     1.400385139045     0.012956643118
    H           -2.499166647839     1.807241595167     1.314378296678
    C            0.175759497230    -0.926036842252     0.263301270519
    C            1.606542479608    -0.577037636764     0.625922104975
    H            0.098843563648    -1.281274830124    -0.756058025015
    H           -0.223247416392    -1.691274927657     0.915547740797
    C            2.261447034727     0.450408842717    -0.323405603967
    H            2.172173733861    -1.505714713635     0.617303005385
    H            1.625088885379    -0.217807714462     1.649704297263
    C            3.544302697880    -0.063201852211    -0.977269547268
    H            1.553332719024     0.738131307408    -1.094690355749
    H            2.480920543210     1.361997327653     0.223138778143
    H            3.978609011978     0.686682488135    -1.631021189151
    H            3.352793951276    -0.951476015619    -1.573156184441
    H            4.288781002210    -0.322240013941    -0.229655711439

  Mulliken Charges: (a.u.)
   Center  Symbol    Alpha    Beta     Spin     Total
       1     O     4.28330  4.28330  0.00000 -0.56660
       2     C     2.61973  2.61973  0.00000  0.76053
       3     C     3.28157  3.28157  0.00000 -0.56313
       4     O     4.30792  4.30792  0.00000 -0.61584
       5     H     0.40070  0.40070  0.00000  0.19861
       6     H     0.39696  0.39696  0.00000  0.20608
       7     H     0.40055  0.40055  0.00000  0.19890
       8     C     3.00556  3.00556  0.00000 -0.01112
       9     C     3.16755  3.16755  0.00000 -0.33510
      10     H     0.41038  0.41038  0.00000  0.17924
      11     H     0.40941  0.40941  0.00000  0.18119
      12     C     3.15515  3.15515  0.00000 -0.31031
      13     H     0.41541  0.41541  0.00000  0.16917
      14     H     0.41151  0.41151  0.00000  0.17699
      15     C     3.24167  3.24167  0.00000 -0.48335
      16     H     0.41519  0.41519  0.00000  0.16961
      17     H     0.41642  0.41642  0.00000  0.16715
      18     H     0.41852  0.41852  0.00000  0.16295
      19     H     0.42168  0.42168  0.00000  0.15665
      20     H     0.42082  0.42082  0.00000  0.15837

   Total alpha = 32.00000, Total beta = 32.00000, Total charge =  0.00000
