                              Psi4 1.0.54 Driver

  ==> Input File <==

--------------------------------------------------------------------------
set {
	reference rhf
	basis cc-pvtz
}

set_num_threads( 4 )
memory 2 gb

molecule MOL {
0 1

H	 -3.034039	 -0.667848	 0.004703
O	 -2.240597	 -1.171748	 0.000934
C	 -1.159675	 -0.364500	 0.000370
C	 -0.802487	 0.395006	 1.095806
C	 -0.402104	 -0.318893	 -1.159829
H	 -1.389456	 0.362687	 1.995518
C	 0.319932	 1.201354	 1.017026
H	 -0.708254	 -0.919842	 -1.994136
C	 0.718196	 0.483932	 -1.235832
H	 0.599300	 1.796010	 1.866207
C	 1.076304	 1.251548	 -0.131969
C	 1.555634	 0.515495	 -2.489365
H	 1.942369	 1.884274	 -0.177250
H	 1.841506	 1.529427	 -2.740447
H	 1.021234	 0.096346	 -3.331075
H	 2.466733	 -0.057545	 -2.354582

	symmetry c1
}
set optking {
	frozen_dihedral = ("
		5 3 2 1
	")
}

ee,wfn = optimize('scf', return_wfn=True)
oeprop( wfn, 'DIPOLE', 'QUADRUPOLE', 'MULLIKEN_CHARGES')
f=open( 'psi4out.xyz', 'w' )
f.write( "16  " )
f.write( str(ee) + "\n" )
f.write( MOL.save_string_xyz() )
f.close()
--------------------------------------------------------------------------

    Molecular point group: c1
  Charge       = 0
  Multiplicity = 1
  Basis Set: CC-PVTZ
  Basis Set:
  @DF-RHF Final Energy:  -344.71611664012408
    Total Energy =                       -344.7161166401237438
    Molecular point group: c1
  Basis Set: CC-PVTZ
  Basis Set:
  Basis Set: CC-PVTZ
  Basis Set:
  @DF-RHF Final Energy:  -344.71660469762475
    Total Energy =                       -344.7166046976245752
  Basis Set: CC-PVTZ
  Basis Set:
  Basis Set: CC-PVTZ
  Basis Set:
  @DF-RHF Final Energy:  -344.71665016162774
    Total Energy =                       -344.7166501616278538
  Basis Set: CC-PVTZ
  Basis Set:
  Basis Set: CC-PVTZ
  Basis Set:
  @DF-RHF Final Energy:  -344.71665516019300
    Total Energy =                       -344.7166551601931133
  Basis Set: CC-PVTZ
  Basis Set:
  @DF-RHF Final Energy:  -344.71665680288419
    Total Energy =                       -344.7166568028840175
  @DF-RHF Final Energy:  -344.71665831888293
    Total Energy =                       -344.7166583188828781
  @DF-RHF Final Energy:  -344.71665966305801
    Total Energy =                       -344.7166596630579534
  @DF-RHF Final Energy:  -344.71646843044152
    Total Energy =                       -344.7164684304415800
  @DF-RHF Final Energy:  -344.71666456710602
    Total Energy =                       -344.7166645671060223
  @DF-RHF Final Energy:  -344.71667547912364
    Total Energy =                       -344.7166754791234098
  @DF-RHF Final Energy:  -344.71657049988602
    Total Energy =                       -344.7165704998857336
  @DF-RHF Final Energy:  -344.71668968522624
    Total Energy =                       -344.7166896852262425
  Basis Set: CC-PVTZ
  Basis Set:
  @DF-RHF Final Energy:  -344.71669258007086
    Total Energy =                       -344.7166925800709123
  Basis Set: CC-PVTZ
  Basis Set:
  Basis Set: CC-PVTZ
  Basis Set:
  @DF-RHF Final Energy:  -344.71668205516914
    Total Energy =                       -344.7166820551691444
  Basis Set: CC-PVTZ
  Basis Set:
  Basis Set: CC-PVTZ
  Basis Set:
  @DF-RHF Final Energy:  -344.71669719262394
    Total Energy =                       -344.7166971926239967
  Basis Set: CC-PVTZ
  Basis Set:
  Charge       = 0
  Multiplicity = 1
  Basis Set: CC-PVTZ
  Basis Set:

    Orbital Energies (a.u.)
    -----------------------

    Doubly Occupied:

       1A    -20.570275     2A    -11.287431     3A    -11.240189
       4A    -11.231307     5A    -11.220330     6A    -11.220204
       7A    -11.218673     8A    -11.217358     9A     -1.397421
      10A     -1.154936    11A     -1.046762    12A     -1.007707
      13A     -0.938906    14A     -0.829667    15A     -0.814200
      16A     -0.719516    17A     -0.680348    18A     -0.659926
      19A     -0.621977    20A     -0.593413    21A     -0.577361
      22A     -0.570896    23A     -0.553258    24A     -0.514444
      25A     -0.507487    26A     -0.485256    27A     -0.467586
      28A     -0.332771    29A     -0.322611

  @DF-RHF Final Energy:  -344.71669802237557

   => Energetics <=

    Nuclear Repulsion Energy =            345.8856434988300634
    One-Electron Energy =               -1153.2002569107817180
    Two-Electron Energy =                 462.5979153895760874
    DFT Exchange-Correlation Energy =       0.0000000000000000
    Empirical Dispersion Energy =           0.0000000000000000
    PCM Polarization Energy =               0.0000000000000000
    EFP Energy =                            0.0000000000000000
    Total Energy =                       -344.7166980223755672
    Molecular point group: c1
  Basis Set: CC-PVTZ
  Basis Set:

  -Total Gradient:
     Atom            X                  Y                   Z
    ------   -----------------  -----------------  -----------------
       1       -0.000010780967    -0.000082410647    -0.001620888464
       2       -0.000364549735     0.000482372310     0.001782256706
       3        0.001104946430    -0.001196789527     0.000309342622
       4       -0.000015094588    -0.000065865983    -0.000005106132
       5       -0.000725728247     0.000868926486    -0.000488573760
       6        0.000017339003     0.000001004178     0.000002279670
       7       -0.000048068137     0.000092644420    -0.000066854569
       8        0.000006022799    -0.000020600817     0.000017701692
       9        0.000022689050    -0.000079257727     0.000026214998
      10        0.000015158539    -0.000007255955     0.000009670177
      11        0.000012613674    -0.000014202523     0.000037191682
      12        0.000001333645    -0.000012822396     0.000011726888
      13        0.000014918275    -0.000014593070     0.000014915413
      14       -0.000002436105     0.000025935455    -0.000000606609
      15       -0.000020261217     0.000009246744    -0.000029129263
      16       -0.000008102418     0.000013669054    -0.000000141050

  **** Optimization is complete! (in 16 steps) ****
    Final optimized geometry and variables:
    Molecular point group: c1

    Geometry (in Angstrom), charge = 0, multiplicity = 1:

    H           -2.839628653202    -1.017581528866     0.418569342180
    O           -2.022017815580    -1.482749383761     0.436235033950
    C           -0.973534416700    -0.608606183520     0.378105037084
    C           -0.668302473571     0.195704919519     1.461159509641
    C           -0.207730920392    -0.559792767965    -0.766837812144
    H           -1.265018534708     0.139068429852     2.351102225134
    C            0.410479554722     1.050503800704     1.376912563755
    H           -0.470996801432    -1.198859164438    -1.588296969182
    C            0.886109333864     0.290473346783    -0.851813562526
    H            0.654597215137     1.680479842687     2.211230888285
    C            1.184454534032     1.099447940538     0.231229572274
    C            1.731741731116     0.314055602975    -2.100302174480
    H            2.022924191149     1.768135237869     0.184151246230
    H            2.383822233228     1.176986132257    -2.115856905382
    H            1.114325022812     0.341990870422    -2.989891298795
    H            2.352441356162    -0.573339594794    -2.161113067430

  Mulliken Charges: (a.u.)
   Center  Symbol    Alpha    Beta     Spin     Total
       1     H     0.38765  0.38765  0.00000  0.22471
       2     O     4.19112  4.19112  0.00000 -0.38224
       3     C     2.85731  2.85731  0.00000  0.28539
       4     C     3.13019  3.13019  0.00000 -0.26038
       5     C     3.13435  3.13435  0.00000 -0.26869
       6     H     0.41980  0.41980  0.00000  0.16039
       7     C     3.05939  3.05939  0.00000 -0.11878
       8     H     0.41999  0.41999  0.00000  0.16002
       9     C     2.94512  2.94512  0.00000  0.10977
      10     H     0.42252  0.42252  0.00000  0.15496
      11     C     3.11401  3.11401  0.00000 -0.22802
      12     C     3.14658  3.14658  0.00000 -0.29317
      13     H     0.42624  0.42624  0.00000  0.14753
      14     H     0.45066  0.45066  0.00000  0.09868
      15     H     0.44861  0.44861  0.00000  0.10278
      16     H     0.44647  0.44647  0.00000  0.10706

   Total alpha = 29.00000, Total beta = 29.00000, Total charge = -0.00000

*** Psi4 exiting successfully. Buy a developer a beer!
