  ==> Input File <==

--------------------------------------------------------------------------
set {
	reference rhf
	basis 6-31G*
}

set_num_threads( 1 )
memory 2 gb

molecule MOL {
0 1

H	 1.107218	 1.794954	 1.456924
O	 1.349666	 0.923115	 1.175909
C	 0.709265	 0.639550	 -0.033818
C	 -0.793441	 0.596080	 0.058728
H	 1.082443	 -0.326475	 -0.354344
H	 0.999171	 1.355424	 -0.802261
C	 -1.530462	 -0.493172	 -0.025500
H	 -1.268471	 1.554324	 0.202247
H	 -1.092586	 -1.461565	 -0.186463
H	 -2.602122	 -0.450675	 0.050101

	symmetry c1
}
set optking {
	frozen_dihedral = ("
		5 3 2 1,
		3 4 7 9
	")
}

ee = energy('scf')
oeprop('DIPOLE', 'QUADRUPOLE', 'MULLIKEN_CHARGES')
f=open( 'psi4out.xyz', 'w' )
f.write( "10  " )
f.write( str(ee) + "\n" )
f.write( MOL.save_string_xyz() )
f.close()
--------------------------------------------------------------------------

    Molecular point group: c1

    Geometry (in Angstrom), charge = 0, multiplicity = 1:

       Center              X                  Y                   Z               Mass
    ------------   -----------------  -----------------  -----------------  -----------------
           H          1.099914562832     1.344246133857     1.126635618062     1.007825032070
           O          1.342362562832     0.472407133857     0.845620618062    15.994914619560
           C          0.701961562832     0.188842133857    -0.364106381938    12.000000000000
           C         -0.800744437168     0.145372133857    -0.271560381938    12.000000000000
           H          1.075139562832    -0.777182866143    -0.684632381938     1.007825032070
           H          0.991867562832     0.904716133857    -1.132549381938     1.007825032070
           C         -1.537765437168    -0.943879866143    -0.355788381938    12.000000000000
           H         -1.275774437168     1.103616133857    -0.128041381938     1.007825032070
           H         -1.099889437168    -1.912272866143    -0.516751381938     1.007825032070
           H         -2.609425437168    -0.901382866143    -0.280187381938     1.007825032070

  Charge       = 0
  Multiplicity = 1
  Basis Set: 6-31G*
  Basis Set:

    Orbital Energies (a.u.)
    -----------------------

    Doubly Occupied:

       1A    -20.558122     2A    -11.275309     3A    -11.230997
       4A    -11.226381     5A     -1.366646     6A     -1.062259
       7A     -0.920673     8A     -0.780496     9A     -0.685836
      10A     -0.656170    11A     -0.616463    12A     -0.570834
      13A     -0.545066    14A     -0.484703    15A     -0.439993
      16A     -0.373232

  @DF-RHF Final Energy:  -191.91419548209095

   => Energetics <=

    Nuclear Repulsion Energy =            117.4259342777770883
    One-Electron Energy =                -493.0938886143576951
    Two-Electron Energy =                 183.7537588544892628
    DFT Exchange-Correlation Energy =       0.0000000000000000
    Empirical Dispersion Energy =           0.0000000000000000
    PCM Polarization Energy =               0.0000000000000000
    EFP Energy =                            0.0000000000000000
    Total Energy =                       -191.9141954820913156

  Mulliken Charges: (a.u.)
   Center  Symbol    Alpha    Beta     Spin     Total
       1     H     0.28299  0.28299  0.00000  0.43402
       2     O     4.36185  4.36185  0.00000 -0.72370
       3     C     3.01198  3.01198  0.00000 -0.02395
       4     C     3.07886  3.07886  0.00000 -0.15772
       5     H     0.41196  0.41196  0.00000  0.17608
       6     H     0.42763  0.42763  0.00000  0.14474
       7     C     3.19148  3.19148  0.00000 -0.38295
       8     H     0.41399  0.41399  0.00000  0.17203
       9     H     0.40968  0.40968  0.00000  0.18064
      10     H     0.40959  0.40959  0.00000  0.18082

   Total alpha = 16.00000, Total beta = 16.00000, Total charge =  0.00000
