  ==> Input File <==

--------------------------------------------------------------------------
set {
	reference rhf
	basis 6-31G*
}

set_num_threads( 4 )
memory 2 gb

molecule MOL {
0 1

H	 -1.743970	 1.149322	 -2.348589
O	 -2.022793	 1.770622	 -1.689729
C	 -1.032080	 1.869976	 -0.708618
C	 -0.793441	 0.596080	 0.058728
H	 -1.356974	 2.649243	 -0.028625
H	 -0.091077	 2.207639	 -1.141657
C	 -1.530462	 -0.493172	 -0.025500
H	 0.056793	 0.617349	 0.722906
H	 -1.092586	 -1.461565	 -0.186463
H	 -2.602122	 -0.450675	 0.050101

	symmetry c1
}
set optking {
	frozen_dihedral = ("
		3 4 7 9
	")
}

ee = optimize('scf')
oeprop('DIPOLE', 'QUADRUPOLE', 'MULLIKEN_CHARGES')
f=open( 'psi4out.xyz', 'w' )
f.write( "10  " )
f.write( str(ee) + "\n" )
f.write( MOL.save_string_xyz() )
f.close()
--------------------------------------------------------------------------

    Molecular point group: c1
  Charge       = 0
  Multiplicity = 1
  Basis Set: 6-31G*
  Basis Set:
  @DF-RHF Final Energy:  -191.86025590557250
    Total Energy =                       -191.8602559055726147
    Molecular point group: c1
  Basis Set: 6-31G*
  Basis Set:
  Basis Set: 6-31G*
  Basis Set:
  @DF-RHF Final Energy:  -191.88113127047819
    Total Energy =                       -191.8811312704781926
  Basis Set: 6-31G*
  Basis Set:
  Basis Set: 6-31G*
  Basis Set:
  @DF-RHF Final Energy:  -191.89254895599689
    Total Energy =                       -191.8925489559969719
  Basis Set: 6-31G*
  Basis Set:
  Basis Set: 6-31G*
  Basis Set:
  @DF-RHF Final Energy:  -191.89342723257724
    Total Energy =                       -191.8934272325772383
  Basis Set: 6-31G*
  Basis Set:
  Basis Set: 6-31G*
  Basis Set:
  @DF-RHF Final Energy:  -191.89352320374542
    Total Energy =                       -191.8935232037454170
  Basis Set: 6-31G*
  Basis Set:
  Basis Set: 6-31G*
  Basis Set:
  @DF-RHF Final Energy:  -191.89353532784730
    Total Energy =                       -191.8935353278473031
  Basis Set: 6-31G*
  Basis Set:
  Basis Set: 6-31G*
  Basis Set:
  @DF-RHF Final Energy:  -191.89353908908814
    Total Energy =                       -191.8935390890880228
  Basis Set: 6-31G*
  Basis Set:
  Charge       = 0
  Multiplicity = 1
  Basis Set: 6-31G*
  Basis Set:

    Orbital Energies (a.u.)
    -----------------------

    Doubly Occupied:

       1A    -20.562259     2A    -11.284569     3A    -11.238469
       4A    -11.222657     5A     -1.372221     6A     -1.061176
       7A     -0.932832     8A     -0.771820     9A     -0.691941
      10A     -0.657966    11A     -0.618939    12A     -0.577304
      13A     -0.531324    14A     -0.499605    15A     -0.448444
      16A     -0.356859

  @DF-RHF Final Energy:  -191.89353944315653

   => Energetics <=

    Nuclear Repulsion Energy =            119.1480538489641106
    One-Electron Energy =                -496.4264178763285145
    Two-Electron Energy =                 185.3848245842077915
    DFT Exchange-Correlation Energy =       0.0000000000000000
    Empirical Dispersion Energy =           0.0000000000000000
    PCM Polarization Energy =               0.0000000000000000
    EFP Energy =                            0.0000000000000000
    Total Energy =                       -191.8935394431566408
    Molecular point group: c1
  Basis Set: 6-31G*
  Basis Set:

  -Total Gradient:
     Atom            X                  Y                   Z
    ------   -----------------  -----------------  -----------------
       1       -0.000006760456    -0.000007396594    -0.000007591586
       2        0.000015605311    -0.000025853215     0.000011411385
       3        0.017257217011    -0.007358099012    -0.013347131572
       4       -0.027231363489     0.013261866897     0.008510598453
       5       -0.000003615478    -0.000005081590     0.000008177868
       6        0.000002091213     0.000004346854    -0.000012738321
       7        0.006209359170    -0.008293782442     0.035546652644
       8       -0.000136010707     0.000120678069     0.000210994465
       9        0.003842642947     0.002243315566    -0.030849793906
      10        0.000050834480     0.000060005470    -0.000070579429

  **** Optimization is complete! (in 8 steps) ****
    Final optimized geometry and variables:
    Molecular point group: c1

    Geometry (in Angstrom), charge = 0, multiplicity = 1:

    H           -0.591246807674     0.104768335009    -1.565692154594
    O           -0.692460672123     0.849285246822    -0.988299658783
    C            0.370227816905     0.874956746807    -0.086031478783
    C            0.508816778932    -0.359596237708     0.770885038218
    H            0.244439954761     1.777851699000     0.500573958447
    H            1.324334731727     0.966701182260    -0.602860453986
    C           -0.107617360910    -1.519281641519     0.608629456979
    H            1.451930332500    -0.369018981354     1.301751883047
    H            0.404801426267    -2.465325143974     0.602812444935
    H           -1.029658192871    -1.540233333474     0.047166416723

  Mulliken Charges: (a.u.)
   Center  Symbol    Alpha    Beta     Spin     Total
       1     H     0.28081  0.28081  0.00000  0.43837
       2     O     4.36479  4.36479  0.00000 -0.72958
       3     C     3.00224  3.00224  0.00000 -0.00448
       4     C     3.08132  3.08132  0.00000 -0.16263
       5     H     0.40944  0.40944  0.00000  0.18113
       6     H     0.42102  0.42102  0.00000  0.15796
       7     C     3.20150  3.20150  0.00000 -0.40300
       8     H     0.41531  0.41531  0.00000  0.16938
       9     H     0.40690  0.40690  0.00000  0.18620
      10     H     0.41667  0.41667  0.00000  0.16666

   Total alpha = 16.00000, Total beta = 16.00000, Total charge = -0.00000
