                              Psi4 1.0.54 Driver

  ==> Input File <==

--------------------------------------------------------------------------
set {
	reference rhf
	basis cc-pvtz
}

set_num_threads( 4 )
memory 2 gb

molecule MOL {
0 1

O	 -1.067916	 -1.025809	 -2.089864
C	 -0.410960	 -1.085412	 -1.106653
C	 0.840844	 -1.910768	 -0.946543
O	 -0.695554	 -0.422406	 0.000602
C	 1.212509	 -2.693948	 -2.195329
H	 0.684832	 -2.569311	 -0.099235
H	 1.636033	 -1.234235	 -0.653432
H	 0.423451	 -3.379271	 -2.474504
H	 2.116100	 -3.265261	 -2.020763
H	 1.383298	 -2.032066	 -3.033762
C	 -1.852370	 0.402254	 0.000718
C	 -3.063338	 -0.501097	 -0.000437
H	 -1.831732	 1.039442	 -0.872158
H	 -1.832493	 1.038301	 0.874430
H	 -3.071944	 -1.133732	 -0.879113
H	 -3.966302	 0.097976	 -0.000483
H	 -3.072764	 -1.134834	 0.877435

	symmetry c1
}
set optking {
	frozen_dihedral = ("
		2 4 11 13
	")
}

ee,wfn = optimize('scf', return_wfn=True)
oeprop( wfn, 'DIPOLE', 'QUADRUPOLE', 'MULLIKEN_CHARGES')
f=open( 'psi4out.xyz', 'w' )
f.write( "17  " )
f.write( str(ee) + "\n" )
f.write( MOL.save_string_xyz() )
f.close()
--------------------------------------------------------------------------

    Molecular point group: c1
  Charge       = 0
  Multiplicity = 1
  Basis Set: CC-PVTZ
  Basis Set:
  @DF-RHF Final Energy:  -345.03594974462931
    Total Energy =                       -345.0359497446293631
    Molecular point group: c1
  Basis Set: CC-PVTZ
  Basis Set:
  Basis Set: CC-PVTZ
  Basis Set:
  @DF-RHF Final Energy:  -345.03875355300573
    Total Energy =                       -345.0387535530057335
  Basis Set: CC-PVTZ
  Basis Set:
  Basis Set: CC-PVTZ
  Basis Set:
  @DF-RHF Final Energy:  -345.03873050472873
    Total Energy =                       -345.0387305047289033
  Basis Set: CC-PVTZ
  Basis Set:
  Basis Set: CC-PVTZ
  Basis Set:
  @DF-RHF Final Energy:  -345.03138912778149
    Total Energy =                       -345.0313891277816083
  Basis Set: CC-PVTZ
  Basis Set:
  @DF-RHF Final Energy:  -345.03844869502393
    Total Energy =                       -345.0384486950238170
  Basis Set: CC-PVTZ
  Basis Set:
  @DF-RHF Final Energy:  -345.03917707928861
    Total Energy =                       -345.0391770792883221
  Basis Set: CC-PVTZ
  Basis Set:
  Basis Set: CC-PVTZ
  Basis Set:
  @DF-RHF Final Energy:  -345.03919286263823
    Total Energy =                       -345.0391928626380604
  Basis Set: CC-PVTZ
  Basis Set:
  Basis Set: CC-PVTZ
  Basis Set:
  @DF-RHF Final Energy:  -345.03919420236861
    Total Energy =                       -345.0391942023688898
  Basis Set: CC-PVTZ
  Basis Set:
  Charge       = 0
  Multiplicity = 1
  Basis Set: CC-PVTZ
  Basis Set:

    Orbital Energies (a.u.)
    -----------------------

    Doubly Occupied:

       1A    -20.592875     2A    -20.532789     3A    -11.364258
       4A    -11.283347     5A    -11.235610     6A    -11.215441
       7A    -11.213763     8A     -1.469414     9A     -1.364882
      10A     -1.069590    11A     -1.028687    12A     -0.917406
      13A     -0.855150    14A     -0.758327    15A     -0.704343
      16A     -0.683336    17A     -0.663099    18A     -0.621443
      19A     -0.612388    20A     -0.569840    21A     -0.547582
      22A     -0.533741    23A     -0.521745    24A     -0.516852
      25A     -0.497259    26A     -0.491081    27A     -0.454351
      28A     -0.438021

  @DF-RHF Final Energy:  -345.03919439170170

   => Energetics <=

    Nuclear Repulsion Energy =            319.4814505625678294
    One-Electron Energy =               -1103.5280474585356387
    Two-Electron Energy =                 439.0074025042662811
    DFT Exchange-Correlation Energy =       0.0000000000000000
    Empirical Dispersion Energy =           0.0000000000000000
    PCM Polarization Energy =               0.0000000000000000
    EFP Energy =                            0.0000000000000000
    Total Energy =                       -345.0391943917015283
    Molecular point group: c1
  Basis Set: CC-PVTZ
  Basis Set:

  -Total Gradient:
     Atom            X                  Y                   Z
    ------   -----------------  -----------------  -----------------
       1        0.000000275037     0.000002071716    -0.000000862950
       2       -0.000889114752    -0.001673160869     0.000173212811
       3       -0.000031580783    -0.000045781720    -0.000003271135
       4        0.001455204640     0.002791952685     0.000117984694
       5        0.000007872562     0.000018283125     0.000005922286
       6        0.000014445467     0.000009150884     0.000006402205
       7        0.000012054565     0.000019010538     0.000000569710
       8       -0.000006020153    -0.000008706736    -0.000005346829
       9       -0.000007321318     0.000000701995     0.000003046849
      10       -0.000003205862    -0.000001598362     0.000001700224
      11       -0.001220997030    -0.002511906362    -0.001843086044
      12       -0.000015310625     0.000003553109    -0.000005430006
      13        0.000654621008     0.001402956415     0.001540799531
      14       -0.000003615862    -0.000001086050     0.000003133402
      15        0.000003279103     0.000000474855     0.000007520425
      16        0.000029809294    -0.000009458712     0.000001982177
      17       -0.000000395298     0.000003543491    -0.000004277351

  **** Optimization is complete! (in 9 steps) ****
    Final optimized geometry and variables:
    Molecular point group: c1

    Geometry (in Angstrom), charge = 0, multiplicity = 1:

    O           -0.077904629727     0.200584135283    -1.241666728888
    C            0.376041241651     0.015162478427    -0.163667722566
    C            1.669429392014    -0.707241429740     0.118792665621
    O           -0.192736353825     0.431616106471     0.954252120645
    C            2.382863855384    -1.184144169588    -1.135995874224
    H            1.435796957688    -1.535455762681     0.778783050826
    H            2.293324015079    -0.034856475556     0.697009794370
    H            1.763265368110    -1.867980197010    -1.700521336019
    H            3.301013187313    -1.693905453833    -0.870516566582
    H            2.628420331445    -0.353470335207    -1.784027892983
    C           -1.451159979624     1.090990724908     0.882171488571
    C           -2.598426915462     0.138428367850     0.616002392399
    H           -1.399033172354     1.875108423468     0.141238843766
    H           -1.562231546128     1.551144891905     1.852810359159
    H           -2.516851440039    -0.313221444681    -0.361579117008
    H           -3.534159090650     0.683861282952     0.664221828999
    H           -2.623958517856    -0.643316787392     1.365987575830

  Mulliken Charges: (a.u.)
   Center  Symbol    Alpha    Beta     Spin     Total
       1     O     4.19922  4.19922  0.00000 -0.39844
       2     C     2.80187  2.80187  0.00000  0.39627
       3     C     3.09376  3.09376  0.00000 -0.18751
       4     O     4.15628  4.15628  0.00000 -0.31257
       5     C     3.13982  3.13982  0.00000 -0.27965
       6     H     0.44240  0.44240  0.00000  0.11520
       7     H     0.44110  0.44110  0.00000  0.11779
       8     H     0.44864  0.44864  0.00000  0.10271
       9     H     0.45053  0.45053  0.00000  0.09893
      10     H     0.44856  0.44856  0.00000  0.10288
      11     C     2.98708  2.98708  0.00000  0.02585
      12     C     3.15236  3.15236  0.00000 -0.30472
      13     H     0.45122  0.45122  0.00000  0.09757
      14     H     0.44483  0.44483  0.00000  0.11034
      15     H     0.43897  0.43897  0.00000  0.12205
      16     H     0.45068  0.45068  0.00000  0.09864
      17     H     0.45267  0.45267  0.00000  0.09465

   Total alpha = 28.00000, Total beta = 28.00000, Total charge = -0.00000

*** Psi4 exiting successfully. Buy a developer a beer!
