                              Psi4 1.0.54 Driver

  ==> Input File <==

--------------------------------------------------------------------------
set {
	reference rhf
	basis cc-pvtz
}

set_num_threads( 4 )
memory 2 gb

molecule MOL {
0 1

H	 -0.916492	 -1.948979	 -1.409865
C	 -0.930169	 -0.924339	 -1.767033
O	 -0.775228	 0.000056	 -0.739966
H	 -1.897017	 -0.736374	 -2.212033
H	 -0.176207	 -0.817095	 -2.540126
C	 0.406133	 -0.000384	 0.036994
C	 1.526415	 -0.003194	 -0.997339
C	 0.498772	 1.259027	 0.900673
C	 0.495883	 -1.257378	 0.904465
H	 1.452279	 0.872071	 -1.630204
H	 1.451276	 -0.881020	 -1.626529
H	 2.497919	 -0.002741	 -0.517601
H	 0.368981	 2.144239	 0.289753
H	 1.470064	 1.313479	 1.377660
H	 -0.248448	 1.271586	 1.684297
H	 0.363971	 -2.144195	 0.296316
H	 1.467114	 -1.312636	 1.381470
H	 -0.251246	 -1.265768	 1.688235

	symmetry c1
}
set optking {
	frozen_dihedral = ("
		2 3 6 7
	")
}

ee,wfn = optimize('scf', return_wfn=True)
oeprop( wfn, 'DIPOLE', 'QUADRUPOLE', 'MULLIKEN_CHARGES')
f=open( 'psi4out.xyz', 'w' )
f.write( "18  " )
f.write( str(ee) + "\n" )
f.write( MOL.save_string_xyz() )
f.close()
--------------------------------------------------------------------------

    Molecular point group: c1
  Charge       = 0
  Multiplicity = 1
  Basis Set: CC-PVTZ
  Basis Set:
  @DF-RHF Final Energy:  -271.26707044503650
    Total Energy =                       -271.2670704450360972
    Molecular point group: c1
  Basis Set: CC-PVTZ
  Basis Set:
  Basis Set: CC-PVTZ
  Basis Set:
  @DF-RHF Final Energy:  -271.17661504055559
    Total Energy =                       -271.1766150405555322
  Basis Set: CC-PVTZ
  Basis Set:
  Basis Set: CC-PVTZ
  Basis Set:
  @DF-RHF Final Energy:  -271.25835654811601
    Total Energy =                       -271.2583565481161259
  Basis Set: CC-PVTZ
  Basis Set:
  Basis Set: CC-PVTZ
  Basis Set:
  @DF-RHF Final Energy:  -271.27514270188209
    Total Energy =                       -271.2751427018822596
  Basis Set: CC-PVTZ
  Basis Set:
  @DF-RHF Final Energy:  -271.27488851657944
    Total Energy =                       -271.2748885165794377
  @DF-RHF Final Energy:  -271.27655709229782
    Total Energy =                       -271.2765570922979919
  Basis Set: CC-PVTZ
  Basis Set:
  @DF-RHF Final Energy:  -271.27657180581031
    Total Energy =                       -271.2765718058103630
  Basis Set: CC-PVTZ
  Basis Set:
  Basis Set: CC-PVTZ
  Basis Set:
  @DF-RHF Final Energy:  -271.27661484322579
    Total Energy =                       -271.2766148432260138
  Basis Set: CC-PVTZ
  Basis Set:
  Basis Set: CC-PVTZ
  Basis Set:
  @DF-RHF Final Energy:  -271.27661811667451
    Total Energy =                       -271.2766181166745127
  Basis Set: CC-PVTZ
  Basis Set:
  Charge       = 0
  Multiplicity = 1
  Basis Set: CC-PVTZ
  Basis Set:

    Orbital Energies (a.u.)
    -----------------------

    Doubly Occupied:

       1A    -20.540428     2A    -11.280144     3A    -11.258359
       4A    -11.208562     5A    -11.205653     6A    -11.201916
       7A     -1.373503     8A     -1.074680     9A     -0.947836
      10A     -0.939812    11A     -0.913195    12A     -0.753424
      13A     -0.656892    14A     -0.646942    15A     -0.639735
      16A     -0.592697    17A     -0.575376    18A     -0.553206
      19A     -0.534501    20A     -0.525462    21A     -0.515218
      22A     -0.489829    23A     -0.487498    24A     -0.441357
      25A     -0.406535

  @DF-RHF Final Energy:  -271.27661823547629

   => Energetics <=

    Nuclear Repulsion Energy =            272.7099739180777647
    One-Electron Energy =                -908.4476688929273678
    Two-Electron Energy =                 364.4610767393733681
    DFT Exchange-Correlation Energy =       0.0000000000000000
    Empirical Dispersion Energy =           0.0000000000000000
    PCM Polarization Energy =               0.0000000000000000
    EFP Energy =                            0.0000000000000000
    Total Energy =                       -271.2766182354761781
    Molecular point group: c1
  Basis Set: CC-PVTZ
  Basis Set:

  -Total Gradient:
     Atom            X                  Y                   Z
    ------   -----------------  -----------------  -----------------
       1        0.000022087431    -0.000085408268     0.000068974164
       2        0.000424941388     0.000689891352    -0.000182315165
       3       -0.000788651461    -0.001165123366     0.000053240607
       4        0.000000157522     0.000006126751    -0.000023409278
       5        0.000030409589    -0.000002232443     0.000058042330
       6        0.000363543104     0.001156011803     0.000170576231
       7       -0.000072442602    -0.000552628656    -0.000163789077
       8        0.000031182061    -0.000076800164     0.000025036176
       9       -0.000001528488     0.000044389017     0.000124633015
      10        0.000019262559     0.000060690261    -0.000000852368
      11       -0.000045154950    -0.000022592454    -0.000046435177
      12        0.000008009994    -0.000024880936    -0.000004945554
      13        0.000019648340    -0.000017961868    -0.000042498051
      14       -0.000025771163    -0.000005270925     0.000027359479
      15        0.000014782347     0.000015134732    -0.000013831248
      16        0.000002364524     0.000015117747    -0.000064066768
      17       -0.000004873120    -0.000014618267    -0.000001925883
      18        0.000002032924    -0.000019844315     0.000016206564

  **** Optimization is complete! (in 10 steps) ****
    Final optimized geometry and variables:
    Molecular point group: c1

    Geometry (in Angstrom), charge = 0, multiplicity = 1:

    H           -0.821343425933    -0.911924485223    -2.006234207561
    C           -0.743113771557     0.162415038591    -1.869985141349
    O           -0.762670861750     0.535741774849    -0.530713947921
    H           -1.602328014948     0.623599945894    -2.336112540902
    H            0.148269124066     0.511031470796    -2.380977310990
    C            0.158879640329    -0.040919134547     0.374290496952
    C            1.593070671349     0.029245718364    -0.152082757822
    C            0.024272050425     0.804905127039     1.635265896173
    C           -0.232273103019    -1.489681379101     0.673762799713
    H            1.848032811881     1.045145898274    -0.430255053795
    H            1.742140586297    -0.609579737491    -1.013709003555
    H            2.283849980537    -0.294393005081     0.616940147315
    H            0.301315579209     1.831187962953     1.429507910582
    H            0.659771148892     0.426026688132     2.426947225017
    H           -1.001465566712     0.795830312136     1.981124022853
    H           -0.145232353869    -2.120188057195    -0.202538955720
    H            0.411494731234    -1.905837578244     1.439866696488
    H           -1.255775521886    -1.534851313586     1.024850682831

  Mulliken Charges: (a.u.)
   Center  Symbol    Alpha    Beta     Spin     Total
       1     H     0.47034  0.47034  0.00000  0.05932
       2     C     3.04446  3.04446  0.00000 -0.08892
       3     O     4.19086  4.19086  0.00000 -0.38172
       4     H     0.44117  0.44117  0.00000  0.11766
       5     H     0.46764  0.46764  0.00000  0.06473
       6     C     2.87402  2.87402  0.00000  0.25196
       7     C     3.16920  3.16920  0.00000 -0.33841
       8     C     3.14144  3.14144  0.00000 -0.28288
       9     C     3.15772  3.15772  0.00000 -0.31545
      10     H     0.44486  0.44486  0.00000  0.11028
      11     H     0.44792  0.44792  0.00000  0.10417
      12     H     0.44634  0.44634  0.00000  0.10732
      13     H     0.44989  0.44989  0.00000  0.10021
      14     H     0.45927  0.45927  0.00000  0.08146
      15     H     0.44794  0.44794  0.00000  0.10412
      16     H     0.44959  0.44959  0.00000  0.10082
      17     H     0.45065  0.45065  0.00000  0.09871
      18     H     0.44670  0.44670  0.00000  0.10660

   Total alpha = 25.00000, Total beta = 25.00000, Total charge = -0.00000

*** Psi4 exiting successfully. Buy a developer a beer!
