                              Psi4 1.0.54 Driver

  ==> Input File <==

--------------------------------------------------------------------------
set {
	reference rhf
	basis cc-pvtz
}

set_num_threads( 4 )
memory 2 gb

molecule MOL {
0 1

H	 1.205842	 -2.312386	 0.000119
C	 0.235830	 -1.844509	 -0.000118
O	 0.462329	 -0.453336	 -0.000137
H	 -0.307105	 -2.151109	 0.885002
H	 -0.306723	 -2.151204	 -0.885449
C	 -0.590565	 0.341382	 0.000062
O	 -1.693898	 -0.053880	 0.000252
H	 -0.340426	 1.403822	 0.000200

	symmetry c1
}
set optking {
	frozen_dihedral = ("
		2 3 6 7
	")
}

ee,wfn = optimize('scf', return_wfn=True)
oeprop( wfn, 'DIPOLE', 'QUADRUPOLE', 'MULLIKEN_CHARGES')
f=open( 'psi4out.xyz', 'w' )
f.write( "8  " )
f.write( str(ee) + "\n" )
f.write( MOL.save_string_xyz() )
f.close()
--------------------------------------------------------------------------

    Molecular point group: c1
  Charge       = 0
  Multiplicity = 1
  Basis Set: CC-PVTZ
  Basis Set:
  @DF-RHF Final Energy:  -227.87763272251055
    Total Energy =                       -227.8776327225105547
    Molecular point group: c1
  Basis Set: CC-PVTZ
  Basis Set:
  Basis Set: CC-PVTZ
  Basis Set:
  @DF-RHF Final Energy:  -227.87855974099972
    Total Energy =                       -227.8785597409998331
  Basis Set: CC-PVTZ
  Basis Set:
  Basis Set: CC-PVTZ
  Basis Set:
  @DF-RHF Final Energy:  -227.87877448643164
    Total Energy =                       -227.8787744864315812
  Basis Set: CC-PVTZ
  Basis Set:
  Basis Set: CC-PVTZ
  Basis Set:
  @DF-RHF Final Energy:  -227.87874943737299
    Total Energy =                       -227.8787494373729032
  Basis Set: CC-PVTZ
  Basis Set:
  Basis Set: CC-PVTZ
  Basis Set:
  @DF-RHF Final Energy:  -227.87877905282213
    Total Energy =                       -227.8787790528221251
  Basis Set: CC-PVTZ
  Basis Set:
  Charge       = 0
  Multiplicity = 1
  Basis Set: CC-PVTZ
  Basis Set:

    Orbital Energies (a.u.)
    -----------------------

    Doubly Occupied:

       1A    -20.610056     2A    -20.548430     3A    -11.372409
       4A    -11.287085     5A     -1.482875     6A     -1.380009
       7A     -0.999228     8A     -0.819462     9A     -0.748472
      10A     -0.685077    11A     -0.684631    12A     -0.602032
      13A     -0.560469    14A     -0.535550    15A     -0.469685
      16A     -0.462589

  @DF-RHF Final Energy:  -227.87877957608148

   => Energetics <=

    Nuclear Repulsion Energy =            124.0493917182428447
    One-Electron Energy =                -557.3602239085553265
    Two-Electron Energy =                 205.4320526142309973
    DFT Exchange-Correlation Energy =       0.0000000000000000
    Empirical Dispersion Energy =           0.0000000000000000
    PCM Polarization Energy =               0.0000000000000000
    EFP Energy =                            0.0000000000000000
    Total Energy =                       -227.8787795760814561
    Molecular point group: c1
  Basis Set: CC-PVTZ
  Basis Set:

  -Total Gradient:
     Atom            X                  Y                   Z
    ------   -----------------  -----------------  -----------------
       1       -0.000010401612    -0.000004101430    -0.000000026307
       2        0.000051862293    -0.000000483239    -0.000001759651
       3       -0.000004960914    -0.000031036648    -0.000003214599
       4       -0.000009955765     0.000011344168     0.000004357677
       5       -0.000009764101     0.000010585105    -0.000003972732
       6       -0.000089627788    -0.000033255415     0.000017296576
       7        0.000077713159     0.000032355483    -0.000005911884
       8       -0.000004865270     0.000014591976    -0.000006769081

  **** Optimization is complete! (in 6 steps) ****
    Final optimized geometry and variables:
    Molecular point group: c1

    Geometry (in Angstrom), charge = 0, multiplicity = 1:

    H            1.620420064575    -1.779547337337    -0.000975711206
    C            0.643252703203    -1.326092995271    -0.000890993658
    O            0.862664272237     0.073710631489     0.000319502549
    H            0.092260195468    -1.622943433967     0.878925544047
    H            0.092775000924    -1.621504640221    -0.881513352809
    C           -0.197343322505     0.847630951718     0.000638371775
    O           -1.317393282403     0.482675721588     0.000001612494
    H            0.102057514658     1.890705812798     0.001475116685

  Mulliken Charges: (a.u.)
   Center  Symbol    Alpha    Beta     Spin     Total
       1     H     0.44433  0.44433  0.00000  0.11134
       2     C     3.02783  3.02783  0.00000 -0.05566
       3     O     4.13998  4.13998  0.00000 -0.27996
       4     H     0.45334  0.45334  0.00000  0.09331
       5     H     0.45334  0.45334  0.00000  0.09331
       6     C     2.83823  2.83823  0.00000  0.32354
       7     O     4.19479  4.19479  0.00000 -0.38958
       8     H     0.44815  0.44815  0.00000  0.10369

   Total alpha = 16.00000, Total beta = 16.00000, Total charge = -0.00000

*** Psi4 exiting successfully. Buy a developer a beer!
