  ==> Input File <==

--------------------------------------------------------------------------
set {
	reference rhf
	basis cc-pvtz
}

set_num_threads( 4 )
memory 2 gb

molecule MOL {
0 1

H	 2.552719	 0.224692	 -1.082704
O	 1.703358	 -0.187390	 -1.132799
C	 1.050374	 0.054877	 0.000135
C	 -0.318151	 -0.570512	 0.000144
O	 1.525347	 0.690405	 0.876761
C	 -1.454884	 0.441630	 -0.000560
H	 -0.371613	 -1.223646	 -0.864985
H	 -0.371920	 -1.222758	 0.865929
C	 -2.822577	 -0.232186	 0.000063
H	 -1.359760	 1.084704	 -0.867077
H	 -1.359641	 1.085996	 0.864983
H	 -2.954352	 -0.858985	 -0.875745
H	 -3.615886	 0.505352	 0.000019
H	 -2.953878	 -0.858359	 0.876394

	symmetry c1
}
set optking {
	frozen_dihedral = ("
		2 3 4 7
	")
}

ee = optimize('scf')
oeprop('DIPOLE', 'QUADRUPOLE', 'MULLIKEN_CHARGES')
f=open( 'psi4out.xyz', 'w' )
f.write( "14  " )
f.write( str(ee) + "\n" )
f.write( MOL.save_string_xyz() )
f.close()
--------------------------------------------------------------------------

    Molecular point group: c1
  Charge       = 0
  Multiplicity = 1
  Basis Set: CC-PVTZ
  Basis Set:
  @DF-RHF Final Energy:  -305.99862172938970
    Total Energy =                       -305.9986217293899244
    Molecular point group: c1
  Basis Set: CC-PVTZ
  Basis Set:
  Basis Set: CC-PVTZ
  Basis Set:
  @DF-RHF Final Energy:  -305.99921659256142
    Total Energy =                       -305.9992165925614245
  Basis Set: CC-PVTZ
  Basis Set:
  Basis Set: CC-PVTZ
  Basis Set:
  @DF-RHF Final Energy:  -305.99931347910569
    Total Energy =                       -305.9993134791056946
  Basis Set: CC-PVTZ
  Basis Set:
  Basis Set: CC-PVTZ
  Basis Set:
  @DF-RHF Final Energy:  -305.99937224051172
    Total Energy =                       -305.9993722405117182
  Basis Set: CC-PVTZ
  Basis Set:
  Basis Set: CC-PVTZ
  Basis Set:
  @DF-RHF Final Energy:  -305.99937913543272
    Total Energy =                       -305.9993791354328323
  Basis Set: CC-PVTZ
  Basis Set:
  Charge       = 0
  Multiplicity = 1
  Basis Set: CC-PVTZ
  Basis Set:

    Orbital Energies (a.u.)
    -----------------------

    Doubly Occupied:

       1A    -20.606542     2A    -20.538015     3A    -11.373335
       4A    -11.238188     5A    -11.231894     6A    -11.218226
       7A     -1.478261     8A     -1.368362     9A     -1.086333
      10A     -0.980432    11A     -0.856291    12A     -0.805213
      13A     -0.706332    14A     -0.690090    15A     -0.650927
      16A     -0.632717    17A     -0.596626    18A     -0.571800
      19A     -0.552281    20A     -0.515274    21A     -0.497709
      22A     -0.488762    23A     -0.474517    24A     -0.443545

  @DF-RHF Final Energy:  -305.99937932645349

   => Energetics <=

    Nuclear Repulsion Energy =            240.6056598421291142
    One-Electron Energy =                -894.0067341427059091
    Two-Electron Energy =                 347.4016949741231883
    DFT Exchange-Correlation Energy =       0.0000000000000000
    Empirical Dispersion Energy =           0.0000000000000000
    PCM Polarization Energy =               0.0000000000000000
    EFP Energy =                            0.0000000000000000
    Total Energy =                       -305.9993793264535498
    Molecular point group: c1
  Basis Set: CC-PVTZ
  Basis Set:

  -Total Gradient:
     Atom            X                  Y                   Z
    ------   -----------------  -----------------  -----------------
       1       -0.000012555316    -0.000000092106     0.000009115520
       2       -0.000008603626    -0.000047664962     0.000035849048
       3       -0.000017085152     0.000049465099    -0.000041675486
       4        0.000018783576    -0.000040111889     0.000043467288
       5        0.000022342826     0.000027952020     0.000024425457
       6        0.000020797530    -0.000013587508    -0.000031645257
       7       -0.000035848113     0.000030124608    -0.000050971833
       8        0.000010740527     0.000000686823    -0.000007268948
       9       -0.000003816572    -0.000008480106     0.000017510970
      10        0.000001478339    -0.000005215495     0.000005649259
      11        0.000001033341     0.000001682517    -0.000005133116
      12        0.000005377538     0.000007382413    -0.000000007209
      13       -0.000000974691     0.000003184185     0.000005519263
      14       -0.000001670203    -0.000005325598    -0.000004834956

  **** Optimization is complete! (in 6 steps) ****
    Final optimized geometry and variables:
    Molecular point group: c1

    Geometry (in Angstrom), charge = 0, multiplicity = 1:

    H            2.574225959593     0.270224765327    -0.989902990436
    O            1.745405326795    -0.178522497116    -1.069273168016
    C            1.059870741552     0.008101863187     0.052949322081
    C           -0.295335283770    -0.648357373639     0.036039551486
    O            1.489462344844     0.642064007342     0.955056196756
    C           -1.417643788109     0.394257420192     0.039727205925
    H           -0.376508661482    -1.294854618197    -0.826445184140
    H           -0.361975069590    -1.257866675622     0.929187039580
    C           -2.798643817659    -0.249334352194     0.072856417659
    H           -1.328891772554     1.019036794663    -0.843530971448
    H           -1.289246001955     1.042996560530     0.897068442023
    H           -2.957165679409    -0.886782565887    -0.790262127392
    H           -3.575671436031     0.505483687491     0.074269108790
    H           -2.925043288467    -0.857139565592     0.962233711206

  Mulliken Charges: (a.u.)
   Center  Symbol    Alpha    Beta     Spin     Total
       1     H     0.38026  0.38026  0.00000  0.23947
       2     O     4.15934  4.15934  0.00000 -0.31868
       3     C     2.80677  2.80677  0.00000  0.38647
       4     C     3.08858  3.08858  0.00000 -0.17717
       5     O     4.19957  4.19957  0.00000 -0.39915
       6     C     3.09096  3.09096  0.00000 -0.18193
       7     H     0.43983  0.43983  0.00000  0.12033
       8     H     0.44180  0.44180  0.00000  0.11640
       9     C     3.14997  3.14997  0.00000 -0.29993
      10     H     0.44979  0.44979  0.00000  0.10042
      11     H     0.44004  0.44004  0.00000  0.11992
      12     H     0.45433  0.45433  0.00000  0.09134
      13     H     0.44558  0.44558  0.00000  0.10884
      14     H     0.45317  0.45317  0.00000  0.09367

   Total alpha = 24.00000, Total beta = 24.00000, Total charge = -0.00000
