                              Psi4 1.0.54 Driver

  ==> Input File <==

--------------------------------------------------------------------------
set {
	reference rhf
	basis cc-pvtz
}

set_num_threads( 4 )
memory 2 gb

molecule MOL {
0 1

H	 3.889744	 0.356859	 -0.089508
N	 3.091408	 -0.241223	 -0.065536
C	 1.861118	 0.530241	 0.016258
H	 3.192706	 -0.835843	 0.730400
C	 0.644270	 -0.381772	 -0.031062
H	 1.835861	 1.204659	 -0.833112
H	 1.808929	 1.151968	 0.911069
C	 -0.677975	 0.376684	 0.025733
H	 0.694138	 -0.977154	 -0.936843
H	 0.693449	 -1.082149	 0.800525
C	 -1.900566	 -0.535538	 -0.022486
H	 -0.725156	 1.079509	 -0.802980
H	 -0.715334	 0.974877	 0.933280
C	 -3.220373	 0.226847	 0.028041
H	 -1.864896	 -1.134404	 -0.928234
H	 -1.857808	 -1.236388	 0.806822
H	 -3.308958	 0.911842	 -0.808723
H	 -4.066698	 -0.449492	 -0.008084
H	 -3.301545	 0.809367	 0.939862

	symmetry c1
}
ee,wfn = energy('scf', return_wfn=True)
oeprop( wfn, 'DIPOLE', 'QUADRUPOLE', 'MULLIKEN_CHARGES')
oeprop( wfn, 'GRID_ESP')
f=open( 'psi4out.xyz', 'w' )
f.write( "19  " )
f.write( str(ee) + "\n" )
f.write( MOL.save_string_xyz() )
f.close()
--------------------------------------------------------------------------

    Molecular point group: c1

    Geometry (in Angstrom), charge = 0, multiplicity = 1:

       Center              X                  Y                   Z               Mass
    ------------   -----------------  -----------------  -----------------  -----------------
           H          3.889604141875     0.356866056750    -0.089509920950     1.007825032070
           N          3.091268141875    -0.241215943250    -0.065537920950    14.003074004780
           C          1.860978141875     0.530248056750     0.016256079050    12.000000000000
           H          3.192566141875    -0.835835943250     0.730398079050     1.007825032070
           C          0.644130141875    -0.381764943250    -0.031063920950    12.000000000000
           H          1.835721141875     1.204666056750    -0.833113920950     1.007825032070
           H          1.808789141875     1.151975056750     0.911067079050     1.007825032070
           C         -0.678114858125     0.376691056750     0.025731079050    12.000000000000
           H          0.693998141875    -0.977146943250    -0.936844920950     1.007825032070
           H          0.693309141875    -1.082141943250     0.800523079050     1.007825032070
           C         -1.900705858125    -0.535530943250    -0.022487920950    12.000000000000
           H         -0.725295858125     1.079516056750    -0.802981920950     1.007825032070
           H         -0.715473858125     0.974884056750     0.933278079050     1.007825032070
           C         -3.220512858125     0.226854056750     0.028039079050    12.000000000000
           H         -1.865035858125    -1.134396943250    -0.928235920950     1.007825032070
           H         -1.857947858125    -1.236380943250     0.806820079050     1.007825032070
           H         -3.309097858125     0.911849056750    -0.808724920950     1.007825032070
           H         -4.066837858125    -0.449484943250    -0.008085920950     1.007825032070
           H         -3.301684858125     0.809374056750     0.939860079050     1.007825032070

  Charge       = 0
  Multiplicity = 1
  Basis Set: CC-PVTZ
  Basis Set:

    Orbital Energies (a.u.)
    -----------------------

    Doubly Occupied:

       1A    -15.526376     2A    -11.237923     3A    -11.211887
       4A    -11.210454     5A    -11.207663     6A    -11.205499
       7A     -1.178146     8A     -1.074278     9A     -0.999622
      10A     -0.900977    11A     -0.813346    12A     -0.789636
      13A     -0.665971    14A     -0.643428    15A     -0.617817
      16A     -0.589782    17A     -0.565534    18A     -0.549307
      19A     -0.530794    20A     -0.498789    21A     -0.480867
      22A     -0.465148    23A     -0.461457    24A     -0.451092
      25A     -0.383767

  @DF-RHF Final Energy:  -251.44814621511730

   => Energetics <=

    Nuclear Repulsion Energy =            246.0578745255618571
    One-Electron Energy =                -826.4934498066027118
    Two-Electron Energy =                 328.9874290659234930
    DFT Exchange-Correlation Energy =       0.0000000000000000
    Empirical Dispersion Energy =           0.0000000000000000
    PCM Polarization Energy =               0.0000000000000000
    EFP Energy =                            0.0000000000000000
    Total Energy =                       -251.4481462151173901

  Mulliken Charges: (a.u.)
   Center  Symbol    Alpha    Beta     Spin     Total
       1     H     0.43023  0.43023  0.00000  0.13954
       2     N     3.68916  3.68916  0.00000 -0.37832
       3     C     3.02693  3.02693  0.00000 -0.05387
       4     H     0.43099  0.43099  0.00000  0.13801
       5     C     3.08151  3.08151  0.00000 -0.16301
       6     H     0.45707  0.45707  0.00000  0.08586
       7     H     0.46857  0.46857  0.00000  0.06285
       8     C     3.09321  3.09321  0.00000 -0.18642
       9     H     0.44896  0.44896  0.00000  0.10208
      10     H     0.46031  0.46031  0.00000  0.07938
      11     C     3.08332  3.08332  0.00000 -0.16664
      12     H     0.45502  0.45502  0.00000  0.08997
      13     H     0.45672  0.45672  0.00000  0.08656
      14     C     3.14986  3.14986  0.00000 -0.29973
      15     H     0.45378  0.45378  0.00000  0.09243
      16     H     0.45496  0.45496  0.00000  0.09008
      17     H     0.45520  0.45520  0.00000  0.08961
      18     H     0.44854  0.44854  0.00000  0.10292
      19     H     0.45565  0.45565  0.00000  0.08870

   Total alpha = 25.00000, Total beta = 25.00000, Total charge = -0.00000

*** Psi4 exiting successfully. Buy a developer a beer!
