  ==> Input File <==

--------------------------------------------------------------------------
set {
	reference rhf
	basis cc-pvtz
}

set_num_threads( 4 )
memory 2 gb

molecule MOL {
0 1

H	 2.046318	 0.334276	 -0.981390
O	 1.278517	 -0.215156	 -1.026927
C	 0.489979	 0.078084	 0.002623
C	 -0.763662	 -0.754014	 0.000816
O	 0.772510	 0.905932	 0.798082
C	 -2.038001	 0.074705	 -0.000833
H	 -0.712945	 -1.405886	 -0.864342
H	 -0.715137	 -1.405770	 0.866182
H	 -2.087267	 0.710831	 -0.874232
H	 -2.903419	 -0.576199	 -0.001922
H	 -2.089467	 0.710909	 0.872389

	symmetry c1
}
set optking {
	frozen_dihedral = ("
		2 3 4 7
	")
}

ee = optimize('scf')
oeprop('DIPOLE', 'QUADRUPOLE', 'MULLIKEN_CHARGES')
f=open( 'psi4out.xyz', 'w' )
f.write( "11  " )
f.write( str(ee) + "\n" )
f.write( MOL.save_string_xyz() )
f.close()
--------------------------------------------------------------------------

    Molecular point group: c1
  Charge       = 0
  Multiplicity = 1
  Basis Set: CC-PVTZ
  Basis Set:
  @DF-RHF Final Energy:  -266.95080545620158
    Total Energy =                       -266.9508054562014081
    Molecular point group: c1
  Basis Set: CC-PVTZ
  Basis Set:
  Basis Set: CC-PVTZ
  Basis Set:
  @DF-RHF Final Energy:  -266.95136225734916
    Total Energy =                       -266.9513622573491602
  Basis Set: CC-PVTZ
  Basis Set:
  Basis Set: CC-PVTZ
  Basis Set:
  @DF-RHF Final Energy:  -266.95118953325186
    Total Energy =                       -266.9511895332518066
  Basis Set: CC-PVTZ
  Basis Set:
  Basis Set: CC-PVTZ
  Basis Set:
  @DF-RHF Final Energy:  -266.95140094653306
    Total Energy =                       -266.9514009465331696
  Basis Set: CC-PVTZ
  Basis Set:
  Charge       = 0
  Multiplicity = 1
  Basis Set: CC-PVTZ
  Basis Set:

    Orbital Energies (a.u.)
    -----------------------

    Doubly Occupied:

       1A    -20.607430     2A    -20.538869     3A    -11.374342
       4A    -11.241784     5A    -11.225084     6A     -1.479278
       7A     -1.369421     8A     -1.066839     9A     -0.916553
      10A     -0.812041    11A     -0.707098    12A     -0.691597
      13A     -0.652047    14A     -0.611272    15A     -0.596539
      16A     -0.538653    17A     -0.527490    18A     -0.511177
      19A     -0.479313    20A     -0.446257

  @DF-RHF Final Energy:  -266.95140970640836

   => Energetics <=

    Nuclear Repulsion Energy =            180.0899622976273804
    One-Electron Energy =                -721.2965830386586958
    Two-Electron Energy =                 274.2552110346229597
    DFT Exchange-Correlation Energy =       0.0000000000000000
    Empirical Dispersion Energy =           0.0000000000000000
    PCM Polarization Energy =               0.0000000000000000
    EFP Energy =                            0.0000000000000000
    Total Energy =                       -266.9514097064083558
    Molecular point group: c1
  Basis Set: CC-PVTZ
  Basis Set:

  -Total Gradient:
     Atom            X                  Y                   Z
    ------   -----------------  -----------------  -----------------
       1        0.000050645131     0.000015420247    -0.000020921965
       2       -0.000187860982     0.000442241087    -0.000318521714
       3        0.000377891289    -0.000655560041     0.000652162159
       4       -0.000549538210     0.000816090315    -0.000536016582
       5       -0.000005279292    -0.000107303111    -0.000172122404
       6        0.000005979768    -0.000028132230    -0.000018318582
       7        0.000333738567    -0.000404554435     0.000402495046
       8        0.000019545936    -0.000052477242     0.000052162088
       9       -0.000036221590     0.000009128629    -0.000011577820
      10       -0.000048769224     0.000007867162    -0.000014429822
      11        0.000039868611    -0.000042720380    -0.000014910401

  **** Optimization is complete! (in 5 steps) ****
    Final optimized geometry and variables:
    Molecular point group: c1

    Geometry (in Angstrom), charge = 0, multiplicity = 1:

    H            2.077799088609     0.347051143419    -0.885878420256
    O            1.319458433753    -0.213075373116    -0.963082838646
    C            0.506324153605     0.041084738796     0.055515553352
    C           -0.741205905739    -0.804785079901     0.044522724126
    O            0.759054119456     0.856437138881     0.874639552037
    C           -2.005190798377     0.052708848260     0.064385495425
    H           -0.723528886245    -1.464328007061    -0.810470641059
    H           -0.701758860865    -1.418700391550     0.937265553677
    H           -2.077672404276     0.662964526486    -0.828158376809
    H           -2.882585303241    -0.579739016028     0.108994781110
    H           -2.007596094838     0.707787546787     0.924140548056

  Mulliken Charges: (a.u.)
   Center  Symbol    Alpha    Beta     Spin     Total
       1     H     0.38000  0.38000  0.00000  0.24000
       2     O     4.15878  4.15878  0.00000 -0.31757
       3     C     2.80247  2.80247  0.00000  0.39506
       4     C     3.09094  3.09094  0.00000 -0.18188
       5     O     4.19855  4.19855  0.00000 -0.39710
       6     C     3.14496  3.14496  0.00000 -0.28993
       7     H     0.43824  0.43824  0.00000  0.12352
       8     H     0.44384  0.44384  0.00000  0.11232
       9     H     0.45225  0.45225  0.00000  0.09550
      10     H     0.44846  0.44846  0.00000  0.10309
      11     H     0.44150  0.44150  0.00000  0.11699

   Total alpha = 20.00000, Total beta = 20.00000, Total charge =  0.00000
