  ==> Input File <==

--------------------------------------------------------------------------
set {
	reference rhf
	basis 6-31G*
}

set_num_threads( 1 )
memory 2 gb

molecule MOL {
0 1

H	 -2.347465	 -0.513130	 2.338041
C	 -2.233485	 -1.498906	 1.891504
O	 -1.040535	 -1.601955	 1.183275
H	 -2.210150	 -2.239364	 2.679106
H	 -3.095723	 -1.690736	 1.254186
C	 -0.927758	 -0.706402	 0.122844
C	 0.443676	 -0.836689	 -0.497154
H	 -1.684626	 -0.918573	 -0.633350
H	 -1.071509	 0.316975	 0.463490
O	 1.392611	 -0.295398	 0.366430
H	 0.651222	 -1.887095	 -0.691007
H	 0.456977	 -0.309488	 -1.451919
C	 2.706965	 -0.449871	 -0.062409
H	 2.756559	 -0.644779	 -1.131878
H	 3.305899	 0.433456	 0.155466
H	 3.125548	 -1.294566	 0.467107

	symmetry c1
}
set optking {
	frozen_dihedral = ("
		3 6 7 11,
		2 3 6 7
	")
}

ee = energy('scf')
oeprop('DIPOLE', 'QUADRUPOLE', 'MULLIKEN_CHARGES')
f=open( 'psi4out.xyz', 'w' )
f.write( "16  " )
f.write( str(ee) + "\n" )
f.write( MOL.save_string_xyz() )
f.close()
--------------------------------------------------------------------------

    Molecular point group: c1

    Geometry (in Angstrom), charge = 0, multiplicity = 1:

       Center              X                  Y                   Z               Mass
    ------------   -----------------  -----------------  -----------------  -----------------
           H         -2.407309145231     0.386924309333     1.830413305336     1.007825032070
           C         -2.293329145231    -0.598851690667     1.383876305336    12.000000000000
           O         -1.100379145231    -0.701900690667     0.675647305336    15.994914619560
           H         -2.269994145231    -1.339309690667     2.171478305336     1.007825032070
           H         -3.155567145231    -0.790681690667     0.746558305336     1.007825032070
           C         -0.987602145231     0.193652309333    -0.384783694664    12.000000000000
           C          0.383831854769     0.063365309333    -1.004781694664    12.000000000000
           H         -1.744470145231    -0.018518690667    -1.140977694664     1.007825032070
           H         -1.131353145231     1.217029309333    -0.044137694664     1.007825032070
           O          1.332766854769     0.604656309333    -0.141197694664    15.994914619560
           H          0.591377854769    -0.987040690667    -1.198634694664     1.007825032070
           H          0.397132854769     0.590566309333    -1.959546694664     1.007825032070
           C          2.647120854769     0.450183309333    -0.570036694664    12.000000000000
           H          2.696714854769     0.255275309333    -1.639505694664     1.007825032070
           H          3.246054854769     1.333510309333    -0.352161694664     1.007825032070
           H          3.065703854769    -0.394511690667    -0.040520694664     1.007825032070

  Charge       = 0
  Multiplicity = 1
  Basis Set: 6-31G*
  Basis Set:

    Orbital Energies (a.u.)
    -----------------------

    Doubly Occupied:

       1A    -20.553452     2A    -20.550465     3A    -11.269489
       4A    -11.268362     5A    -11.263419     6A    -11.262772
       7A     -1.387640     8A     -1.369969     9A     -1.030380
      10A     -0.935408    11A     -0.892121    12A     -0.824649
      13A     -0.683754    14A     -0.679347    15A     -0.657024
      16A     -0.635691    17A     -0.627653    18A     -0.596355
      19A     -0.553939    20A     -0.537010    21A     -0.507100
      22A     -0.477639    23A     -0.463271    24A     -0.417724
      25A     -0.407360

  @DF-RHF Final Energy:  -306.97394543963929

   => Energetics <=

    Nuclear Repulsion Energy =            258.8848330308169920
    One-Electron Energy =                -932.0134703882285976
    Two-Electron Energy =                 366.1546919177728796
    DFT Exchange-Correlation Energy =       0.0000000000000000
    Empirical Dispersion Energy =           0.0000000000000000
    PCM Polarization Energy =               0.0000000000000000
    EFP Energy =                            0.0000000000000000
    Total Energy =                       -306.9739454396387828

  Mulliken Charges: (a.u.)
   Center  Symbol    Alpha    Beta     Spin     Total
       1     H     0.42805  0.42805  0.00000  0.14391
       2     C     3.07949  3.07949  0.00000 -0.15899
       3     O     4.30090  4.30090  0.00000 -0.60179
       4     H     0.41133  0.41133  0.00000  0.17734
       5     H     0.43192  0.43192  0.00000  0.13616
       6     C     2.99332  2.99332  0.00000  0.01336
       7     C     2.99498  2.99498  0.00000  0.01003
       8     H     0.43240  0.43240  0.00000  0.13520
       9     H     0.42270  0.42270  0.00000  0.15461
      10     O     4.30268  4.30268  0.00000 -0.60537
      11     H     0.42268  0.42268  0.00000  0.15464
      12     H     0.43158  0.43158  0.00000  0.13684
      13     C     3.07800  3.07800  0.00000 -0.15600
      14     H     0.43159  0.43159  0.00000  0.13681
      15     H     0.41733  0.41733  0.00000  0.16535
      16     H     0.42105  0.42105  0.00000  0.15790

   Total alpha = 25.00000, Total beta = 25.00000, Total charge =  0.00000
