  ==> Input File <==

--------------------------------------------------------------------------
set {
	reference rhf
	basis 6-31G*
}

set_num_threads( 4 )
memory 2 gb

molecule MOL {
0 1

H	 -3.650283	 0.221984	 0.000000
C	 -2.577024	 0.154109	 0.000000
C	 -1.960329	 -1.089307	 0.000000
C	 -1.811733	 1.307557	 0.000000
H	 -2.554473	 -1.985285	 0.000000
C	 -0.581547	 -1.175855	 0.000000
H	 -2.287118	 2.271701	 0.000000
C	 -0.428719	 1.219221	 0.000000
H	 -0.090826	 -2.129898	 0.000000
C	 0.198341	 -0.021559	 0.000000
H	 0.149947	 2.124040	 0.000000
C	 1.691355	 -0.173192	 0.000000
C	 2.321642	 -1.256130	 0.850604
O	 2.375520	 0.550156	 -0.661861
H	 2.078447	 -1.116164	 1.898957
H	 3.393700	 -1.212272	 0.723097
H	 1.964553	 -2.237585	 0.555625

	symmetry c1
}
set optking {
	frozen_dihedral = ("
		13 12 10 8
	")
}

ee = optimize('scf')
oeprop('DIPOLE', 'QUADRUPOLE', 'MULLIKEN_CHARGES')
f=open( 'psi4out.xyz', 'w' )
f.write( "17  " )
f.write( str(ee) + "\n" )
f.write( MOL.save_string_xyz() )
f.close()
--------------------------------------------------------------------------

    Molecular point group: c1
  Charge       = 0
  Multiplicity = 1
  Basis Set: 6-31G*
  Basis Set:
  @DF-RHF Final Energy:  -382.47044736441046
    Total Energy =                       -382.4704473644104610
    Molecular point group: c1
  Basis Set: 6-31G*
  Basis Set:
  Basis Set: 6-31G*
  Basis Set:
  @DF-RHF Final Energy:  -382.47045457120709
    Total Energy =                       -382.4704545712075969
  Basis Set: 6-31G*
  Basis Set:
  Basis Set: 6-31G*
  Basis Set:
  @DF-RHF Final Energy:  -382.47172599219488
    Total Energy =                       -382.4717259921943651
  Basis Set: 6-31G*
  Basis Set:
  Basis Set: 6-31G*
  Basis Set:
  @DF-RHF Final Energy:  -382.47250355605331
    Total Energy =                       -382.4725035560536526
  Basis Set: 6-31G*
  Basis Set:
  Basis Set: 6-31G*
  Basis Set:
  @DF-RHF Final Energy:  -382.47251295759162
    Total Energy =                       -382.4725129575916753
  Basis Set: 6-31G*
  Basis Set:
  Basis Set: 6-31G*
  Basis Set:
  @DF-RHF Final Energy:  -382.47252077422775
    Total Energy =                       -382.4725207742276325
  Basis Set: 6-31G*
  Basis Set:
  Charge       = 0
  Multiplicity = 1
  Basis Set: 6-31G*
  Basis Set:

    Orbital Energies (a.u.)
    -----------------------

    Doubly Occupied:

       1A    -20.552147     2A    -11.332145     3A    -11.247685
       4A    -11.244532     5A    -11.244228     6A    -11.241492
       7A    -11.240912     8A    -11.238842     9A    -11.230330
      10A     -1.398030    11A     -1.165861    12A     -1.049955
      13A     -1.026414    14A     -0.996928    15A     -0.860603
      16A     -0.836005    17A     -0.760414    18A     -0.706432
      19A     -0.657956    20A     -0.645921    21A     -0.624228
      22A     -0.614437    23A     -0.599608    24A     -0.590676
      25A     -0.556902    26A     -0.525777    27A     -0.514839
      28A     -0.501588    29A     -0.490698    30A     -0.410515
      31A     -0.344736    32A     -0.341830

  @DF-RHF Final Energy:  -382.47252139662601

   => Energetics <=

    Nuclear Repulsion Energy =            403.3126605285293635
    One-Electron Energy =               -1317.9850252988235297
    Two-Electron Energy =                 532.1998433736681591
    DFT Exchange-Correlation Energy =       0.0000000000000000
    Empirical Dispersion Energy =           0.0000000000000000
    PCM Polarization Energy =               0.0000000000000000
    EFP Energy =                            0.0000000000000000
    Total Energy =                       -382.4725213966260071
    Molecular point group: c1
  Basis Set: 6-31G*
  Basis Set:

  -Total Gradient:
     Atom            X                  Y                   Z
    ------   -----------------  -----------------  -----------------
       1       -0.000001108966    -0.000009789036     0.000011082807
       2        0.000011709241     0.000059629805    -0.000032831602
       3        0.000057060764    -0.000026634534     0.000016284502
       4       -0.000058332261    -0.000010585551     0.000000477010
       5       -0.000004746526     0.000002351906     0.000002290492
       6       -0.000064196318    -0.000016805418     0.000004474023
       7        0.000005564177    -0.000000738458    -0.000002844871
       8       -0.000009431235    -0.000056274001     0.003731819795
       9        0.000016216033     0.000004380136    -0.000002053107
      10        0.000123881836     0.001087604247    -0.004087370070
      11       -0.000003043537     0.000000699434    -0.000006721285
      12       -0.000147113446    -0.003220396162    -0.002254706876
      13        0.000094527065     0.002132478489     0.002561737982
      14        0.000003501170     0.000031857406     0.000004951100
      15        0.000003514792     0.000019229157     0.000014324936
      16       -0.000005286909     0.000002881224     0.000020669243
      17       -0.000022715882     0.000000111355     0.000018415921

  **** Optimization is complete! (in 7 steps) ****
    Final optimized geometry and variables:
    Molecular point group: c1

    Geometry (in Angstrom), charge = 0, multiplicity = 1:

    H           -3.638509611378     0.323846706296     0.005803867825
    C           -2.567637546253     0.227449374051    -0.011670378735
    C           -1.986008454573    -1.029592574208    -0.016712203846
    C           -1.768932412327     1.361025538382    -0.025321649725
    H           -2.602963584092    -1.910012278767    -0.008387361943
    C           -0.606351729764    -1.153835577463    -0.024445208960
    H           -2.218626515515     2.337490483019    -0.014693684968
    C           -0.391765364462     1.236400363734    -0.055477403183
    H           -0.167990694791    -2.135231696965    -0.018127811068
    C            0.200184844891    -0.022433489361    -0.060919096925
    H            0.235388728552     2.107622880819    -0.080940611521
    C            1.699761907727    -0.101351588142    -0.042111236694
    C            2.351254682556    -1.167914648170     0.812382125567
    O            2.357288208945     0.712472359415    -0.618593759311
    H            1.996526505129    -1.089273364408     1.834960364804
    H            3.423378340975    -1.034115487822     0.783711049590
    H            2.108862376630    -2.165334291195     0.460147731178

  Mulliken Charges: (a.u.)
   Center  Symbol    Alpha    Beta     Spin     Total
       1     H     0.39577  0.39577  0.00000  0.20845
       2     C     3.09435  3.09435  0.00000 -0.18870
       3     C     3.10305  3.10305  0.00000 -0.20611
       4     C     3.10243  3.10243  0.00000 -0.20485
       5     H     0.39632  0.39632  0.00000  0.20735
       6     C     3.10333  3.10333  0.00000 -0.20666
       7     H     0.39536  0.39536  0.00000  0.20928
       8     C     3.09414  3.09414  0.00000 -0.18829
       9     H     0.39511  0.39511  0.00000  0.20978
      10     C     3.04306  3.04306  0.00000 -0.08613
      11     H     0.38116  0.38116  0.00000  0.23768
      12     C     2.73814  2.73814  0.00000  0.52372
      13     C     3.28884  3.28884  0.00000 -0.57769
      14     O     4.26163  4.26163  0.00000 -0.52326
      15     H     0.40324  0.40324  0.00000  0.19353
      16     H     0.39540  0.39540  0.00000  0.20919
      17     H     0.40865  0.40865  0.00000  0.18271

   Total alpha = 32.00000, Total beta = 32.00000, Total charge =  0.00000
