  ==> Input File <==

--------------------------------------------------------------------------
set {
	reference rhf
	basis 6-31G*
}

set_num_threads( 1 )
memory 2 gb

molecule MOL {
0 1

O	 2.862325	 1.357334	 0.000267
C	 2.843464	 0.164689	 -0.000222
C	 1.546494	 -0.624492	 -0.000609
C	 4.124123	 -0.644674	 -0.000428
C	 0.291004	 0.242674	 0.000989
H	 1.557904	 -1.283758	 -0.867573
H	 1.558622	 -1.285963	 0.864672
C	 -0.994322	 -0.586602	 0.000262
H	 0.309117	 0.896430	 -0.865270
H	 0.309661	 0.894078	 0.869017
C	 -2.259874	 0.272531	 0.000494
H	 -1.004862	 -1.240012	 -0.870939
H	 -1.005220	 -1.241071	 0.870675
C	 -3.547657	 -0.546637	 0.103415
H	 -2.287339	 0.872261	 -0.907575
H	 -2.215543	 0.977516	 0.828762
C	 -4.807483	 0.318534	 0.102811
H	 -3.593674	 -1.250893	 -0.724672
H	 -3.522043	 -1.145426	 1.011520
H	 -4.879790	 0.904970	 -0.808788
H	 -5.703374	 -0.290317	 0.176163
H	 -4.808228	 1.010391	 0.940354
H	 4.165367	 -1.288615	 -0.874074
H	 4.976217	 0.020734	 -0.001915
H	 4.166763	 -1.286207	 0.874930

	symmetry c1
}
set optking {
	frozen_dihedral = ("
		9 5 8 12,
		15 11 14 18,
		1 2 3 6,
		9 5 3 6
	")
}

ee = energy('scf')
oeprop('DIPOLE', 'QUADRUPOLE', 'MULLIKEN_CHARGES')
f=open( 'psi4out.xyz', 'w' )
f.write( "25  " )
f.write( str(ee) + "\n" )
f.write( MOL.save_string_xyz() )
f.close()
--------------------------------------------------------------------------

    Molecular point group: c1

    Geometry (in Angstrom), charge = 0, multiplicity = 1:

       Center              X                  Y                   Z               Mass
    ------------   -----------------  -----------------  -----------------  -----------------
           O          2.861845027732     1.356633274656    -0.023180791757    15.994914619560
           C          2.842984027732     0.163988274656    -0.023669791757    12.000000000000
           C          1.546014027732    -0.625192725344    -0.024056791757    12.000000000000
           C          4.123643027732    -0.645374725344    -0.023875791757    12.000000000000
           C          0.290524027732     0.241973274656    -0.022458791757    12.000000000000
           H          1.557424027732    -1.284458725344    -0.891020791757     1.007825032070
           H          1.558142027732    -1.286663725344     0.841224208243     1.007825032070
           C         -0.994801972268    -0.587302725344    -0.023185791757    12.000000000000
           H          0.308637027732     0.895729274656    -0.888717791757     1.007825032070
           H          0.309181027732     0.893377274656     0.845569208243     1.007825032070
           C         -2.260353972268     0.271830274656    -0.022953791757    12.000000000000
           H         -1.005341972268    -1.240712725344    -0.894386791757     1.007825032070
           H         -1.005699972268    -1.241771725344     0.847227208243     1.007825032070
           C         -3.548136972268    -0.547337725344     0.079967208243    12.000000000000
           H         -2.287818972268     0.871560274656    -0.931022791757     1.007825032070
           H         -2.216022972268     0.976815274656     0.805314208243     1.007825032070
           C         -4.807962972268     0.317833274656     0.079363208243    12.000000000000
           H         -3.594153972268    -1.251593725344    -0.748119791757     1.007825032070
           H         -3.522522972268    -1.146126725344     0.988072208243     1.007825032070
           H         -4.880269972268     0.904269274656    -0.832235791757     1.007825032070
           H         -5.703853972268    -0.291017725344     0.152715208243     1.007825032070
           H         -4.808707972268     1.009690274656     0.916906208243     1.007825032070
           H          4.164887027732    -1.289315725344    -0.897521791757     1.007825032070
           H          4.975737027732     0.020033274656    -0.025362791757     1.007825032070
           H          4.166283027732    -1.286907725344     0.851482208243     1.007825032070

  Charge       = 0
  Multiplicity = 1
  Basis Set: 6-31G*
  Basis Set:

    Orbital Energies (a.u.)
    -----------------------

    Doubly Occupied:

       1A    -20.550462     2A    -11.326325     3A    -11.231879
       4A    -11.228349     5A    -11.217092     6A    -11.216500
       7A    -11.215366     8A    -11.213499     9A    -11.208305
      10A     -1.395774    11A     -1.093626    12A     -1.056325
      13A     -1.014518    14A     -0.969255    15A     -0.890709
      16A     -0.814107    17A     -0.790813    18A     -0.729924
      19A     -0.661529    20A     -0.651940    21A     -0.631906
      22A     -0.624097    23A     -0.595981    24A     -0.584272
      25A     -0.566332    26A     -0.559981    27A     -0.540185
      28A     -0.526247    29A     -0.512661    30A     -0.489764
      31A     -0.487876    32A     -0.473272    33A     -0.463762
      34A     -0.462251    35A     -0.450756    36A     -0.399421

  @DF-RHF Final Energy:  -387.13647421256798

   => Energetics <=

    Nuclear Repulsion Energy =            438.3447876182376035
    One-Electron Energy =               -1393.2723725557730177
    Two-Electron Energy =                 567.7911107249669840
    DFT Exchange-Correlation Energy =       0.0000000000000000
    Empirical Dispersion Energy =           0.0000000000000000
    PCM Polarization Energy =               0.0000000000000000
    EFP Energy =                            0.0000000000000000
    Total Energy =                       -387.1364742125683733

  Mulliken Charges: (a.u.)
   Center  Symbol    Alpha    Beta     Spin     Total
       1     O     4.26117  4.26117  0.00000 -0.52233
       2     C     2.73569  2.73569  0.00000  0.52861
       3     C     3.21089  3.21089  0.00000 -0.42178
       4     C     3.28664  3.28664  0.00000 -0.57327
       5     C     3.14806  3.14806  0.00000 -0.29611
       6     H     0.40999  0.40999  0.00000  0.18003
       7     H     0.41000  0.41000  0.00000  0.18001
       8     C     3.15393  3.15393  0.00000 -0.30786
       9     H     0.41214  0.41214  0.00000  0.17572
      10     H     0.41215  0.41215  0.00000  0.17571
      11     C     3.15076  3.15076  0.00000 -0.30152
      12     H     0.42471  0.42471  0.00000  0.15058
      13     H     0.42499  0.42499  0.00000  0.15003
      14     C     3.15153  3.15153  0.00000 -0.30306
      15     H     0.42240  0.42240  0.00000  0.15520
      16     H     0.42241  0.42241  0.00000  0.15519
      17     C     3.23934  3.23934  0.00000 -0.47869
      18     H     0.42358  0.42358  0.00000  0.15285
      19     H     0.42349  0.42349  0.00000  0.15302
      20     H     0.42142  0.42142  0.00000  0.15717
      21     H     0.41953  0.41953  0.00000  0.16093
      22     H     0.42132  0.42132  0.00000  0.15736
      23     H     0.40874  0.40874  0.00000  0.18253
      24     H     0.39646  0.39646  0.00000  0.20709
      25     H     0.40870  0.40870  0.00000  0.18261

   Total alpha = 36.00000, Total beta = 36.00000, Total charge =  0.00000
