  ==> Input File <==

--------------------------------------------------------------------------
set {
	reference rhf
	basis cc-pvtz
}

set_num_threads( 4 )
memory 2 gb

molecule MOL {
0 1

H	 -3.268214	 -0.875720	 0.463107
C	 -2.806015	 0.000007	 0.024886
N	 -1.391133	 0.000016	 0.301321
H	 -3.029448	 0.000055	 -1.045738
H	 -3.268126	 0.875758	 0.463150
C	 -0.598241	 0.232451	 -0.886480
C	 -0.962719	 -1.204651	 0.978647
H	 -0.750321	 -0.557111	 -1.628311
H	 -0.907411	 1.168210	 -1.336873
C	 0.877117	 0.307389	 -0.540477
H	 -1.537964	 -1.318036	 1.889870
H	 -1.139642	 -2.092179	 0.363959
C	 0.512638	 -1.129713	 1.324650
H	 1.452362	 0.420774	 -1.451699
H	 1.054039	 1.194917	 0.074211
N	 1.305530	 -0.897278	 0.136849
H	 0.821808	 -2.065472	 1.775043
H	 0.664718	 -0.340151	 2.066481
C	 2.720412	 -0.897269	 0.413284
H	 3.277082	 -0.782787	 -0.508441
H	 3.009112	 -1.839251	 0.862599
H	 3.020527	 -0.093375	 1.091402

	symmetry c1
}
set optking {
	frozen_dihedral = ("
		6 3 2 4
	")
}

ee = optimize('scf')
oeprop('DIPOLE', 'QUADRUPOLE', 'MULLIKEN_CHARGES')
f=open( 'psi4out.xyz', 'w' )
f.write( "22  " )
f.write( str(ee) + "\n" )
f.write( MOL.save_string_xyz() )
f.close()
--------------------------------------------------------------------------

    Molecular point group: c1
  Charge       = 0
  Multiplicity = 1
  Basis Set: CC-PVTZ
  Basis Set:
  @DF-RHF Final Energy:  -344.34416190404386
    Total Energy =                       -344.3441619040439718
    Molecular point group: c1
  Basis Set: CC-PVTZ
  Basis Set:
  Basis Set: CC-PVTZ
  Basis Set:
  @DF-RHF Final Energy:  -344.34459138269159
    Total Energy =                       -344.3445913826914193
  Basis Set: CC-PVTZ
  Basis Set:
  Basis Set: CC-PVTZ
  Basis Set:
  @DF-RHF Final Energy:  -344.34468734002900
    Total Energy =                       -344.3446873400291679
  Basis Set: CC-PVTZ
  Basis Set:
  Basis Set: CC-PVTZ
  Basis Set:
  @DF-RHF Final Energy:  -344.34468947327991
    Total Energy =                       -344.3446894732803685
  Basis Set: CC-PVTZ
  Basis Set:
  Charge       = 0
  Multiplicity = 1
  Basis Set: CC-PVTZ
  Basis Set:

    Orbital Energies (a.u.)
    -----------------------

    Doubly Occupied:

       1A    -15.537045     2A    -15.534640     3A    -11.237260
       4A    -11.237237     5A    -11.236296     6A    -11.236271
       7A    -11.233946     8A    -11.233875     9A     -1.255102
      10A     -1.203290    11A     -1.025343    12A     -0.991766
      13A     -0.912631    14A     -0.867380    15A     -0.836699
      16A     -0.754840    17A     -0.665863    18A     -0.635878
      19A     -0.631617    20A     -0.624799    21A     -0.620589
      22A     -0.580463    23A     -0.551394    24A     -0.550466
      25A     -0.542223    26A     -0.519821    27A     -0.498323
      28A     -0.487609    29A     -0.465557    30A     -0.456145
      31A     -0.350925    32A     -0.343334

  @DF-RHF Final Energy:  -344.34468976277583

   => Energetics <=

    Nuclear Repulsion Energy =            421.4206191294957762
    One-Electron Energy =               -1301.8133648847974655
    Two-Electron Energy =                 536.0480559925256330
    DFT Exchange-Correlation Energy =       0.0000000000000000
    Empirical Dispersion Energy =           0.0000000000000000
    PCM Polarization Energy =               0.0000000000000000
    EFP Energy =                            0.0000000000000000
    Total Energy =                       -344.3446897627760563
    Molecular point group: c1
  Basis Set: CC-PVTZ
  Basis Set:

  -Total Gradient:
     Atom            X                  Y                   Z
    ------   -----------------  -----------------  -----------------
       1        0.000009389988     0.000005827518     0.000009845716
       2       -0.000080493360    -0.002421306199    -0.000164870214
       3       -0.000020821921     0.002052990945     0.000350978747
       4        0.000041908401     0.001530902464     0.000036052667
       5        0.000014936935    -0.000000836267     0.000004390079
       6        0.000020993662    -0.001144793289    -0.000248505603
       7        0.000001534198    -0.000023425571     0.000002521116
       8       -0.000006062944     0.000002624604     0.000007752184
       9        0.000002349972    -0.000002939620     0.000005578659
      10        0.000004982472     0.000006651837     0.000000142985
      11        0.000005381112     0.000003511125    -0.000004895772
      12        0.000000402716     0.000008248999     0.000002429256
      13        0.000005510129    -0.000010059767     0.000005225107
      14        0.000008929808    -0.000001175732    -0.000001886885
      15       -0.000003555501     0.000000820315    -0.000003289433
      16       -0.000009384809     0.000001042005     0.000000732093
      17        0.000011244117    -0.000004125448     0.000003466584
      18       -0.000007828042    -0.000002974799    -0.000002715137
      19       -0.000000973490    -0.000002053138    -0.000003101490
      20        0.000002242665     0.000000685452     0.000000710968
      21        0.000001433770     0.000000645023     0.000000223634
      22       -0.000002119877    -0.000000260456    -0.000000785263

  **** Optimization is complete! (in 5 steps) ****
    Final optimized geometry and variables:
    Molecular point group: c1

    Geometry (in Angstrom), charge = 0, multiplicity = 1:

    H           -3.278309474974    -0.400750679426     0.228970009632
    C           -2.781020565662     0.470000626612    -0.181594555251
    N           -1.350099392752     0.430624643708     0.071369306390
    H           -3.000738969221     0.499023223062    -1.244653639999
    H           -3.231384438838     1.349672851077     0.266219861082
    C           -0.553476802339     0.669316106947    -1.112454175553
    C           -0.915021991228    -0.768103530841     0.755776106217
    H           -0.696865192696    -0.118747501907    -1.857446454352
    H           -0.863562161745     1.604950745103    -1.562728494579
    C            0.919991640434     0.754679479192    -0.761171611807
    H           -1.486842705219    -0.879009095918     1.669125981459
    H           -1.083227404046    -1.662991474013     0.149347692324
    C            0.558938971572    -0.680082562865     1.105091227921
    H            1.497633595595     0.870662766341    -1.670771555497
    H            1.088356457300     1.644589020389    -0.147301298999
    N            1.354369252571    -0.445548903494    -0.080308204156
    H            0.873981726052    -1.611753561190     1.560314890302
    H            0.701798453200     0.113706991755     1.844457958347
    C            2.768082223258    -0.435686858371     0.200788386620
    H            3.327164399214    -0.319241183541    -0.719314263647
    H            3.061671594213    -1.374837992050     0.653022477791
    H            3.060841944695     0.371552852716     0.878332067595

  Mulliken Charges: (a.u.)
   Center  Symbol    Alpha    Beta     Spin     Total
       1     H     0.45958  0.45958  0.00000  0.08084
       2     C     3.09223  3.09223  0.00000 -0.18446
       3     N     3.61605  3.61605  0.00000 -0.23210
       4     H     0.46218  0.46218  0.00000  0.07565
       5     H     0.45003  0.45003  0.00000  0.09994
       6     C     3.03600  3.03600  0.00000 -0.07200
       7     C     3.03582  3.03582  0.00000 -0.07164
       8     H     0.46801  0.46801  0.00000  0.06397
       9     H     0.45329  0.45329  0.00000  0.09342
      10     C     3.03735  3.03735  0.00000 -0.07469
      11     H     0.45343  0.45343  0.00000  0.09315
      12     H     0.46819  0.46819  0.00000  0.06362
      13     C     3.03710  3.03710  0.00000 -0.07419
      14     H     0.45409  0.45409  0.00000  0.09181
      15     H     0.46860  0.46860  0.00000  0.06280
      16     N     3.61287  3.61287  0.00000 -0.22574
      17     H     0.45409  0.45409  0.00000  0.09182
      18     H     0.46866  0.46866  0.00000  0.06269
      19     C     3.09831  3.09831  0.00000 -0.19661
      20     H     0.45200  0.45200  0.00000  0.09601
      21     H     0.45200  0.45200  0.00000  0.09600
      22     H     0.47014  0.47014  0.00000  0.05972

   Total alpha = 32.00000, Total beta = 32.00000, Total charge = -0.00000
