                              Psi4 1.0.54 Driver

  ==> Input File <==

--------------------------------------------------------------------------
set {
	reference rhf
	basis cc-pvtz
}

set_num_threads( 4 )
memory 2 gb

molecule MOL {
0 1

H	 -0.416319	 -1.446799	 -2.170089
C	 -0.732908	 -0.413977	 -2.066678
O	 -0.775228	 0.000056	 -0.739966
H	 -1.739596	 -0.330891	 -2.451161
H	 -0.086345	 0.208997	 -2.676179
C	 0.406133	 -0.000384	 0.036994
C	 1.526415	 -0.003194	 -0.997339
C	 0.498772	 1.259027	 0.900673
C	 0.495883	 -1.257378	 0.904465
H	 1.452279	 0.872071	 -1.630204
H	 1.451276	 -0.881020	 -1.626529
H	 2.497919	 -0.002741	 -0.517601
H	 0.368981	 2.144239	 0.289753
H	 1.470064	 1.313479	 1.377660
H	 -0.248448	 1.271586	 1.684297
H	 0.363971	 -2.144195	 0.296316
H	 1.467114	 -1.312636	 1.381470
H	 -0.251246	 -1.265768	 1.688235

	symmetry c1
}
set optking {
	frozen_dihedral = ("
		2 3 6 7
	")
}

ee,wfn = optimize('scf', return_wfn=True)
oeprop( wfn, 'DIPOLE', 'QUADRUPOLE', 'MULLIKEN_CHARGES')
f=open( 'psi4out.xyz', 'w' )
f.write( "18  " )
f.write( str(ee) + "\n" )
f.write( MOL.save_string_xyz() )
f.close()
--------------------------------------------------------------------------

    Molecular point group: c1
  Charge       = 0
  Multiplicity = 1
  Basis Set: CC-PVTZ
  Basis Set:
  @DF-RHF Final Energy:  -271.26053041194251
    Total Energy =                       -271.2605304119426819
    Molecular point group: c1
  Basis Set: CC-PVTZ
  Basis Set:
  Basis Set: CC-PVTZ
  Basis Set:
  @DF-RHF Final Energy:  -271.13286407959697
    Total Energy =                       -271.1328640795970841
  Basis Set: CC-PVTZ
  Basis Set:
  Basis Set: CC-PVTZ
  Basis Set:
  @DF-RHF Final Energy:  -271.23437562830065
    Total Energy =                       -271.2343756283007110
  Basis Set: CC-PVTZ
  Basis Set:
  Basis Set: CC-PVTZ
  Basis Set:
  @DF-RHF Final Energy:  -271.26979567451110
    Total Energy =                       -271.2697956745111583
  Basis Set: CC-PVTZ
  Basis Set:
  @DF-RHF Final Energy:  -271.24836773715174
    Total Energy =                       -271.2483677371519093
  @DF-RHF Final Energy:  -271.27304983724969
    Total Energy =                       -271.2730498372498005
  @DF-RHF Final Energy:  -271.27360525981067
    Total Energy =                       -271.2736052598105516
  Basis Set: CC-PVTZ
  Basis Set:
  @DF-RHF Final Energy:  -271.27359521448847
    Total Energy =                       -271.2735952144884095
  Basis Set: CC-PVTZ
  Basis Set:
  Basis Set: CC-PVTZ
  Basis Set:
  @DF-RHF Final Energy:  -271.27367111482658
    Total Energy =                       -271.2736711148265840
  Basis Set: CC-PVTZ
  Basis Set:
  Basis Set: CC-PVTZ
  Basis Set:
  @DF-RHF Final Energy:  -271.27367334849487
    Total Energy =                       -271.2736733484948672
  Basis Set: CC-PVTZ
  Basis Set:
  Charge       = 0
  Multiplicity = 1
  Basis Set: CC-PVTZ
  Basis Set:

    Orbital Energies (a.u.)
    -----------------------

    Doubly Occupied:

       1A    -20.538048     2A    -11.280560     3A    -11.259360
       4A    -11.211252     5A    -11.202775     6A    -11.202140
       7A     -1.370595     8A     -1.075348     9A     -0.951302
      10A     -0.936099    11A     -0.912540    12A     -0.752493
      13A     -0.657725    14A     -0.647944    15A     -0.639055
      16A     -0.585183    17A     -0.576820    18A     -0.550671
      19A     -0.539788    20A     -0.526918    21A     -0.515441
      22A     -0.491466    23A     -0.484950    24A     -0.443500
      25A     -0.400279

  @DF-RHF Final Energy:  -271.27367311209889

   => Energetics <=

    Nuclear Repulsion Energy =            272.2627779507664627
    One-Electron Energy =                -907.5683922139448896
    Two-Electron Energy =                 364.0319411510794225
    DFT Exchange-Correlation Energy =       0.0000000000000000
    Empirical Dispersion Energy =           0.0000000000000000
    PCM Polarization Energy =               0.0000000000000000
    EFP Energy =                            0.0000000000000000
    Total Energy =                       -271.2736731120990044
    Molecular point group: c1
  Basis Set: CC-PVTZ
  Basis Set:

  -Total Gradient:
     Atom            X                  Y                   Z
    ------   -----------------  -----------------  -----------------
       1        0.000000067530    -0.000008397054    -0.000013579070
       2        0.000772993349     0.002969289381     0.000024884716
       3       -0.001093548252    -0.005560502546    -0.000123046390
       4       -0.000013751856     0.000000295348    -0.000002119397
       5        0.000020490875     0.000012422291    -0.000004443185
       6        0.000132770157     0.005192689049     0.000445006130
       7        0.000145639471    -0.002581714542    -0.000328105963
       8       -0.000002849586     0.000044116816     0.000006740002
       9       -0.000031365554    -0.000068504695     0.000042955038
      10        0.000008135911     0.000005409103    -0.000030669518
      11        0.000005691554    -0.000016886377     0.000014129966
      12       -0.000006082675     0.000019060545     0.000007760024
      13       -0.000047506148    -0.000059710815     0.000044506565
      14       -0.000001687538     0.000020498397    -0.000070109177
      15        0.000093734708    -0.000012331083     0.000010122079
      16       -0.000021894046     0.000065996941     0.000050417363
      17       -0.000050106831     0.000002629828    -0.000065223217
      18        0.000089268931    -0.000024360587    -0.000009225965

  **** Optimization is complete! (in 11 steps) ****
    Final optimized geometry and variables:
    Molecular point group: c1

    Geometry (in Angstrom), charge = 0, multiplicity = 1:

    H            0.640613688906    -1.063542332722    -2.059896695137
    C            0.224026238046    -0.060214321356    -2.023069122643
    O           -0.562837022636     0.150930076245    -0.897586703031
    H           -0.423236363403     0.064149198250    -2.879793549338
    H            1.036039479735     0.654028498378    -2.104895729192
    C           -0.033973089333     0.014877314465     0.412401904242
    C            1.491132280487     0.107221304438     0.472776295935
    C           -0.662385317719     1.143027540068     1.222321369376
    C           -0.487387188584    -1.344463596621     0.947451658316
    H            1.849875278563     1.052421927299     0.083768993046
    H            1.970718266434    -0.694288393350    -0.073596492579
    H            1.807987670443     0.035049556769     1.505676159695
    H           -0.339173384776     2.105147585894     0.844130387406
    H           -0.387204910358     1.072800958033     2.268412456895
    H           -1.741011745448     1.096817895788     1.145697552712
    H           -0.075485153116    -2.147845554543     0.347305161023
    H           -0.167212494226    -1.491665643671     1.972761123354
    H           -1.566720975978    -1.416824646397     0.909339523127

  Mulliken Charges: (a.u.)
   Center  Symbol    Alpha    Beta     Spin     Total
       1     H     0.47034  0.47034  0.00000  0.05932
       2     C     3.04187  3.04187  0.00000 -0.08375
       3     O     4.19767  4.19767  0.00000 -0.39534
       4     H     0.44258  0.44258  0.00000  0.11483
       5     H     0.46770  0.46770  0.00000  0.06460
       6     C     2.87193  2.87193  0.00000  0.25614
       7     C     3.17592  3.17592  0.00000 -0.35185
       8     C     3.14040  3.14040  0.00000 -0.28080
       9     C     3.14566  3.14566  0.00000 -0.29131
      10     H     0.44530  0.44530  0.00000  0.10939
      11     H     0.44426  0.44426  0.00000  0.11147
      12     H     0.44304  0.44304  0.00000  0.11392
      13     H     0.45186  0.45186  0.00000  0.09627
      14     H     0.45895  0.45895  0.00000  0.08209
      15     H     0.44740  0.44740  0.00000  0.10520
      16     H     0.45126  0.45126  0.00000  0.09748
      17     H     0.45566  0.45566  0.00000  0.08867
      18     H     0.44818  0.44818  0.00000  0.10365

   Total alpha = 25.00000, Total beta = 25.00000, Total charge = -0.00000

*** Psi4 exiting successfully. Buy a developer a beer!
