                              Psi4 1.0.54 Driver

  ==> Input File <==

--------------------------------------------------------------------------
set {
	reference rhf
	basis cc-pvtz
}

set_num_threads( 4 )
memory 2 gb

molecule MOL {
0 1

H	 2.133303	 0.281871	 -0.968240
O	 2.063695	 -0.083403	 -0.105237
C	 0.742924	 0.005675	 0.350750
H	 0.731380	 0.039219	 1.440080
C	 -0.064076	 -1.193495	 -0.124425
C	 -0.047832	 1.190568	 -0.194462
H	 0.194729	 -1.376165	 -1.161308
H	 0.163013	 -2.094508	 0.429933
C	 -1.533112	 -0.752002	 0.006102
H	 0.148003	 1.266545	 -1.259275
H	 0.226235	 2.136493	 0.259722
C	 -1.506634	 0.799189	 0.067162
H	 -2.124360	 -1.110499	 -0.826089
H	 -1.983103	 -1.158030	 0.903403
H	 -2.183808	 1.252169	 -0.644677
H	 -1.813926	 1.138698	 1.049457

	symmetry c1
}
set optking {
	frozen_dihedral = ("
		1 2 3 6
	")
}

ee,wfn = optimize('scf', return_wfn=True)
oeprop( wfn, 'DIPOLE', 'QUADRUPOLE', 'MULLIKEN_CHARGES')
f=open( 'psi4out.xyz', 'w' )
f.write( "16  " )
f.write( str(ee) + "\n" )
f.write( MOL.save_string_xyz() )
f.close()
--------------------------------------------------------------------------

    Molecular point group: c1
  Charge       = 0
  Multiplicity = 1
  Basis Set: CC-PVTZ
  Basis Set:
  @DF-RHF Final Energy:  -270.11421935078369
    Total Energy =                       -270.1142193507836282
    Molecular point group: c1
  Basis Set: CC-PVTZ
  Basis Set:
  Basis Set: CC-PVTZ
  Basis Set:
  @DF-RHF Final Energy:  -270.11541757126031
    Total Energy =                       -270.1154175712606502
  Basis Set: CC-PVTZ
  Basis Set:
  Basis Set: CC-PVTZ
  Basis Set:
  @DF-RHF Final Energy:  -270.11562882321016
    Total Energy =                       -270.1156288232102156
  Basis Set: CC-PVTZ
  Basis Set:
  Basis Set: CC-PVTZ
  Basis Set:
  @DF-RHF Final Energy:  -270.11563609289669
    Total Energy =                       -270.1156360928966933
  Basis Set: CC-PVTZ
  Basis Set:
  @DF-RHF Final Energy:  -270.11563946410342
    Total Energy =                       -270.1156394641036513
  @DF-RHF Final Energy:  -270.11564230130483
    Total Energy =                       -270.1156423013046606
  @DF-RHF Final Energy:  -270.11564852336039
    Total Energy =                       -270.1156485233601074
  @DF-RHF Final Energy:  -270.11540261713202
    Total Energy =                       -270.1154026171322471
  @DF-RHF Final Energy:  -270.11540224169943
    Total Energy =                       -270.1154022416994849
  @DF-RHF Final Energy:  -270.11565045854707
    Total Energy =                       -270.1156504585472362
  @DF-RHF Final Energy:  -270.11565246590362
    Total Energy =                       -270.1156524659035085
  @DF-RHF Final Energy:  -270.11565695349793
    Total Energy =                       -270.1156569534978189
  @DF-RHF Final Energy:  -270.11566142899017
    Total Energy =                       -270.1156614289899380
  @DF-RHF Final Energy:  -270.11566515336102
    Total Energy =                       -270.1156651533610784
  @DF-RHF Final Energy:  -270.11566723242345
    Total Energy =                       -270.1156672324234478
  @DF-RHF Final Energy:  -270.11566899432466
    Total Energy =                       -270.1156689943246647
  Basis Set: CC-PVTZ
  Basis Set:
  @DF-RHF Final Energy:  -270.11567069523636
    Total Energy =                       -270.1156706952361901
  Basis Set: CC-PVTZ
  Basis Set:
  Basis Set: CC-PVTZ
  Basis Set:
  @DF-RHF Final Energy:  -270.11567265205571
    Total Energy =                       -270.1156726520556504
  Basis Set: CC-PVTZ
  Basis Set:
  Basis Set: CC-PVTZ
  Basis Set:
  @DF-RHF Final Energy:  -270.11567396162030
    Total Energy =                       -270.1156739616202458
  Basis Set: CC-PVTZ
  Basis Set:
  Charge       = 0
  Multiplicity = 1
  Basis Set: CC-PVTZ
  Basis Set:

    Orbital Energies (a.u.)
    -----------------------

    Doubly Occupied:

       1A    -20.544437     2A    -11.267702     3A    -11.218132
       4A    -11.216816     5A    -11.215563     6A    -11.208406
       7A     -1.365157     8A     -1.116946     9A     -0.969695
      10A     -0.949905    11A     -0.804948    12A     -0.783064
      13A     -0.683063    14A     -0.664828    15A     -0.609517
      16A     -0.594021    17A     -0.578567    18A     -0.544140
      19A     -0.505976    20A     -0.484768    21A     -0.473638
      22A     -0.459426    23A     -0.454839    24A     -0.415873

  @DF-RHF Final Energy:  -270.11567445612360

   => Energetics <=

    Nuclear Repulsion Energy =            255.5192203080284230
    One-Electron Energy =                -873.0109355474030508
    Two-Electron Energy =                 347.3760407832510850
    DFT Exchange-Correlation Energy =       0.0000000000000000
    Empirical Dispersion Energy =           0.0000000000000000
    PCM Polarization Energy =               0.0000000000000000
    EFP Energy =                            0.0000000000000000
    Total Energy =                       -270.1156744561234859
    Molecular point group: c1
  Basis Set: CC-PVTZ
  Basis Set:

  -Total Gradient:
     Atom            X                  Y                   Z
    ------   -----------------  -----------------  -----------------
       1        0.000263894456     0.001419481499     0.000773767321
       2       -0.000413106663    -0.002099985833    -0.001558082256
       3        0.000578893187     0.001631864998     0.002138160613
       4       -0.000046749316    -0.000314624579    -0.000063431518
       5        0.000048822315     0.000028025020    -0.000246023705
       6       -0.000342340068    -0.000619894202    -0.000971439683
       7        0.000001290952    -0.000002863499     0.000020591809
       8       -0.000009409892     0.000002350271     0.000019479424
       9        0.000009177034     0.000104765516     0.000089998033
      10       -0.000093621670    -0.000092187282    -0.000020467416
      11        0.000063677159     0.000013009819    -0.000052708264
      12       -0.000024786989    -0.000066602650    -0.000118383294
      13       -0.000001620991     0.000004733353    -0.000027343420
      14       -0.000018955875    -0.000004576170    -0.000013922189
      15       -0.000033651406    -0.000006128297     0.000005129216
      16        0.000018487769     0.000002632036     0.000024675331

  **** Optimization is complete! (in 20 steps) ****
    Final optimized geometry and variables:
    Molecular point group: c1

    Geometry (in Angstrom), charge = 0, multiplicity = 1:

    H            2.185481112589     0.363299776572    -0.927771036842
    O            2.091174654225    -0.068563825303    -0.098580259094
    C            0.755662304372    -0.024582188380     0.318770581004
    H            0.781172003065    -0.040463632533     1.403306644509
    C           -0.096207895475    -1.189604159431    -0.177819729050
    C           -0.032857983787     1.191888480302    -0.156126562468
    H            0.069300863457    -1.305469187653    -1.245305437471
    H            0.162408551579    -2.128866082568     0.293420257677
    C           -1.536636095466    -0.741474109173     0.103437363637
    H            0.146645080576     1.324199694505    -1.221460577250
    H            0.262234405336     2.108592182229     0.338370021315
    C           -1.501185162030     0.811826411484     0.088421664361
    H           -2.233211245889    -1.140640265820    -0.621794318174
    H           -1.860286636978    -1.097415926902     1.073961873319
    H           -2.151428631965     1.226890789319    -0.670140906581
    H           -1.840733795295     1.205854393291     1.038215736699

  Mulliken Charges: (a.u.)
   Center  Symbol    Alpha    Beta     Spin     Total
       1     H     0.39350  0.39350  0.00000  0.21301
       2     O     4.20817  4.20817  0.00000 -0.41634
       3     C     2.93032  2.93032  0.00000  0.13936
       4     H     0.44735  0.44735  0.00000  0.10531
       5     C     3.09467  3.09467  0.00000 -0.18933
       6     C     3.11012  3.11012  0.00000 -0.22024
       7     H     0.46068  0.46068  0.00000  0.07863
       8     H     0.44406  0.44406  0.00000  0.11189
       9     C     3.11433  3.11433  0.00000 -0.22866
      10     H     0.46175  0.46175  0.00000  0.07650
      11     H     0.44126  0.44126  0.00000  0.11749
      12     C     3.11013  3.11013  0.00000 -0.22027
      13     H     0.44402  0.44402  0.00000  0.11196
      14     H     0.44832  0.44832  0.00000  0.10337
      15     H     0.44435  0.44435  0.00000  0.11131
      16     H     0.44699  0.44699  0.00000  0.10603

   Total alpha = 24.00000, Total beta = 24.00000, Total charge = -0.00000

*** Psi4 exiting successfully. Buy a developer a beer!
