  ==> Input File <==

--------------------------------------------------------------------------
set {
	reference rhf
	basis 6-31G*
}

set_num_threads( 4 )
memory 2 gb

molecule MOL {
0 1

H	 -4.015554	 0.698403	 -0.552379
C	 -3.330434	 0.066476	 -0.021400
C	 -2.076860	 -0.007332	 -0.404944
H	 -3.694820	 -0.494061	 0.818797
O	 -1.180634	 -0.819263	 0.215062
H	 -1.690501	 0.551267	 -1.239144
C	 0.051604	 -1.018856	 -0.387932
C	 1.043764	 0.054862	 -0.001873
H	 -0.017620	 -1.041351	 -1.469781
H	 0.437898	 -1.966374	 -0.042284
F	 2.212596	 -0.199467	 -0.571921
F	 0.652529	 1.252447	 -0.405055
F	 1.230877	 0.110694	 1.300533

	symmetry c1
}
set optking {
	frozen_dihedral = ("
		6 3 5 7
	")
}

ee = optimize('scf')
oeprop('DIPOLE', 'QUADRUPOLE', 'MULLIKEN_CHARGES')
f=open( 'psi4out.xyz', 'w' )
f.write( "13  " )
f.write( str(ee) + "\n" )
f.write( MOL.save_string_xyz() )
f.close()
--------------------------------------------------------------------------

    Molecular point group: c1
  Charge       = 0
  Multiplicity = 1
  Basis Set: 6-31G*
  Basis Set:
  @DF-RHF Final Energy:  -527.53565833602579
    Total Energy =                       -527.5356583360257900
    Molecular point group: c1
  Basis Set: 6-31G*
  Basis Set:
  Basis Set: 6-31G*
  Basis Set:
  @DF-RHF Final Energy:  -527.53567831619705
    Total Energy =                       -527.5356783161971634
  Basis Set: 6-31G*
  Basis Set:
  Basis Set: 6-31G*
  Basis Set:
  @DF-RHF Final Energy:  -527.53581004657940
    Total Energy =                       -527.5358100465795133
  Basis Set: 6-31G*
  Basis Set:
  Basis Set: 6-31G*
  Basis Set:
  @DF-RHF Final Energy:  -527.53581378679485
    Total Energy =                       -527.5358137867954156
  Basis Set: 6-31G*
  Basis Set:
  Basis Set: 6-31G*
  Basis Set:
  @DF-RHF Final Energy:  -527.53581487444933
    Total Energy =                       -527.5358148744488744
  Basis Set: 6-31G*
  Basis Set:
  Charge       = 0
  Multiplicity = 1
  Basis Set: 6-31G*
  Basis Set:

    Orbital Energies (a.u.)
    -----------------------

    Doubly Occupied:

       1A    -26.345065     2A    -26.344564     3A    -26.340900
       4A    -20.607711     5A    -11.503575     6A    -11.318812
       7A    -11.299158     8A    -11.216391     9A     -1.742233
      10A     -1.640435    11A     -1.638696    12A     -1.437449
      13A     -1.084515    14A     -1.016397    15A     -0.925675
      16A     -0.836684    17A     -0.831505    18A     -0.822234
      19A     -0.789636    20A     -0.724304    21A     -0.711671
      22A     -0.698810    23A     -0.675954    24A     -0.659742
      25A     -0.654949    26A     -0.643652    27A     -0.630216
      28A     -0.588277    29A     -0.563770    30A     -0.527866
      31A     -0.508449    32A     -0.352043

  @DF-RHF Final Energy:  -527.53581495212507

   => Energetics <=

    Nuclear Repulsion Energy =            412.4194014335586758
    One-Electron Energy =               -1548.5477565694322948
    Two-Electron Energy =                 608.5925401837488380
    DFT Exchange-Correlation Energy =       0.0000000000000000
    Empirical Dispersion Energy =           0.0000000000000000
    PCM Polarization Energy =               0.0000000000000000
    EFP Energy =                            0.0000000000000000
    Total Energy =                       -527.5358149521247242
    Molecular point group: c1
  Basis Set: 6-31G*
  Basis Set:

  -Total Gradient:
     Atom            X                  Y                   Z
    ------   -----------------  -----------------  -----------------
       1       -0.000001996473    -0.000002584861    -0.000000267344
       2        0.000002289099     0.000006960644    -0.000000976574
       3       -0.000135532463    -0.000342695904    -0.000255166261
       4        0.000002022466    -0.000002523482    -0.000001394806
       5        0.000134534383     0.000329948734     0.000205292274
       6        0.000062694982     0.000202136434     0.000154100498
       7       -0.000036965355    -0.000196458528    -0.000092026824
       8        0.000006983081     0.000004153236    -0.000008677726
       9       -0.000000121902     0.000004323687     0.000004056564
      10       -0.000005181705    -0.000007417864    -0.000006291538
      11       -0.000025242412    -0.000000224683     0.000033794515
      12       -0.000019238385     0.000028537738    -0.000022055033
      13        0.000015754700    -0.000024155154    -0.000010387742

  **** Optimization is complete! (in 6 steps) ****
    Final optimized geometry and variables:
    Molecular point group: c1

    Geometry (in Angstrom), charge = 0, multiplicity = 1:

    H           -4.014981099848     0.727047164298    -0.531759234968
    C           -3.322847372542     0.100503615809    -0.003421959456
    C           -2.080479791583     0.003274826486    -0.417651831149
    H           -3.668280141189    -0.427157684971     0.865739844276
    O           -1.166863234589    -0.767252932205     0.230061165826
    H           -1.712760337914     0.531134272898    -1.278861934805
    C            0.063810360719    -0.974183065472    -0.375765390685
    C            1.062843709547     0.086989119691     0.026030464738
    H           -0.003572863694    -0.984944866342    -1.457403930223
    H            0.442245398101    -1.928688612254    -0.040238297187
    F            2.229288643523    -0.163354099353    -0.549965097428
    F            0.677259077356     1.294171037335    -0.356009617115
    F            1.252296293155     0.120448082454     1.328722467462

  Mulliken Charges: (a.u.)
   Center  Symbol    Alpha    Beta     Spin     Total
       1     H     0.40702  0.40702  0.00000  0.18595
       2     C     3.23515  3.23515  0.00000 -0.47030
       3     C     2.89757  2.89757  0.00000  0.20486
       4     H     0.40200  0.40200  0.00000  0.19601
       5     O     4.30250  4.30250  0.00000 -0.60499
       6     H     0.40420  0.40420  0.00000  0.19160
       7     C     3.06480  3.06480  0.00000 -0.12959
       8     C     2.45536  2.45536  0.00000  1.08928
       9     H     0.40466  0.40466  0.00000  0.19067
      10     H     0.38946  0.38946  0.00000  0.22107
      11     F     4.68271  4.68271  0.00000 -0.36542
      12     F     4.68020  4.68020  0.00000 -0.36040
      13     F     4.67438  4.67438  0.00000 -0.34875

   Total alpha = 32.00000, Total beta = 32.00000, Total charge = -0.00000
