  ==> Input File <==

--------------------------------------------------------------------------
set {
	reference rhf
	basis 6-31G*
}

set_num_threads( 4 )
memory 2 gb

molecule MOL {
0 1

H	 -3.980040	 -3.119305	 -3.707129
O	 -4.433550	 -3.915013	 -3.469962
C	 -3.555550	 -4.775857	 -2.790170
C	 -3.236893	 -4.312752	 -1.372877
H	 -4.052227	 -5.737068	 -2.757618
H	 -2.634908	 -4.906922	 -3.357636
C	 -2.488196	 -2.979323	 -1.307388
H	 -4.168099	 -4.236107	 -0.817585
H	 -2.641857	 -5.085734	 -0.889352
C	 -2.135515	 -2.568922	 0.125095
H	 -3.096385	 -2.205364	 -1.767234
H	 -1.572447	 -3.049020	 -1.894658
C	 -1.309753	 -1.282496	 0.241564
H	 -3.051892	 -2.461823	 0.702701
H	 -1.577770	 -3.379235	 0.589867
C	 -2.037799	 -0.007733	 -0.193645
H	 -0.999968	 -1.167988	 1.278260
H	 -0.393448	 -1.389990	 -0.336940
C	 -3.489788	 0.042957	 0.286558
H	 -2.017067	 0.064384	 -1.280144
H	 -1.513726	 0.868678	 0.179924
C	 -4.216917	 1.317354	 -0.141063
H	 -4.025645	 -0.823308	 -0.095450
H	 -3.513059	 -0.038752	 1.371301
H	 -4.239342	 1.411634	 -1.223113
H	 -5.243387	 1.322503	 0.212445
H	 -3.726170	 2.201406	 0.256408

	symmetry c1
}
set optking {
	frozen_dihedral = ("
		10 13 16 20
	")
}

ee = optimize('scf')
oeprop('DIPOLE', 'QUADRUPOLE', 'MULLIKEN_CHARGES')
f=open( 'psi4out.xyz', 'w' )
f.write( "27  " )
f.write( str(ee) + "\n" )
f.write( MOL.save_string_xyz() )
f.close()
--------------------------------------------------------------------------

    Molecular point group: c1
  Charge       = 0
  Multiplicity = 1
  Basis Set: 6-31G*
  Basis Set:
  @DF-RHF Final Energy:  -388.27680560795011
    Total Energy =                       -388.2768056079501093
    Molecular point group: c1
  Basis Set: 6-31G*
  Basis Set:
  Basis Set: 6-31G*
  Basis Set:
  @DF-RHF Final Energy:  -388.27821099307846
    Total Energy =                       -388.2782109930790284
  Basis Set: 6-31G*
  Basis Set:
  Basis Set: 6-31G*
  Basis Set:
  @DF-RHF Final Energy:  -388.27883487726530
    Total Energy =                       -388.2788348772650124
  Basis Set: 6-31G*
  Basis Set:
  Basis Set: 6-31G*
  Basis Set:
  @DF-RHF Final Energy:  -388.27887137508674
    Total Energy =                       -388.2788713750878742
  Basis Set: 6-31G*
  Basis Set:
  Basis Set: 6-31G*
  Basis Set:
  @DF-RHF Final Energy:  -388.27888538817496
    Total Energy =                       -388.2788853881750128
  Basis Set: 6-31G*
  Basis Set:
  Basis Set: 6-31G*
  Basis Set:
  @DF-RHF Final Energy:  -388.27889477058784
    Total Energy =                       -388.2788947705880673
  Basis Set: 6-31G*
  Basis Set:
  Charge       = 0
  Multiplicity = 1
  Basis Set: 6-31G*
  Basis Set:

    Orbital Energies (a.u.)
    -----------------------

    Doubly Occupied:

       1A    -20.552367     2A    -11.267070     3A    -11.219626
       4A    -11.216462     5A    -11.216171     6A    -11.215862
       7A    -11.215222     8A    -11.214739     9A    -11.209332
      10A     -1.359113    11A     -1.095298    12A     -1.059581
      13A     -1.010165    14A     -0.949466    15A     -0.887704
      16A     -0.832753    17A     -0.801693    18A     -0.763223
      19A     -0.693738    20A     -0.649654    21A     -0.640676
      22A     -0.613749    23A     -0.599379    24A     -0.587120
      25A     -0.576082    26A     -0.568243    27A     -0.531167
      28A     -0.520848    29A     -0.512008    30A     -0.495704
      31A     -0.488193    32A     -0.478231    33A     -0.469678
      34A     -0.452274    35A     -0.447634    36A     -0.445029
      37A     -0.422371

  @DF-RHF Final Energy:  -388.27889462228626

   => Energetics <=

    Nuclear Repulsion Energy =            470.6686565638840989
    One-Electron Energy =               -1459.3398517052587522
    Two-Electron Energy =                 600.3923005190883941
    DFT Exchange-Correlation Energy =       0.0000000000000000
    Empirical Dispersion Energy =           0.0000000000000000
    PCM Polarization Energy =               0.0000000000000000
    EFP Energy =                            0.0000000000000000
    Total Energy =                       -388.2788946222863160
    Molecular point group: c1
  Basis Set: 6-31G*
  Basis Set:

  -Total Gradient:
     Atom            X                  Y                   Z
    ------   -----------------  -----------------  -----------------
       1        0.000005394824     0.000026004444     0.000007284331
       2        0.000029719560     0.000028097440     0.000002874386
       3       -0.000068958291    -0.000036091921     0.000036756669
       4        0.000031846909    -0.000005308192    -0.000020141726
       5       -0.000000482259    -0.000011192718     0.000000944162
       6       -0.000002143620     0.000006961799     0.000014853652
       7        0.000005956955     0.000032390958     0.000008093289
       8        0.000008664993    -0.000017841358    -0.000004022189
       9        0.000010155063    -0.000009264640    -0.000018316009
      10       -0.001263045170     0.000459127761     0.003177740483
      11        0.000010196113    -0.000005003139    -0.000045043913
      12        0.000006299588    -0.000008806321     0.000008307746
      13        0.002685750137    -0.000014433886    -0.004521826897
      14       -0.000008859580    -0.000040433574     0.000015381909
      15        0.000019513041     0.000041043157    -0.000012889825
      16       -0.005332207981    -0.002790320998     0.001043965384
      17       -0.000010622629     0.000001358509    -0.000013897828
      18        0.000020802389     0.000016853747    -0.000004333497
      19       -0.000066845205    -0.000011824689     0.000029147478
      20        0.003885325554     0.002380521832     0.000263288947
      21        0.000021952650    -0.000051244566     0.000015853587
      22        0.000016789578    -0.000013774608    -0.000007835673
      23       -0.000000207946     0.000012581295     0.000015302146
      24       -0.000015867633     0.000012011967     0.000009214505
      25        0.000001069523     0.000004392475    -0.000005303290
      26        0.000013357058    -0.000016492970    -0.000001106354
      27       -0.000003553620     0.000010688204     0.000005708529

  **** Optimization is complete! (in 7 steps) ****
    Final optimized geometry and variables:
    Molecular point group: c1

    Geometry (in Angstrom), charge = 0, multiplicity = 1:

    H           -0.943930757574    -1.104060960769    -2.701505250385
    O           -1.385311492065    -1.906918200233    -2.465448020314
    C           -0.491663132205    -2.758207843492    -1.793993034124
    C           -0.174408469684    -2.297323335773    -0.375737005961
    H           -0.973646395306    -3.726970539012    -1.764741084389
    H            0.428520802086    -2.872147108323    -2.365831512374
    C            0.546907596531    -0.949286840832    -0.305961591097
    H           -1.103812031689    -2.243215308986     0.185284177015
    H            0.439104822323    -3.060710459780     0.099941083597
    C            0.902061959055    -0.537320360570     1.125395554011
    H           -0.078182471241    -0.183672677445    -0.758495066255
    H            1.460120965953    -0.995624053409    -0.899345757287
    C            1.658902363087     0.792161093373     1.232023875459
    H           -0.002162340224    -0.498917944799     1.726330343805
    H            1.521696012178    -1.315193374099     1.566598603528
    C            0.904869694330     2.054846545305     0.781385165650
    H            1.945393293513     0.922906287049     2.273715261974
    H            2.588974652048     0.722887319144     0.672304400733
    C           -0.528533446571     2.196974604138     1.296200390392
    H            0.929246124000     2.139930572409    -0.303412283030
    H            1.477829182522     2.911442204768     1.132996108679
    C           -1.146692665049     3.547757675400     0.935295550031
    H           -1.154190265068     1.404393080679     0.896369988051
    H           -0.535753668356     2.075285837450     2.377711348112
    H           -1.172986402711     3.691223153746    -0.141373099629
    H           -2.165063990204     3.624633601476     1.303300673168
    H           -0.576855023074     4.367731646592     1.362988948099

  Mulliken Charges: (a.u.)
   Center  Symbol    Alpha    Beta     Spin     Total
       1     H     0.27985  0.27985  0.00000  0.44030
       2     O     4.37101  4.37101  0.00000 -0.74202
       3     C     2.99746  2.99746  0.00000  0.00507
       4     C     3.16084  3.16084  0.00000 -0.32167
       5     H     0.41446  0.41446  0.00000  0.17108
       6     H     0.43200  0.43200  0.00000  0.13600
       7     C     3.16299  3.16299  0.00000 -0.32597
       8     H     0.41531  0.41531  0.00000  0.16937
       9     H     0.42422  0.42422  0.00000  0.15156
      10     C     3.15560  3.15560  0.00000 -0.31120
      11     H     0.42342  0.42342  0.00000  0.15315
      12     H     0.42531  0.42531  0.00000  0.14937
      13     C     3.15393  3.15393  0.00000 -0.30786
      14     H     0.41883  0.41883  0.00000  0.16234
      15     H     0.42137  0.42137  0.00000  0.15727
      16     C     3.15418  3.15418  0.00000 -0.30835
      17     H     0.42170  0.42170  0.00000  0.15660
      18     H     0.42216  0.42216  0.00000  0.15568
      19     C     3.15509  3.15509  0.00000 -0.31018
      20     H     0.42452  0.42452  0.00000  0.15097
      21     H     0.42189  0.42189  0.00000  0.15622
      22     C     3.23898  3.23898  0.00000 -0.47796
      23     H     0.41971  0.41971  0.00000  0.16059
      24     H     0.42270  0.42270  0.00000  0.15460
      25     H     0.42217  0.42217  0.00000  0.15567
      26     H     0.41866  0.41866  0.00000  0.16269
      27     H     0.42165  0.42165  0.00000  0.15670

   Total alpha = 37.00000, Total beta = 37.00000, Total charge = -0.00000
