  ==> Input File <==

--------------------------------------------------------------------------
set {
	reference rhf
	basis 6-31G*
}

set_num_threads( 4 )
memory 2 gb

molecule MOL {
0 1

H	 3.276176	 0.174363	 -0.109463
N	 2.434251	 -0.367735	 -0.081097
C	 1.267428	 0.496480	 0.024474
H	 2.501951	 -0.965776	 0.720575
C	 -0.016086	 -0.325158	 -0.029487
H	 1.288818	 1.183521	 -0.816092
H	 1.267576	 1.109062	 0.929528
C	 -1.282277	 0.529072	 0.046735
H	 -0.012495	 -0.908639	 -0.945788
H	 -0.015903	 -1.041248	 0.791956
C	 -2.117120	 0.244422	 1.294818
H	 -1.889252	 0.353504	 -0.839123
H	 -1.012279	 1.582963	 0.027430
H	 -2.432795	 -0.794380	 1.325828
H	 -3.009110	 0.862626	 1.321251
H	 -1.549617	 0.443505	 2.199543

	symmetry c1
}
set optking {
	frozen_dihedral = ("
		12 8 5 9
	")
}

ee = optimize('scf')
oeprop('DIPOLE', 'QUADRUPOLE', 'MULLIKEN_CHARGES')
f=open( 'psi4out.xyz', 'w' )
f.write( "16  " )
f.write( str(ee) + "\n" )
f.write( MOL.save_string_xyz() )
f.close()
--------------------------------------------------------------------------

    Molecular point group: c1
  Charge       = 0
  Multiplicity = 1
  Basis Set: 6-31G*
  Basis Set:
  @DF-RHF Final Energy:  -212.31154261203935
    Total Energy =                       -212.3115426120391476
    Molecular point group: c1
  Basis Set: 6-31G*
  Basis Set:
  Basis Set: 6-31G*
  Basis Set:
  @DF-RHF Final Energy:  -212.31177393759293
    Total Energy =                       -212.3117739375930455
  Basis Set: 6-31G*
  Basis Set:
  Basis Set: 6-31G*
  Basis Set:
  @DF-RHF Final Energy:  -212.31184659438082
    Total Energy =                       -212.3118465943807678
  Basis Set: 6-31G*
  Basis Set:
  Charge       = 0
  Multiplicity = 1
  Basis Set: 6-31G*
  Basis Set:

    Orbital Energies (a.u.)
    -----------------------

    Doubly Occupied:

       1A    -15.532674     2A    -11.240490     3A    -11.214915
       4A    -11.209336     5A    -11.208997     6A     -1.176970
       7A     -1.056868     8A     -0.958117     9A     -0.846618
      10A     -0.791249    11A     -0.660512    12A     -0.636469
      13A     -0.603150    14A     -0.584202    15A     -0.562308
      16A     -0.520829    17A     -0.507461    18A     -0.469324
      19A     -0.460335    20A     -0.459011    21A     -0.381237

  @DF-RHF Final Energy:  -212.31184667640989

   => Energetics <=

    Nuclear Repulsion Energy =            186.8883080246118595
    One-Electron Energy =                -656.2381621410654589
    Two-Electron Energy =                 257.0380074400437138
    DFT Exchange-Correlation Energy =       0.0000000000000000
    Empirical Dispersion Energy =           0.0000000000000000
    PCM Polarization Energy =               0.0000000000000000
    EFP Energy =                            0.0000000000000000
    Total Energy =                       -212.3118466764098571
    Molecular point group: c1
  Basis Set: 6-31G*
  Basis Set:

  -Total Gradient:
     Atom            X                  Y                   Z
    ------   -----------------  -----------------  -----------------
       1        0.000038206281    -0.000010834789     0.000019550588
       2        0.000058246660    -0.000034609706     0.000031042601
       3       -0.000059904347     0.000043150160    -0.000102323785
       4        0.000024107979    -0.000015326077     0.000012136394
       5        0.000482253266     0.000833266554    -0.000476501720
       6       -0.000001366418    -0.000006445650    -0.000007596027
       7       -0.000023733724     0.000003032491    -0.000020290421
       8       -0.000546323291    -0.000819950452     0.000530442742
       9       -0.000323096755    -0.000471733813     0.000320913612
      10       -0.000027554827    -0.000001684789     0.000014891132
      11        0.000000353636    -0.000018649523     0.000025439079
      12        0.000354011900     0.000501827827    -0.000327753223
      13        0.000018522352    -0.000010818483     0.000004983164
      14       -0.000020682574     0.000007441599    -0.000014236931
      15        0.000017584752     0.000025759742    -0.000006408317
      16        0.000009375111    -0.000024425091    -0.000004288886

  **** Optimization is complete! (in 4 steps) ****
    Final optimized geometry and variables:
    Molecular point group: c1

    Geometry (in Angstrom), charge = 0, multiplicity = 1:

    H            3.189806907129     0.069096887737    -0.360964100903
    N            2.349500118386    -0.475713920142    -0.336832673581
    C            1.178240791567     0.382668842248    -0.248777270313
    H            2.411917336158    -1.070034338296     0.468000295644
    C           -0.102343107742    -0.444163762238    -0.312607172298
    H            1.204272061594     1.066493661198    -1.091798362136
    H            1.162762863381     0.999860138722     0.653622972496
    C           -1.384501629015     0.411839952152    -0.220290262583
    H           -0.087186629637    -1.024455676554    -1.228767840637
    H           -0.088036717817    -1.169817427203     0.499072287882
    C           -2.214285123887     0.138555085184     1.034495562941
    H           -2.001229725387     0.248452680974    -1.098937312229
    H           -1.120682436678     1.467033769049    -0.241428932679
    H           -2.550035081271    -0.894072943338     1.063626332206
    H           -3.093396120167     0.774682804610     1.072759358637
    H           -1.633362124185     0.321246336404     1.934591809419

  Mulliken Charges: (a.u.)
   Center  Symbol    Alpha    Beta     Spin     Total
       1     H     0.33235  0.33235  0.00000  0.33530
       2     N     3.92211  3.92211  0.00000 -0.84421
       3     C     3.06293  3.06293  0.00000 -0.12585
       4     H     0.33515  0.33515  0.00000  0.32970
       5     C     3.15403  3.15403  0.00000 -0.30806
       6     H     0.42027  0.42027  0.00000  0.15946
       7     H     0.43482  0.43482  0.00000  0.13036
       8     C     3.15953  3.15953  0.00000 -0.31905
       9     H     0.41048  0.41048  0.00000  0.17904
      10     H     0.42515  0.42515  0.00000  0.14970
      11     C     3.23926  3.23926  0.00000 -0.47853
      12     H     0.41827  0.41827  0.00000  0.16345
      13     H     0.42137  0.42137  0.00000  0.15726
      14     H     0.42082  0.42082  0.00000  0.15836
      15     H     0.42046  0.42046  0.00000  0.15908
      16     H     0.42300  0.42300  0.00000  0.15400

   Total alpha = 21.00000, Total beta = 21.00000, Total charge =  0.00000
