  ==> Input File <==

--------------------------------------------------------------------------
set {
	reference rhf
	basis 6-31G*
}

set_num_threads( 1 )
memory 2 gb

molecule MOL {
0 1

H	 -3.407059	 -1.043082	 0.000000
O	 -3.119761	 -0.140267	 0.000000
C	 -1.777559	 -0.059267	 0.000000
C	 -1.061713	 0.387502	 1.106781
C	 -1.114864	 -0.442055	 -1.159472
H	 -1.583074	 0.682296	 2.001538
C	 0.314759	 0.449700	 1.049546
H	 -1.689168	 -0.783118	 -1.999783
C	 0.262119	 -0.374217	 -1.201326
H	 0.879732	 0.792431	 1.895974
C	 0.993137	 0.069985	 -0.104093
H	 0.776153	 -0.670738	 -2.099606
C	 2.466550	 0.137170	 -0.163697
O	 3.166323	 0.504718	 0.728483
H	 2.905356	 -0.183052	 -1.114526

	symmetry c1
}
set optking {
	frozen_dihedral = ("
		7 11 13 14
	")
}

ee = energy('scf')
oeprop('DIPOLE', 'QUADRUPOLE', 'MULLIKEN_CHARGES')
f=open( 'psi4out.xyz', 'w' )
f.write( "15  " )
f.write( str(ee) + "\n" )
f.write( MOL.save_string_xyz() )
f.close()
--------------------------------------------------------------------------

    Molecular point group: c1

    Geometry (in Angstrom), charge = 0, multiplicity = 1:

       Center              X                  Y                   Z               Mass
    ------------   -----------------  -----------------  -----------------  -----------------
           H         -3.403775312289    -1.097495795884    -0.038170357435     1.007825032070
           O         -3.116477312289    -0.194680795884    -0.038170357435    15.994914619560
           C         -1.774275312289    -0.113680795884    -0.038170357435    12.000000000000
           C         -1.058429312289     0.333088204116     1.068610642565    12.000000000000
           C         -1.111580312289    -0.496468795884    -1.197642357435    12.000000000000
           H         -1.579790312289     0.627882204116     1.963367642565     1.007825032070
           C          0.318042687711     0.395286204116     1.011375642565    12.000000000000
           H         -1.685884312289    -0.837531795884    -2.037953357435     1.007825032070
           C          0.265402687711    -0.428630795884    -1.239496357435    12.000000000000
           H          0.883015687711     0.738017204116     1.857803642565     1.007825032070
           C          0.996420687711     0.015571204116    -0.142263357435    12.000000000000
           H          0.779436687711    -0.725151795884    -2.137776357435     1.007825032070
           C          2.469833687711     0.082756204116    -0.201867357435    12.000000000000
           O          3.169606687711     0.450304204116     0.690312642565    15.994914619560
           H          2.908639687711    -0.237465795884    -1.152696357435     1.007825032070

  Charge       = 0
  Multiplicity = 1
  Basis Set: 6-31G*
  Basis Set:

    Orbital Energies (a.u.)
    -----------------------

    Doubly Occupied:

       1A    -20.595550     2A    -20.559556     3A    -11.330488
       4A    -11.314645     5A    -11.259732     6A    -11.253359
       7A    -11.243378     8A    -11.241820     9A    -11.241526
      10A     -1.421653    11A     -1.400117    12A     -1.169824
      13A     -1.040757    14A     -1.036506    15A     -0.889553
      16A     -0.856126    17A     -0.799994    18A     -0.755170
      19A     -0.703274    20A     -0.677617    21A     -0.645236
      22A     -0.630388    23A     -0.619233    24A     -0.606717
      25A     -0.561546    26A     -0.552473    27A     -0.538292
      28A     -0.495398    29A     -0.481210    30A     -0.421369
      31A     -0.355401    32A     -0.337618

  @DF-RHF Final Energy:  -418.28335728399202

   => Energetics <=

    Nuclear Repulsion Energy =            401.3148759886249763
    One-Electron Energy =               -1365.1254146436976953
    Two-Electron Energy =                 545.5271813710791093
    DFT Exchange-Correlation Energy =       0.0000000000000000
    Empirical Dispersion Energy =           0.0000000000000000
    PCM Polarization Energy =               0.0000000000000000
    EFP Energy =                            0.0000000000000000
    Total Energy =                       -418.2833572839936096

  Mulliken Charges: (a.u.)
   Center  Symbol    Alpha    Beta     Spin     Total
       1     H     0.26696  0.26696  0.00000  0.46608
       2     O     4.38223  4.38223  0.00000 -0.76446
       3     C     2.80287  2.80287  0.00000  0.39426
       4     C     3.12314  3.12314  0.00000 -0.24628
       5     C     3.12979  3.12979  0.00000 -0.25958
       6     H     0.38763  0.38763  0.00000  0.22474
       7     C     3.08396  3.08396  0.00000 -0.16791
       8     H     0.39185  0.39185  0.00000  0.21630
       9     C     3.09686  3.09686  0.00000 -0.19372
      10     H     0.37484  0.37484  0.00000  0.25032
      11     C     3.06190  3.06190  0.00000 -0.12381
      12     H     0.39117  0.39117  0.00000  0.21766
      13     C     2.83074  2.83074  0.00000  0.33851
      14     O     4.25202  4.25202  0.00000 -0.50405
      15     H     0.42404  0.42404  0.00000  0.15192

   Total alpha = 32.00000, Total beta = 32.00000, Total charge = -0.00000
