  ==> Input File <==

--------------------------------------------------------------------------
set {
	reference rhf
	basis 6-31G*
}

set_num_threads( 1 )
memory 2 gb

molecule MOL {
0 1

O	 3.225979	 0.970355	 -0.599647
C	 2.701189	 0.057885	 -0.047330
C	 1.245376	 -0.013843	 0.345420
O	 3.347903	 -1.046386	 0.304773
C	 0.455112	 1.231400	 -0.050772
H	 0.838542	 -0.913825	 -0.103701
H	 1.208210	 -0.175333	 1.419774
C	 -0.998893	 1.219485	 0.433193
H	 0.482531	 1.345121	 -1.130325
H	 0.957290	 2.103070	 0.354729
C	 -1.883438	 0.145884	 -0.207175
H	 -1.431207	 2.195402	 0.224832
H	 -1.019646	 1.105716	 1.516076
C	 -3.347647	 0.245583	 0.225435
H	 -1.822183	 0.231698	 -1.291012
H	 -1.510341	 -0.844814	 0.042401
C	 -4.197466	 1.111140	 -0.706633
H	 -3.397755	 0.649933	 1.235001
H	 -3.776807	 -0.753858	 0.276806
C	 -5.657453	 1.208658	 -0.265465
H	 -3.769440	 2.109938	 -0.759908
H	 -4.152143	 0.706031	 -1.715401
H	 -6.233776	 1.828254	 -0.945583
H	 -5.738906	 1.642950	 0.726982
H	 -6.124279	 0.228129	 -0.235313
C	 4.728119	 -1.109107	 -0.004993
H	 4.882018	 -1.033965	 -1.071845
H	 5.068212	 -2.067527	 0.355250
H	 5.265056	 -0.311663	 0.488280

	symmetry c1
}
set optking {
	frozen_dihedral = ("
		21 17 14 11,
		15 11 8 5,
		6 3 5 9,
		11 8 5 9,
		2 4 26 27,
		1 2 4 26,
		6 3 2 1
	")
}

ee = energy('scf')
oeprop('DIPOLE', 'QUADRUPOLE', 'MULLIKEN_CHARGES')
f=open( 'psi4out.xyz', 'w' )
f.write( "29  " )
f.write( str(ee) + "\n" )
f.write( MOL.save_string_xyz() )
f.close()
--------------------------------------------------------------------------

    Molecular point group: c1

    Geometry (in Angstrom), charge = 0, multiplicity = 1:

       Center              X                  Y                   Z               Mass
    ------------   -----------------  -----------------  -----------------  -----------------
           O          3.218047612318     0.615856289783    -0.544793141964    15.994914619560
           C          2.693257612318    -0.296613710217     0.007523858036    12.000000000000
           C          1.237444612318    -0.368341710217     0.400273858036    12.000000000000
           O          3.339971612318    -1.400884710217     0.359626858036    15.994914619560
           C          0.447180612318     0.876901289783     0.004081858036    12.000000000000
           H          0.830610612318    -1.268323710217    -0.048847141964     1.007825032070
           H          1.200278612318    -0.529831710217     1.474627858036     1.007825032070
           C         -1.006824387682     0.864986289783     0.488046858036    12.000000000000
           H          0.474599612318     0.990622289783    -1.075471141964     1.007825032070
           H          0.949358612318     1.748571289783     0.409582858036     1.007825032070
           C         -1.891369387682    -0.208614710217    -0.152321141964    12.000000000000
           H         -1.439138387682     1.840903289783     0.279685858036     1.007825032070
           H         -1.027577387682     0.751217289783     1.570929858036     1.007825032070
           C         -3.355578387682    -0.108915710217     0.280288858036    12.000000000000
           H         -1.830114387682    -0.122800710217    -1.236158141964     1.007825032070
           H         -1.518272387682    -1.199312710217     0.097254858036     1.007825032070
           C         -4.205397387682     0.756641289783    -0.651779141964    12.000000000000
           H         -3.405686387682     0.295434289783     1.289854858036     1.007825032070
           H         -3.784738387682    -1.108356710217     0.331659858036     1.007825032070
           C         -5.665384387682     0.854159289783    -0.210611141964    12.000000000000
           H         -3.777371387682     1.755439289783    -0.705054141964     1.007825032070
           H         -4.160074387682     0.351532289783    -1.660547141964     1.007825032070
           H         -6.241707387682     1.473755289783    -0.890729141964     1.007825032070
           H         -5.746837387682     1.288451289783     0.781835858036     1.007825032070
           H         -6.132210387682    -0.126369710217    -0.180459141964     1.007825032070
           C          4.720187612318    -1.463605710217     0.049860858036    12.000000000000
           H          4.874086612318    -1.388463710217    -1.016991141964     1.007825032070
           H          5.060280612318    -2.422025710217     0.410103858036     1.007825032070
           H          5.257124612318    -0.666161710217     0.543133858036     1.007825032070

  Charge       = 0
  Multiplicity = 1
  Basis Set: 6-31G*
  Basis Set:

    Orbital Energies (a.u.)
    -----------------------

    Doubly Occupied:

       1A    -20.603292     2A    -20.545136     3A    -11.371924
       4A    -11.280602     5A    -11.234678     6A    -11.218840
       7A    -11.217642     8A    -11.215575     9A    -11.214991
      10A    -11.213504    11A    -11.208614    12A     -1.468995
      13A     -1.362439    14A     -1.098576    15A     -1.066425
      16A     -1.018238    17A     -0.977079    18A     -0.928522
      19A     -0.861556    20A     -0.807636    21A     -0.783813
      22A     -0.763806    23A     -0.700931    24A     -0.682159
      25A     -0.671837    26A     -0.637350    27A     -0.627447
      28A     -0.616652    29A     -0.595932    30A     -0.579680
      31A     -0.562222    32A     -0.557425    33A     -0.535881
      34A     -0.527491    35A     -0.522393    36A     -0.501109
      37A     -0.495762    38A     -0.482200    39A     -0.472375
      40A     -0.463572    41A     -0.455917    42A     -0.444678
      43A     -0.443726    44A     -0.436735

  @DF-RHF Final Energy:  -501.04060133318706

   => Energetics <=

    Nuclear Repulsion Energy =            612.5057233573412532
    One-Electron Energy =               -1896.1416562222500488
    Two-Electron Energy =                 782.5953315317207171
    DFT Exchange-Correlation Energy =       0.0000000000000000
    Empirical Dispersion Energy =           0.0000000000000000
    PCM Polarization Energy =               0.0000000000000000
    EFP Energy =                            0.0000000000000000
    Total Energy =                       -501.0406013331879649

  Mulliken Charges: (a.u.)
   Center  Symbol    Alpha    Beta     Spin     Total
       1     O     4.28596  4.28596  0.00000 -0.57193
       2     C     2.60480  2.60480  0.00000  0.79040
       3     C     3.20962  3.20962  0.00000 -0.41923
       4     O     4.30746  4.30746  0.00000 -0.61493
       5     C     3.15387  3.15387  0.00000 -0.30774
       6     H     0.39886  0.39886  0.00000  0.20228
       7     H     0.40127  0.40127  0.00000  0.19746
       8     C     3.15836  3.15836  0.00000 -0.31673
       9     H     0.41306  0.41306  0.00000  0.17387
      10     H     0.40894  0.40894  0.00000  0.18212
      11     C     3.15761  3.15761  0.00000 -0.31522
      12     H     0.41771  0.41771  0.00000  0.16459
      13     H     0.42342  0.42342  0.00000  0.15317
      14     C     3.15345  3.15345  0.00000 -0.30690
      15     H     0.42139  0.42139  0.00000  0.15722
      16     H     0.42118  0.42118  0.00000  0.15763
      17     C     3.15296  3.15296  0.00000 -0.30592
      18     H     0.42250  0.42250  0.00000  0.15500
      19     H     0.42144  0.42144  0.00000  0.15711
      20     C     3.23949  3.23949  0.00000 -0.47898
      21     H     0.42236  0.42236  0.00000  0.15528
      22     H     0.42239  0.42239  0.00000  0.15521
      23     H     0.41922  0.41922  0.00000  0.16155
      24     H     0.42175  0.42175  0.00000  0.15650
      25     H     0.42178  0.42178  0.00000  0.15645
      26     C     3.09238  3.09238  0.00000 -0.18477
      27     H     0.40909  0.40909  0.00000  0.18181
      28     H     0.40852  0.40852  0.00000  0.18295
      29     H     0.40914  0.40914  0.00000  0.18173

   Total alpha = 44.00000, Total beta = 44.00000, Total charge = -0.00000
