                              Psi4 1.0.54 Driver

  ==> Input File <==

--------------------------------------------------------------------------
set {
	reference rhf
	basis cc-pvtz
}

set_num_threads( 4 )
memory 2 gb

molecule MOL {
0 1

H	 1.003051	 0.035473	 -1.832228
O	 1.218605	 0.789491	 -1.313146
C	 0.706474	 0.636793	 -0.025501
C	 -0.793473	 0.591216	 0.050087
H	 1.067030	 1.481181	 0.550094
H	 1.109528	 -0.256115	 0.448802
C	 -1.534243	 -0.493009	 -0.013340
H	 -1.266611	 1.552628	 0.164437
H	 -1.101195	 -1.466332	 -0.144046
H	 -2.604242	 -0.437780	 0.050785

	symmetry c1
}
set optking {
	frozen_dihedral = ("
		5 3 4 7
	")
}

ee,wfn = optimize('scf', return_wfn=True)
oeprop( wfn, 'DIPOLE', 'QUADRUPOLE', 'MULLIKEN_CHARGES')
f=open( 'psi4out.xyz', 'w' )
f.write( "10  " )
f.write( str(ee) + "\n" )
f.write( MOL.save_string_xyz() )
f.close()
--------------------------------------------------------------------------

    Molecular point group: c1
  Charge       = 0
  Multiplicity = 1
  Basis Set: CC-PVTZ
  Basis Set:
  @DF-RHF Final Energy:  -191.99525497421396
    Total Energy =                       -191.9952549742137649
    Molecular point group: c1
  Basis Set: CC-PVTZ
  Basis Set:
  Basis Set: CC-PVTZ
  Basis Set:
  @DF-RHF Final Energy:  -191.99569970048390
    Total Energy =                       -191.9956997004840105
  Basis Set: CC-PVTZ
  Basis Set:
  Basis Set: CC-PVTZ
  Basis Set:
  @DF-RHF Final Energy:  -191.99675878571739
    Total Energy =                       -191.9967587857175317
  Basis Set: CC-PVTZ
  Basis Set:
  Basis Set: CC-PVTZ
  Basis Set:
  @DF-RHF Final Energy:  -191.99680425121045
    Total Energy =                       -191.9968042512103921
  Basis Set: CC-PVTZ
  Basis Set:
  Basis Set: CC-PVTZ
  Basis Set:
  @DF-RHF Final Energy:  -191.99680739262044
    Total Energy =                       -191.9968073926204681
  Basis Set: CC-PVTZ
  Basis Set:
  Charge       = 0
  Multiplicity = 1
  Basis Set: CC-PVTZ
  Basis Set:

    Orbital Energies (a.u.)
    -----------------------

    Doubly Occupied:

       1A    -20.549434     2A    -11.275375     3A    -11.233141
       4A    -11.227902     5A     -1.367492     6A     -1.068358
       7A     -0.926297     8A     -0.778228     9A     -0.705631
      10A     -0.629700    11A     -0.626823    12A     -0.596179
      13A     -0.537477    14A     -0.492315    15A     -0.444771
      16A     -0.382147

  @DF-RHF Final Energy:  -191.99680776704929

   => Energetics <=

    Nuclear Repulsion Energy =            118.3075604854623180
    One-Electron Energy =                -494.9261922166819545
    Two-Electron Energy =                 184.6218239641702326
    DFT Exchange-Correlation Energy =       0.0000000000000000
    Empirical Dispersion Energy =           0.0000000000000000
    PCM Polarization Energy =               0.0000000000000000
    EFP Energy =                            0.0000000000000000
    Total Energy =                       -191.9968077670494040
    Molecular point group: c1
  Basis Set: CC-PVTZ
  Basis Set:

  -Total Gradient:
     Atom            X                  Y                   Z
    ------   -----------------  -----------------  -----------------
       1        0.000006611093     0.000008355101     0.000012696456
       2        0.000034593856    -0.000030121223    -0.000026244295
       3       -0.000391370040    -0.002537703943     0.002551547331
       4       -0.000412923046     0.000430775009     0.004741617363
       5        0.000393200250     0.002061684674    -0.003488761653
       6        0.000024859020    -0.000002328723    -0.000020894435
       7        0.000340139573     0.000071556508    -0.003731663480
       8        0.000004595421     0.000005376768    -0.000011685752
       9        0.000002479037    -0.000004091800    -0.000015119475
      10       -0.000002185160    -0.000003502369    -0.000011492061

  **** Optimization is complete! (in 6 steps) ****
    Final optimized geometry and variables:
    Molecular point group: c1

    Geometry (in Angstrom), charge = 0, multiplicity = 1:

    H            0.981866560541    -0.356684801838    -1.390724032203
    O            1.343593033805     0.293203059680    -0.815542733970
    C            0.714320281180     0.210661707258     0.438457763871
    C           -0.784176126399     0.279747849660     0.313070115025
    H            1.085538615058     1.064918965596     0.986815491629
    H            1.008206187840    -0.694904261310     0.959444942038
    C           -1.559792872552    -0.780531440926     0.237094036966
    H           -1.210976073925     1.260063273011     0.189760325532
    H           -1.165722367096    -1.776056711033     0.345468809775
    H           -2.618761293244    -0.696250223498     0.081137691000

  Mulliken Charges: (a.u.)
   Center  Symbol    Alpha    Beta     Spin     Total
       1     H     0.39383  0.39383  0.00000  0.21234
       2     O     4.20065  4.20065  0.00000 -0.40129
       3     C     2.95191  2.95191  0.00000  0.09618
       4     C     3.07954  3.07954  0.00000 -0.15907
       5     H     0.45678  0.45678  0.00000  0.08644
       6     H     0.47028  0.47028  0.00000  0.05944
       7     C     3.17482  3.17482  0.00000 -0.34964
       8     H     0.41913  0.41913  0.00000  0.16173
       9     H     0.42777  0.42777  0.00000  0.14446
      10     H     0.42530  0.42530  0.00000  0.14941

   Total alpha = 16.00000, Total beta = 16.00000, Total charge = -0.00000

*** Psi4 exiting successfully. Buy a developer a beer!
