  ==> Input File <==

--------------------------------------------------------------------------
set {
	reference rhf
	basis 6-31G*
}

set_num_threads( 4 )
memory 2 gb

molecule MOL {
0 1

H	 -0.000158	 1.970498	 0.756846
O	 -0.000074	 1.880206	 -0.189275
C	 -0.000015	 0.544847	 -0.545111
C	 -1.423686	 -0.001099	 -0.512102
C	 0.979590	 -0.226288	 0.333366
H	 0.351747	 0.474818	 -1.563670
F	 -2.174546	 0.670550	 -1.358649
F	 -1.477502	 -1.274335	 -0.841245
F	 -1.952293	 0.136232	 0.693432
F	 2.191713	 0.261599	 0.177605
F	 1.014808	 -1.507803	 0.035272
F	 0.658107	 -0.108625	 1.611796

	symmetry c1
}
set optking {
	frozen_dihedral = ("
		6 3 2 1
	")
}

ee = optimize('scf')
oeprop('DIPOLE', 'QUADRUPOLE', 'MULLIKEN_CHARGES')
f=open( 'psi4out.xyz', 'w' )
f.write( "12  " )
f.write( str(ee) + "\n" )
f.write( MOL.save_string_xyz() )
f.close()
--------------------------------------------------------------------------

    Molecular point group: c1
  Charge       = 0
  Multiplicity = 1
  Basis Set: 6-31G*
  Basis Set:
  @DF-RHF Final Energy:  -786.27709770870831
    Total Energy =                       -786.2770977087084248
    Molecular point group: c1
  Basis Set: 6-31G*
  Basis Set:
  Basis Set: 6-31G*
  Basis Set:
  @DF-RHF Final Energy:  -786.27722307770375
    Total Energy =                       -786.2772230777034110
  Basis Set: 6-31G*
  Basis Set:
  Basis Set: 6-31G*
  Basis Set:
  @DF-RHF Final Energy:  -786.27724690276978
    Total Energy =                       -786.2772469027700026
  Basis Set: 6-31G*
  Basis Set:
  Basis Set: 6-31G*
  Basis Set:
  @DF-RHF Final Energy:  -786.27724933815091
    Total Energy =                       -786.2772493381512504
  Basis Set: 6-31G*
  Basis Set:
  Charge       = 0
  Multiplicity = 1
  Basis Set: 6-31G*
  Basis Set:

    Orbital Energies (a.u.)
    -----------------------

    Doubly Occupied:

       1A    -26.367344     2A    -26.365755     3A    -26.361997
       4A    -26.358572     5A    -26.358230     6A    -26.354817
       7A    -20.616338     8A    -11.529944     9A    -11.522309
      10A    -11.349352    11A     -1.766849    12A     -1.757083
      13A     -1.664612    14A     -1.660515    15A     -1.654827
      16A     -1.652991    17A     -1.434703    18A     -1.102231
      19A     -0.997305    20A     -0.938377    21A     -0.865455
      22A     -0.862750    23A     -0.853383    24A     -0.843451
      25A     -0.831638    26A     -0.814320    27A     -0.744220
      28A     -0.729560    29A     -0.722261    30A     -0.717573
      31A     -0.690298    32A     -0.688471    33A     -0.683886
      34A     -0.673382    35A     -0.668912    36A     -0.664957
      37A     -0.655146    38A     -0.653302    39A     -0.619635
      40A     -0.550804    41A     -0.505464

  @DF-RHF Final Energy:  -786.27724966043695

   => Energetics <=

    Nuclear Repulsion Energy =            670.5557519238717532
    One-Electron Energy =               -2427.9599628389350983
    Two-Electron Energy =                 971.1269612546266217
    DFT Exchange-Correlation Energy =       0.0000000000000000
    Empirical Dispersion Energy =           0.0000000000000000
    PCM Polarization Energy =               0.0000000000000000
    EFP Energy =                            0.0000000000000000
    Total Energy =                       -786.2772496604366097
    Molecular point group: c1
  Basis Set: 6-31G*
  Basis Set:

  -Total Gradient:
     Atom            X                  Y                   Z
    ------   -----------------  -----------------  -----------------
       1        0.002748120287     0.000010065141     0.000069702472
       2       -0.002872898176    -0.000046340663     0.000132847058
       3       -0.002109119655     0.000270926198    -0.001049407620
       4       -0.000015895248    -0.000000873518    -0.000018744143
       5       -0.000021972139     0.000010381155     0.000054564714
       6        0.002209683951    -0.000208887661     0.000834179470
       7       -0.000004320802    -0.000002858265    -0.000010408544
       8        0.000013247513     0.000010648825     0.000011108261
       9        0.000038453123    -0.000004220313     0.000013340023
      10        0.000021787369    -0.000006635871    -0.000012888900
      11        0.000013933501    -0.000025479528    -0.000002701933
      12       -0.000021019717    -0.000006725498    -0.000021590859

  **** Optimization is complete! (in 5 steps) ****
    Final optimized geometry and variables:
    Molecular point group: c1

    Geometry (in Angstrom), charge = 0, multiplicity = 1:

    H            0.200303574654     1.970506253721     0.789025611119
    O            0.219038762083     1.871890252541    -0.155484819650
    C            0.227225827174     0.534739930306    -0.507397490813
    C           -1.194637159160    -0.014723937459    -0.479772941266
    C            1.202279289215    -0.233122670428     0.379518058348
    H            0.598514906875     0.456049302813    -1.518808995659
    F           -1.960385572664     0.699596397913    -1.275715613461
    F           -1.244147615369    -1.267628515128    -0.886155623952
    F           -1.704464869351     0.043528034962     0.737918973054
    F            2.425797326356     0.211015546535     0.178320532089
    F            1.191176582857    -1.525213376569     0.139250576530
    F            0.916887829484    -0.047192793953     1.659811290824

  Mulliken Charges: (a.u.)
   Center  Symbol    Alpha    Beta     Spin     Total
       1     H     0.26481  0.26481  0.00000  0.47038
       2     O     4.36479  4.36479  0.00000 -0.72958
       3     C     3.04107  3.04107  0.00000 -0.08214
       4     C     2.44170  2.44170  0.00000  1.11659
       5     C     2.45314  2.45314  0.00000  1.09371
       6     H     0.37628  0.37628  0.00000  0.24744
       7     F     4.67490  4.67490  0.00000 -0.34980
       8     F     4.67584  4.67584  0.00000 -0.35168
       9     F     4.67958  4.67958  0.00000 -0.35915
      10     F     4.67513  4.67513  0.00000 -0.35026
      11     F     4.67182  4.67182  0.00000 -0.34364
      12     F     4.68094  4.68094  0.00000 -0.36188

   Total alpha = 41.00000, Total beta = 41.00000, Total charge = -0.00000
