  ==> Input File <==

--------------------------------------------------------------------------
set {
	reference rhf
	basis cc-pvtz
}

set_num_threads( 4 )
memory 2 gb

molecule MOL {
0 1

H	 -3.938895	 -1.215560	 0.920383
C	 -2.873596	 -1.089294	 0.957402
C	 -2.254905	 -0.795528	 2.159303
C	 -2.123966	 -1.220737	 -0.196184
H	 -2.837402	 -0.693651	 3.054299
C	 -0.885954	 -0.633421	 2.206079
H	 -2.604717	 -1.448568	 -1.127765
C	 -0.753126	 -1.058709	 -0.150967
H	 -0.390753	 -0.405768	 3.128038
C	 -0.130040	 -0.764368	 1.051380
H	 -0.169661	 -1.159835	 -1.042523
C	 1.345822	 -0.579732	 1.154635
O	 1.968286	 -0.725612	 -0.000027
O	 1.909652	 -0.327584	 2.166414
C	 3.373556	 -0.568203	 0.000011
H	 3.695416	 -0.031588	 -0.879663
H	 3.782700	 -1.565294	 -0.000152
H	 3.695405	 -0.031851	 0.879862

	symmetry c1
}
set optking {
	frozen_dihedral = ("
		12 13 15 16
	")
}

ee = optimize('scf')
oeprop('DIPOLE', 'QUADRUPOLE', 'MULLIKEN_CHARGES')
f=open( 'psi4out.xyz', 'w' )
f.write( "18  " )
f.write( str(ee) + "\n" )
f.write( MOL.save_string_xyz() )
f.close()
--------------------------------------------------------------------------

    Molecular point group: c1
  Charge       = 0
  Multiplicity = 1
  Basis Set: CC-PVTZ
  Basis Set:
  @DF-RHF Final Energy:  -457.50731115693105
    Total Energy =                       -457.5073111569311095
    Molecular point group: c1
  Basis Set: CC-PVTZ
  Basis Set:
  Basis Set: CC-PVTZ
  Basis Set:
  @DF-RHF Final Energy:  -457.50807124462091
    Total Energy =                       -457.5080712446206235
  Basis Set: CC-PVTZ
  Basis Set:
  Basis Set: CC-PVTZ
  Basis Set:
  @DF-RHF Final Energy:  -457.50823192164745
    Total Energy =                       -457.5082319216470523
  Basis Set: CC-PVTZ
  Basis Set:
  Basis Set: CC-PVTZ
  Basis Set:
  @DF-RHF Final Energy:  -457.50842593293271
    Total Energy =                       -457.5084259329324823
  Basis Set: CC-PVTZ
  Basis Set:
  Charge       = 0
  Multiplicity = 1
  Basis Set: CC-PVTZ
  Basis Set:

    Orbital Energies (a.u.)
    -----------------------

    Doubly Occupied:

       1A    -20.600079     2A    -20.533785     3A    -11.372924
       4A    -11.280241     5A    -11.244675     6A    -11.243232
       7A    -11.242344     8A    -11.239702     9A    -11.235759
      10A    -11.234991    11A     -1.474917    12A     -1.368963
      13A     -1.170408    14A     -1.051580    15A     -1.028722
      16A     -0.981463    17A     -0.862836    18A     -0.838113
      19A     -0.780613    20A     -0.744976    21A     -0.688259
      22A     -0.679996    23A     -0.676073    24A     -0.634179
      25A     -0.629788    26A     -0.600945    27A     -0.587470
      28A     -0.570305    29A     -0.527071    30A     -0.519953
      31A     -0.509992    32A     -0.501618    33A     -0.461433
      34A     -0.449601    35A     -0.350034    36A     -0.345927

  @DF-RHF Final Energy:  -457.50855096216691

   => Energetics <=

    Nuclear Repulsion Energy =            493.6560174699719141
    One-Electron Energy =               -1601.8032047037818302
    Two-Electron Energy =                 650.6386362716430085
    DFT Exchange-Correlation Energy =       0.0000000000000000
    Empirical Dispersion Energy =           0.0000000000000000
    PCM Polarization Energy =               0.0000000000000000
    EFP Energy =                            0.0000000000000000
    Total Energy =                       -457.5085509621669644
    Molecular point group: c1
  Basis Set: CC-PVTZ
  Basis Set:

  -Total Gradient:
     Atom            X                  Y                   Z
    ------   -----------------  -----------------  -----------------
       1        0.000000292238     0.000002632560    -0.000003391923
       2        0.000001138454     0.000001544615    -0.000004319493
       3       -0.000004633495    -0.000019607959    -0.000002322424
       4       -0.000012285566    -0.000010606563    -0.000002552893
       5       -0.000003258252    -0.000003110111    -0.000001383828
       6       -0.000011051278     0.000031687617    -0.000007283661
       7       -0.000010606656    -0.000003666427     0.000002134672
       8       -0.000042285835     0.000010520548    -0.000030546907
       9       -0.000002759662    -0.000002761677    -0.000009665694
      10       -0.000012596731     0.000016357724     0.000005177447
      11       -0.000025339914    -0.000001975552     0.000023324923
      12       -0.000222466014     0.001063829623    -0.000136376270
      13        0.000268072685    -0.001377113713     0.000633023708
      14        0.000016193008    -0.000001758848    -0.000155710262
      15        0.000095387359    -0.000884583088    -0.000847649795
      16       -0.000092115211     0.001161973632     0.000596851537
      17       -0.000000596621     0.000030832559    -0.000015743681
      18        0.000058911488    -0.000014194940    -0.000043565455

  **** Optimization is complete! (in 5 steps) ****
    Final optimized geometry and variables:
    Molecular point group: c1

    Geometry (in Angstrom), charge = 0, multiplicity = 1:

    H           -4.025017800734    -0.432837728326    -0.037106167798
    C           -2.959465363256    -0.311995507622     0.010411270833
    C           -2.350908241432    -0.022628226433     1.218591492113
    C           -2.199088469445    -0.446123611097    -1.135717843132
    H           -2.941508482822     0.081235539885     2.108105021151
    C           -0.981664269288     0.132408492986     1.278865192953
    H           -2.671620443131    -0.670730793186    -2.072323956093
    C           -0.827796718225    -0.291037170304    -1.076941623108
    H           -0.494647251998     0.356309607223     2.206075040383
    C           -0.214736173031    -0.001040578792     0.131571719818
    H           -0.236575628587    -0.394700546551    -1.962978600130
    C            1.262062416975     0.176550060910     0.251662286722
    O            1.889491071036     0.024455200631    -0.900167659561
    O            1.810134090741     0.426095211987     1.272160921295
    C            3.293669141859     0.193331866992    -0.948915939751
    H            3.514018116676     0.719230588176    -1.864924294557
    H            3.769050761167    -0.777151901638    -0.956607917569
    H            3.641896696274     0.761341843606    -0.103561182102

  Mulliken Charges: (a.u.)
   Center  Symbol    Alpha    Beta     Spin     Total
       1     H     0.42034  0.42034  0.00000  0.15933
       2     C     3.06973  3.06973  0.00000 -0.13946
       3     C     3.07556  3.07556  0.00000 -0.15113
       4     C     3.07488  3.07488  0.00000 -0.14975
       5     H     0.42047  0.42047  0.00000  0.15906
       6     C     3.07590  3.07590  0.00000 -0.15180
       7     H     0.42196  0.42196  0.00000  0.15607
       8     C     3.08199  3.08199  0.00000 -0.16397
       9     H     0.40641  0.40641  0.00000  0.18717
      10     C     3.01798  3.01798  0.00000 -0.03596
      11     H     0.41118  0.41118  0.00000  0.17763
      12     C     2.77556  2.77556  0.00000  0.44889
      13     O     4.14996  4.14996  0.00000 -0.29993
      14     O     4.21138  4.21138  0.00000 -0.42276
      15     C     3.04057  3.04057  0.00000 -0.08113
      16     H     0.44937  0.44937  0.00000  0.10125
      17     H     0.45463  0.45463  0.00000  0.09075
      18     H     0.44214  0.44214  0.00000  0.11572

   Total alpha = 36.00000, Total beta = 36.00000, Total charge = -0.00000
