  ==> Input File <==

--------------------------------------------------------------------------
set {
	reference rhf
	basis 6-31G*
}

set_num_threads( 4 )
memory 2 gb

molecule MOL {
0 1

H	 2.290388	 -0.021245	 0.466155
O	 1.530476	 -0.594570	 0.489874
C	 0.489431	 0.077273	 0.000046
C	 -0.764129	 -0.759190	 0.000191
O	 0.581212	 1.198751	 -0.379991
C	 -2.038368	 0.075731	 -0.000248
H	 -0.717284	 -1.412404	 -0.866059
H	 -0.717458	 -1.411724	 0.866967
H	 -2.086483	 0.712501	 -0.875098
H	 -2.908485	 -0.571682	 -0.000042
H	 -2.086576	 0.713280	 0.874068

	symmetry c1
}
set optking {
	frozen_dihedral = ("
		2 3 4 7
	")
}

ee = optimize('scf')
oeprop('DIPOLE', 'QUADRUPOLE', 'MULLIKEN_CHARGES')
f=open( 'psi4out.xyz', 'w' )
f.write( "11  " )
f.write( str(ee) + "\n" )
f.write( MOL.save_string_xyz() )
f.close()
--------------------------------------------------------------------------

    Molecular point group: c1
  Charge       = 0
  Multiplicity = 1
  Basis Set: 6-31G*
  Basis Set:
  @DF-RHF Final Energy:  -266.84551768193319
    Total Energy =                       -266.8455176819331314
    Molecular point group: c1
  Basis Set: 6-31G*
  Basis Set:
  Basis Set: 6-31G*
  Basis Set:
  @DF-RHF Final Energy:  -266.84559058503044
    Total Energy =                       -266.8455905850304362
  Basis Set: 6-31G*
  Basis Set:
  Basis Set: 6-31G*
  Basis Set:
  @DF-RHF Final Energy:  -266.84562637164879
    Total Energy =                       -266.8456263716485637
  Basis Set: 6-31G*
  Basis Set:
  Basis Set: 6-31G*
  Basis Set:
  @DF-RHF Final Energy:  -266.84568354004654
    Total Energy =                       -266.8456835400464229
  Basis Set: 6-31G*
  Basis Set:
  Basis Set: 6-31G*
  Basis Set:
  @DF-RHF Final Energy:  -266.84570235017748
    Total Energy =                       -266.8457023501775893
  Basis Set: 6-31G*
  Basis Set:
  Charge       = 0
  Multiplicity = 1
  Basis Set: 6-31G*
  Basis Set:

    Orbital Energies (a.u.)
    -----------------------

    Doubly Occupied:

       1A    -20.614589     2A    -20.552023     3A    -11.382254
       4A    -11.244003     5A    -11.221410     6A     -1.476108
       7A     -1.366822     8A     -1.065241     9A     -0.916569
      10A     -0.802957    11A     -0.702330    12A     -0.690529
      13A     -0.659737    14A     -0.598406    15A     -0.593595
      16A     -0.532263    17A     -0.525715    18A     -0.506630
      19A     -0.478771    20A     -0.445364

  @DF-RHF Final Energy:  -266.84570309122262

   => Energetics <=

    Nuclear Repulsion Energy =            179.7566333534454373
    One-Electron Energy =                -720.4540443243510026
    Two-Electron Energy =                 273.8517078796827491
    DFT Exchange-Correlation Energy =       0.0000000000000000
    Empirical Dispersion Energy =           0.0000000000000000
    PCM Polarization Energy =               0.0000000000000000
    EFP Energy =                            0.0000000000000000
    Total Energy =                       -266.8457030912228447
    Molecular point group: c1
  Basis Set: 6-31G*
  Basis Set:

  -Total Gradient:
     Atom            X                  Y                   Z
    ------   -----------------  -----------------  -----------------
       1       -0.000021596571    -0.000005576982    -0.000043104924
       2       -0.000192553621     0.000245365291     0.000898635017
       3        0.000137561030    -0.000159006207    -0.001223013639
       4        0.000536852903    -0.000801427448     0.000926181669
       5       -0.000018780135    -0.000004284991     0.000005957068
       6        0.000034982539     0.000007764454     0.000007609785
       7       -0.000523784900     0.000734331382    -0.000555134650
       8        0.000020684751    -0.000008753574     0.000005817415
       9       -0.000010297304     0.000019342429    -0.000016046561
      10        0.000018596169    -0.000015181737    -0.000001236024
      11        0.000018335137    -0.000012572619    -0.000005665156

  **** Optimization is complete! (in 6 steps) ****
    Final optimized geometry and variables:
    Molecular point group: c1

    Geometry (in Angstrom), charge = 0, multiplicity = 1:

    H            2.306578723300    -0.025826151674     0.384443110526
    O            1.545656577914    -0.595205191800     0.446248124406
    C            0.491704185606     0.071422504893    -0.020591450923
    C           -0.760411710553    -0.768583037549    -0.009384007911
    O            0.571688456800     1.191896562915    -0.407222508360
    C           -2.033167890654     0.071180220280    -0.039755657973
    H           -0.710037811044    -1.408075607651    -0.887546495958
    H           -0.729206437756    -1.424135623244     0.852551331725
    H           -2.049517790022     0.716849768106    -0.908165666506
    H           -2.904707789977    -0.573385865516    -0.071931591684
    H           -2.108874890082     0.698088750949     0.841560926797

  Mulliken Charges: (a.u.)
   Center  Symbol    Alpha    Beta     Spin     Total
       1     H     0.26785  0.26785  0.00000  0.46429
       2     O     4.34999  4.34999  0.00000 -0.69997
       3     C     2.62374  2.62374  0.00000  0.75252
       4     C     3.20906  3.20906  0.00000 -0.41813
       5     O     4.27900  4.27900  0.00000 -0.55800
       6     C     3.24157  3.24157  0.00000 -0.48314
       7     H     0.39745  0.39745  0.00000  0.20510
       8     H     0.39835  0.39835  0.00000  0.20331
       9     H     0.40419  0.40419  0.00000  0.19162
      10     H     0.41600  0.41600  0.00000  0.16799
      11     H     0.41280  0.41280  0.00000  0.17440

   Total alpha = 20.00000, Total beta = 20.00000, Total charge =  0.00000
