  ==> Input File <==

--------------------------------------------------------------------------
set {
	reference rhf
	basis 6-31G*
}

set_num_threads( 4 )
memory 2 gb

molecule MOL {
0 1

H	 -1.037422	 -0.616869	 -0.175291
C	 -0.790252	 0.431209	 0.000000
N	 0.538815	 0.649616	 0.000000
O	 -1.634743	 1.260470	 0.168432
C	 1.521968	 -0.411503	 0.000000
H	 0.852804	 1.592852	 0.000000
H	 2.150599	 -0.357004	 -0.881901
H	 0.999455	 -1.354525	 0.000000
H	 2.150599	 -0.357004	 0.881901

	symmetry c1
}
set optking {
	frozen_dihedral = ("
		1 2 3 6
	")
}

ee = optimize('scf')
oeprop('DIPOLE', 'QUADRUPOLE', 'MULLIKEN_CHARGES')
f=open( 'psi4out.xyz', 'w' )
f.write( "9  " )
f.write( str(ee) + "\n" )
f.write( MOL.save_string_xyz() )
f.close()
--------------------------------------------------------------------------

    Molecular point group: c1
  Charge       = 0
  Multiplicity = 1
  Basis Set: 6-31G*
  Basis Set:
  @DF-RHF Final Energy:  -207.95786594356434
    Total Energy =                       -207.9578659435643431
    Molecular point group: c1
  Basis Set: 6-31G*
  Basis Set:
  Basis Set: 6-31G*
  Basis Set:
  @DF-RHF Final Energy:  -207.95763321716777
    Total Energy =                       -207.9576332171678246
  Basis Set: 6-31G*
  Basis Set:
  Basis Set: 6-31G*
  Basis Set:
  @DF-RHF Final Energy:  -207.95871188601791
    Total Energy =                       -207.9587118860179373
  Basis Set: 6-31G*
  Basis Set:
  Basis Set: 6-31G*
  Basis Set:
  @DF-RHF Final Energy:  -207.95883510340050
    Total Energy =                       -207.9588351034006166
  Basis Set: 6-31G*
  Basis Set:
  @DF-RHF Final Energy:  -207.95888361893128
    Total Energy =                       -207.9588836189313099
  @DF-RHF Final Energy:  -207.95891109042500
    Total Energy =                       -207.9589110904250049
  Basis Set: 6-31G*
  Basis Set:
  @DF-RHF Final Energy:  -207.95894504045532
    Total Energy =                       -207.9589450404552622
  Basis Set: 6-31G*
  Basis Set:
  Basis Set: 6-31G*
  Basis Set:
  @DF-RHF Final Energy:  -207.95896065471163
    Total Energy =                       -207.9589606547115750
  Basis Set: 6-31G*
  Basis Set:
  Basis Set: 6-31G*
  Basis Set:
  @DF-RHF Final Energy:  -207.95896218398985
    Total Energy =                       -207.9589621839898825
  Basis Set: 6-31G*
  Basis Set:
  Charge       = 0
  Multiplicity = 1
  Basis Set: 6-31G*
  Basis Set:

    Orbital Energies (a.u.)
    -----------------------

    Doubly Occupied:

       1A    -20.526537     2A    -15.590028     3A    -11.345198
       4A    -11.276468     5A     -1.390239     6A     -1.240150
       7A     -0.965976     8A     -0.845998     9A     -0.691395
      10A     -0.675342    11A     -0.634171    12A     -0.592915
      13A     -0.571125    14A     -0.543793    15A     -0.424928
      16A     -0.390550

  @DF-RHF Final Energy:  -207.95896221906366

   => Energetics <=

    Nuclear Repulsion Energy =            120.3651702909631780
    One-Electron Energy =                -521.2386416375220506
    Two-Electron Energy =                 192.9145091274953074
    DFT Exchange-Correlation Energy =       0.0000000000000000
    Empirical Dispersion Energy =           0.0000000000000000
    PCM Polarization Energy =               0.0000000000000000
    EFP Energy =                            0.0000000000000000
    Total Energy =                       -207.9589622190635509
    Molecular point group: c1
  Basis Set: 6-31G*
  Basis Set:

  -Total Gradient:
     Atom            X                  Y                   Z
    ------   -----------------  -----------------  -----------------
       1        0.000252896908     0.000237729931    -0.002143838576
       2       -0.000237072490    -0.000342729386     0.002073924561
       3       -0.000387841560     0.000291881884     0.002477118845
       4        0.000002405635    -0.000012087377    -0.000001147758
       5        0.000023266421    -0.000011512512    -0.000009368765
       6        0.000341261260    -0.000162339944    -0.002395566424
       7        0.000004240818    -0.000005016311     0.000001891830
       8       -0.000000277573     0.000009476475    -0.000002099935
       9        0.000001120583    -0.000005402762    -0.000000913779

  **** Optimization is complete! (in 10 steps) ****
    Final optimized geometry and variables:
    Molecular point group: c1

    Geometry (in Angstrom), charge = 0, multiplicity = 1:

    H           -0.987439442010    -1.099561406932    -0.191194731884
    C           -0.720192781028    -0.051664509766    -0.044242245999
    N            0.605296356404     0.134576891490     0.131640849076
    O           -1.538091193076     0.818361275531    -0.046910568293
    C            1.602492754950    -0.898064735703    -0.025636037939
    H            0.903119726761     1.086163057868     0.112555159411
    H            2.106025165018    -0.840734102092    -0.985849646608
    H            1.128583950509    -1.868116724690     0.052119649768
    H            2.344739769980    -0.827333183670     0.759839019162

  Mulliken Charges: (a.u.)
   Center  Symbol    Alpha    Beta     Spin     Total
       1     H     0.43098  0.43098  0.00000  0.13804
       2     C     2.74071  2.74071  0.00000  0.51857
       3     N     3.86867  3.86867  0.00000 -0.73733
       4     O     4.28294  4.28294  0.00000 -0.56588
       5     C     3.14312  3.14312  0.00000 -0.28625
       6     H     0.30529  0.30529  0.00000  0.38942
       7     H     0.41239  0.41239  0.00000  0.17522
       8     H     0.40878  0.40878  0.00000  0.18244
       9     H     0.40712  0.40712  0.00000  0.18577

   Total alpha = 16.00000, Total beta = 16.00000, Total charge = -0.00000
