  ==> Input File <==

--------------------------------------------------------------------------
set {
	reference rhf
	basis 6-31G*
}

set_num_threads( 4 )
memory 2 gb

molecule MOL {
0 1

H	 1.650460	 -3.007981	 -1.980823
O	 2.487459	 -2.659279	 -2.250843
C	 2.306361	 -1.770880	 -3.324158
C	 1.677217	 -0.445809	 -2.908115
H	 3.294116	 -1.594902	 -3.730415
H	 1.712566	 -2.237702	 -4.109183
C	 0.253669	 -0.577298	 -2.361224
H	 2.314241	 0.018476	 -2.159780
H	 1.672410	 0.213952	 -3.774175
C	 -0.369595	 0.774874	 -2.003466
H	 0.266525	 -1.214963	 -1.481688
H	 -0.373717	 -1.075304	 -3.100628
C	 -1.826466	 0.707529	 -1.530887
H	 0.235342	 1.256398	 -1.237285
H	 -0.320822	 1.420586	 -2.877754
C	 -2.037799	 -0.007733	 -0.193645
H	 -2.204817	 1.723946	 -1.443916
H	 -2.431040	 0.225194	 -2.297490
C	 -3.489788	 0.042957	 0.286558
H	 -1.395036	 0.443992	 0.560618
H	 -1.730335	 -1.047691	 -0.272747
C	 -4.216917	 1.317354	 -0.141063
H	 -4.025645	 -0.823308	 -0.095450
H	 -3.513059	 -0.038752	 1.371301
H	 -4.239342	 1.411634	 -1.223113
H	 -5.243387	 1.322503	 0.212445
H	 -3.726170	 2.201406	 0.256408

	symmetry c1
}
set optking {
	frozen_dihedral = ("
		20 16 19 22
	")
}

ee = optimize('scf')
oeprop('DIPOLE', 'QUADRUPOLE', 'MULLIKEN_CHARGES')
f=open( 'psi4out.xyz', 'w' )
f.write( "27  " )
f.write( str(ee) + "\n" )
f.write( MOL.save_string_xyz() )
f.close()
--------------------------------------------------------------------------

    Molecular point group: c1
  Charge       = 0
  Multiplicity = 1
  Basis Set: 6-31G*
  Basis Set:
  @DF-RHF Final Energy:  -388.27321212698854
    Total Energy =                       -388.2732121269889376
    Molecular point group: c1
  Basis Set: 6-31G*
  Basis Set:
  Basis Set: 6-31G*
  Basis Set:
  @DF-RHF Final Energy:  -388.27389046296901
    Total Energy =                       -388.2738904629693479
  Basis Set: 6-31G*
  Basis Set:
  Basis Set: 6-31G*
  Basis Set:
  @DF-RHF Final Energy:  -388.27605399449004
    Total Energy =                       -388.2760539944902121
  Basis Set: 6-31G*
  Basis Set:
  Basis Set: 6-31G*
  Basis Set:
  @DF-RHF Final Energy:  -388.27627361724029
    Total Energy =                       -388.2762736172398945
  Basis Set: 6-31G*
  Basis Set:
  @DF-RHF Final Energy:  -388.27626979431278
    Total Energy =                       -388.2762697943128387
  @DF-RHF Final Energy:  -388.27627159418745
    Total Energy =                       -388.2762715941873921
  Basis Set: 6-31G*
  Basis Set:
  @DF-RHF Final Energy:  -388.27634329583674
    Total Energy =                       -388.2763432958361136
  Basis Set: 6-31G*
  Basis Set:
  Basis Set: 6-31G*
  Basis Set:
  @DF-RHF Final Energy:  -388.27634127870260
    Total Energy =                       -388.2763412787027164
  Basis Set: 6-31G*
  Basis Set:
  Basis Set: 6-31G*
  Basis Set:
  @DF-RHF Final Energy:  -388.27634391015448
    Total Energy =                       -388.2763439101549920
  Basis Set: 6-31G*
  Basis Set:
  Charge       = 0
  Multiplicity = 1
  Basis Set: 6-31G*
  Basis Set:

    Orbital Energies (a.u.)
    -----------------------

    Doubly Occupied:

       1A    -20.552336     2A    -11.267082     3A    -11.219784
       4A    -11.217459     5A    -11.216742     6A    -11.215729
       7A    -11.215242     8A    -11.214441     9A    -11.208779
      10A     -1.359088    11A     -1.094579    12A     -1.059756
      13A     -1.009117    14A     -0.946315    15A     -0.895378
      16A     -0.830184    17A     -0.797790    18A     -0.766229
      19A     -0.693740    20A     -0.646511    21A     -0.635824
      22A     -0.615356    23A     -0.608087    24A     -0.587241
      25A     -0.579499    26A     -0.555166    27A     -0.537016
      28A     -0.527063    29A     -0.508255    30A     -0.499157
      31A     -0.485527    32A     -0.475863    33A     -0.467923
      34A     -0.452414    35A     -0.448249    36A     -0.442285
      37A     -0.423342

  @DF-RHF Final Energy:  -388.27634390921713

   => Energetics <=

    Nuclear Repulsion Energy =            462.1574081800426370
    One-Electron Energy =               -1442.3184048455714219
    Two-Electron Energy =                 591.8846527563114250
    DFT Exchange-Correlation Energy =       0.0000000000000000
    Empirical Dispersion Energy =           0.0000000000000000
    PCM Polarization Energy =               0.0000000000000000
    EFP Energy =                            0.0000000000000000
    Total Energy =                       -388.2763439092173030
    Molecular point group: c1
  Basis Set: 6-31G*
  Basis Set:

  -Total Gradient:
     Atom            X                  Y                   Z
    ------   -----------------  -----------------  -----------------
       1       -0.000005143843    -0.000000628624     0.000006197315
       2       -0.000016468053    -0.000000508734     0.000000057268
       3        0.000024513735     0.000012876009     0.000006355537
       4       -0.000009309141    -0.000004606894    -0.000016796157
       5        0.000001593511     0.000002580647    -0.000002720698
       6       -0.000000609041     0.000002896358     0.000002689935
       7        0.000005852296    -0.000000432736     0.000012362953
       8        0.000002456448    -0.000004668788    -0.000005967298
       9        0.000000592083    -0.000000181424    -0.000005108134
      10       -0.000001204475    -0.000002132023     0.000003144613
      11        0.000000618261    -0.000011016178    -0.000001159480
      12       -0.000001047081     0.000006701848     0.000002394938
      13       -0.000000177826    -0.000001884637    -0.000001482164
      14       -0.000001993182     0.000000421808     0.000001163812
      15        0.000001706640    -0.000002376957    -0.000002029745
      16       -0.001821189023     0.005593938664    -0.004648187296
      17       -0.000003073166     0.000004173112     0.000003357453
      18        0.000000474497     0.000000049392    -0.000001256376
      19        0.001852949946     0.001604021158     0.005943336221
      20        0.001075959125    -0.005226686218     0.002436466660
      21       -0.000001082950     0.000002815138     0.000001225173
      22       -0.001110959031    -0.001973988758    -0.003743645158
      23        0.000000893307     0.000001054423     0.000008668846
      24        0.000002479936     0.000001950367     0.000003288819
      25        0.000001672031     0.000002160065    -0.000005833620
      26        0.000000057226    -0.000003284640     0.000000721201
      27        0.000000437761    -0.000003242370     0.000002755382

  **** Optimization is complete! (in 10 steps) ****
    Final optimized geometry and variables:
    Molecular point group: c1

    Geometry (in Angstrom), charge = 0, multiplicity = 1:

    H            2.113913495116    -2.722198091547    -0.383639241806
    O            2.967112374591    -2.402745870931    -0.638752571019
    C            2.834707333397    -1.501433624754    -1.708387627121
    C            2.250559938918    -0.156083058370    -1.291865091675
    H            3.834013937603    -1.360564478422    -2.099778726137
    H            2.234705360122    -1.940440125944    -2.504650465833
    C            0.816546436812    -0.237527077255    -0.762739843988
    H            2.895270757347     0.279781612945    -0.533109007186
    H            2.281086531003     0.508249657620    -2.153889905347
    C            0.240801425626     1.135620765628    -0.404513249117
    H            0.795698616310    -0.881895779935     0.111461150853
    H            0.179977848308    -0.706252732880    -1.513302408253
    C           -1.223567695241     1.127342541675     0.052765391418
    H            0.856297563693     1.592332518774     0.368466411762
    H            0.323204474131     1.780664240174    -1.276730882369
    C           -1.453520478061     0.459627260014     1.410198809560
    H           -1.567943670729     2.156246190657     0.094417393169
    H           -1.831854470479     0.633752800518    -0.704122355928
    C           -2.917957079831     0.380163603318     1.888015018915
    H           -0.845996265246     0.941463917769     2.174441194543
    H           -1.076702125508    -0.559316841527     1.372747194950
    C           -3.810135499045     1.569683028789     1.525711356362
    H           -3.373051893428    -0.513090794791     1.465169712766
    H           -2.924518334033     0.236495595449     2.964624038925
    H           -3.933121425562     1.667363168605     0.452963956439
    H           -4.798230110025     1.444184892971     1.957847978860
    H           -3.406166977774     2.506596985019     1.900409299737

  Mulliken Charges: (a.u.)
   Center  Symbol    Alpha    Beta     Spin     Total
       1     H     0.27988  0.27988  0.00000  0.44024
       2     O     4.37093  4.37093  0.00000 -0.74186
       3     C     2.99740  2.99740  0.00000  0.00519
       4     C     3.16088  3.16088  0.00000 -0.32176
       5     H     0.41442  0.41442  0.00000  0.17115
       6     H     0.43204  0.43204  0.00000  0.13592
       7     C     3.16324  3.16324  0.00000 -0.32648
       8     H     0.41495  0.41495  0.00000  0.17010
       9     H     0.42435  0.42435  0.00000  0.15130
      10     C     3.15229  3.15229  0.00000 -0.30457
      11     H     0.42300  0.42300  0.00000  0.15401
      12     H     0.42546  0.42546  0.00000  0.14908
      13     C     3.15623  3.15623  0.00000 -0.31246
      14     H     0.42141  0.42141  0.00000  0.15718
      15     H     0.42136  0.42136  0.00000  0.15729
      16     C     3.15590  3.15590  0.00000 -0.31180
      17     H     0.41775  0.41775  0.00000  0.16449
      18     H     0.42465  0.42465  0.00000  0.15071
      19     C     3.15151  3.15151  0.00000 -0.30302
      20     H     0.42270  0.42270  0.00000  0.15460
      21     H     0.42231  0.42231  0.00000  0.15538
      22     C     3.24291  3.24291  0.00000 -0.48582
      23     H     0.42365  0.42365  0.00000  0.15269
      24     H     0.42003  0.42003  0.00000  0.15995
      25     H     0.41931  0.41931  0.00000  0.16137
      26     H     0.41924  0.41924  0.00000  0.16153
      27     H     0.42220  0.42220  0.00000  0.15560

   Total alpha = 37.00000, Total beta = 37.00000, Total charge = -0.00000
