  ==> Input File <==

--------------------------------------------------------------------------
set {
	reference rhf
	basis 6-31G*
}

set_num_threads( 1 )
memory 2 gb

molecule MOL {
0 1

H	 -3.970302	 -0.412738	 0.842894
C	 -2.918541	 -0.264499	 0.673757
C	 -2.423856	 1.015923	 0.476386
C	 -2.062177	 -1.354075	 0.653821
H	 -3.089089	 1.860070	 0.492091
C	 -1.071382	 1.205734	 0.258969
H	 -2.447461	 -2.345889	 0.807012
C	 -0.707966	 -1.166467	 0.436362
H	 -0.670984	 2.189323	 0.104355
C	 -0.209056	 0.115558	 0.238214
H	 -0.041648	 -2.006751	 0.420120
C	 1.239129	 0.373821	 0.000060
O	 1.970282	 -0.730723	 0.000018
O	 1.702185	 1.457476	 -0.173520
C	 3.377318	 -0.566646	 -0.000065
H	 3.695437	 -0.028981	 -0.881264
H	 3.789299	 -1.563704	 0.000236
H	 3.695516	 -0.028316	 0.880770

	symmetry c1
}
set optking {
	frozen_dihedral = ("
		12 13 15 16,
		13 12 10 6
	")
}

ee = energy('scf')
oeprop('DIPOLE', 'QUADRUPOLE', 'MULLIKEN_CHARGES')
f=open( 'psi4out.xyz', 'w' )
f.write( "18  " )
f.write( str(ee) + "\n" )
f.write( MOL.save_string_xyz() )
f.close()
--------------------------------------------------------------------------

    Molecular point group: c1

    Geometry (in Angstrom), charge = 0, multiplicity = 1:

       Center              X                  Y                   Z               Mass
    ------------   -----------------  -----------------  -----------------  -----------------
           H         -3.987873976902    -0.424360484067     0.602089953684     1.007825032070
           C         -2.936112976902    -0.276121484067     0.432952953684    12.000000000000
           C         -2.441427976902     1.004300515933     0.235581953684    12.000000000000
           C         -2.079748976902    -1.365697484067     0.413016953684    12.000000000000
           H         -3.106660976902     1.848447515933     0.251286953684     1.007825032070
           C         -1.088953976902     1.194111515933     0.018164953684    12.000000000000
           H         -2.465032976902    -2.357511484067     0.566207953684     1.007825032070
           C         -0.725537976902    -1.178089484067     0.195557953684    12.000000000000
           H         -0.688555976902     2.177700515933    -0.136449046316     1.007825032070
           C         -0.226627976902     0.103935515933    -0.002590046316    12.000000000000
           H         -0.059219976902    -2.018373484067     0.179315953684     1.007825032070
           C          1.221557023098     0.362198515933    -0.240744046316    12.000000000000
           O          1.952710023098    -0.742345484067    -0.240786046316    15.994914619560
           O          1.684613023098     1.445853515933    -0.414324046316    15.994914619560
           C          3.359746023098    -0.578268484067    -0.240869046316    12.000000000000
           H          3.677865023098    -0.040603484067    -1.122068046316     1.007825032070
           H          3.771727023098    -1.575326484067    -0.240568046316     1.007825032070
           H          3.677944023098    -0.039938484067     0.639965953684     1.007825032070

  Charge       = 0
  Multiplicity = 1
  Basis Set: 6-31G*
  Basis Set:

    Orbital Energies (a.u.)
    -----------------------

    Doubly Occupied:

       1A    -20.607006     2A    -20.544606     3A    -11.377916
       4A    -11.283121     5A    -11.245573     6A    -11.245355
       7A    -11.244174     8A    -11.241747     9A    -11.237540
      10A    -11.236772    11A     -1.472549    12A     -1.363923
      13A     -1.165332    14A     -1.048054    15A     -1.024848
      16A     -0.978125    17A     -0.860389    18A     -0.834389
      19A     -0.777763    20A     -0.739890    21A     -0.683302
      22A     -0.677188    23A     -0.671800    24A     -0.631187
      25A     -0.623988    26A     -0.597856    27A     -0.585267
      28A     -0.561433    29A     -0.529164    30A     -0.516688
      31A     -0.503343    32A     -0.498953    33A     -0.459075
      34A     -0.444204    35A     -0.344938    36A     -0.341025

  @DF-RHF Final Energy:  -457.35004632196296

   => Energetics <=

    Nuclear Repulsion Energy =            493.0538647704929645
    One-Electron Energy =               -1600.4107487063240569
    Two-Electron Energy =                 650.0068376138690383
    DFT Exchange-Correlation Energy =       0.0000000000000000
    Empirical Dispersion Energy =           0.0000000000000000
    PCM Polarization Energy =               0.0000000000000000
    EFP Energy =                            0.0000000000000000
    Total Energy =                       -457.3500463219620542

  Mulliken Charges: (a.u.)
   Center  Symbol    Alpha    Beta     Spin     Total
       1     H     0.39537  0.39537  0.00000  0.20925
       2     C     3.08998  3.08998  0.00000 -0.17996
       3     C     3.10710  3.10710  0.00000 -0.21420
       4     C     3.10715  3.10715  0.00000 -0.21430
       5     H     0.39535  0.39535  0.00000  0.20930
       6     C     3.08642  3.08642  0.00000 -0.17283
       7     H     0.39625  0.39625  0.00000  0.20750
       8     C     3.08716  3.08716  0.00000 -0.17433
       9     H     0.37596  0.37596  0.00000  0.24808
      10     C     3.07734  3.07734  0.00000 -0.15469
      11     H     0.38047  0.38047  0.00000  0.23906
      12     C     2.57966  2.57966  0.00000  0.84067
      13     O     4.31494  4.31494  0.00000 -0.62989
      14     O     4.29123  4.29123  0.00000 -0.58246
      15     C     3.09293  3.09293  0.00000 -0.18587
      16     H     0.40528  0.40528  0.00000  0.18944
      17     H     0.40790  0.40790  0.00000  0.18421
      18     H     0.40950  0.40950  0.00000  0.18101

   Total alpha = 36.00000, Total beta = 36.00000, Total charge =  0.00000
