  ==> Input File <==

--------------------------------------------------------------------------
set {
	reference rhf
	basis cc-pvtz
}

set_num_threads( 4 )
memory 2 gb

molecule MOL {
0 1

H	 -0.246427	 1.306903	 -1.047749
O	 0.057669	 1.301365	 -0.158528
C	 0.004145	 -0.005141	 0.363049
C	 1.199168	 -0.827145	 -0.096690
C	 -1.316386	 -0.602081	 -0.083515
H	 0.012026	 0.043363	 1.450619
H	 1.216685	 -0.896776	 -1.178167
H	 2.129940	 -0.372354	 0.228035
H	 1.160783	 -1.829622	 0.314294
H	 -1.357882	 -0.655920	 -1.165207
H	 -2.140147	 0.011735	 0.257253
H	 -1.440790	 -1.601175	 0.317669

	symmetry c1
}
set optking {
	frozen_dihedral = ("
		1 2 3 4
	")
}

ee = optimize('scf')
oeprop('DIPOLE', 'QUADRUPOLE', 'MULLIKEN_CHARGES')
f=open( 'psi4out.xyz', 'w' )
f.write( "12  " )
f.write( str(ee) + "\n" )
f.write( MOL.save_string_xyz() )
f.close()
--------------------------------------------------------------------------

    Molecular point group: c1
  Charge       = 0
  Multiplicity = 1
  Basis Set: CC-PVTZ
  Basis Set:
  @DF-RHF Final Energy:  -193.19329663713029
    Total Energy =                       -193.1932966371302030
    Molecular point group: c1
  Basis Set: CC-PVTZ
  Basis Set:
  Basis Set: CC-PVTZ
  Basis Set:
  @DF-RHF Final Energy:  -193.19490651089336
    Total Energy =                       -193.1949065108932473
  Basis Set: CC-PVTZ
  Basis Set:
  Basis Set: CC-PVTZ
  Basis Set:
  @DF-RHF Final Energy:  -193.19526413987418
    Total Energy =                       -193.1952641398742117
  Basis Set: CC-PVTZ
  Basis Set:
  Charge       = 0
  Multiplicity = 1
  Basis Set: CC-PVTZ
  Basis Set:

    Orbital Energies (a.u.)
    -----------------------

    Doubly Occupied:

       1A    -20.543603     2A    -11.273913     3A    -11.213755
       4A    -11.208072     5A     -1.364322     6A     -1.043071
       7A     -0.942176     8A     -0.819922     9A     -0.663313
      10A     -0.646539    11A     -0.604340    12A     -0.574310
      13A     -0.545294    14A     -0.517488    15A     -0.511734
      16A     -0.466540    17A     -0.433734

  @DF-RHF Final Energy:  -193.19526664870662

   => Energetics <=

    Nuclear Repulsion Energy =            135.5728222073484801
    One-Electron Energy =                -530.7919204355919192
    Two-Electron Energy =                 202.0238315795365907
    DFT Exchange-Correlation Energy =       0.0000000000000000
    Empirical Dispersion Energy =           0.0000000000000000
    PCM Polarization Energy =               0.0000000000000000
    EFP Energy =                            0.0000000000000000
    Total Energy =                       -193.1952666487068200
    Molecular point group: c1
  Basis Set: CC-PVTZ
  Basis Set:

  -Total Gradient:
     Atom            X                  Y                   Z
    ------   -----------------  -----------------  -----------------
       1       -0.001180396123     0.000179122853     0.000366809123
       2        0.001652896301    -0.000242695033    -0.000141752822
       3       -0.000748110226    -0.000254341320    -0.000829669257
       4        0.000311009666     0.000316123317     0.000627264644
       5       -0.000107554592    -0.000061892805    -0.000066410229
       6        0.000019191194     0.000016548130    -0.000036054460
       7       -0.000000359779     0.000006245782     0.000023136125
       8        0.000042858032    -0.000008490498     0.000000562078
       9       -0.000037851999     0.000027353675     0.000021716964
      10        0.000004844358     0.000001171866     0.000010447789
      11        0.000018033378     0.000014897452     0.000015909088
      12        0.000025439790     0.000005956582     0.000008040956

  **** Optimization is complete! (in 4 steps) ****
    Final optimized geometry and variables:
    Molecular point group: c1

    Geometry (in Angstrom), charge = 0, multiplicity = 1:

    H           -0.146304397815     1.380554722735    -1.005777936734
    O            0.113120983600     1.328398570327    -0.103263442320
    C            0.005456950790     0.001193192399     0.353256333471
    C            1.207118579892    -0.820218541781    -0.089146385351
    C           -1.317541289121    -0.620219471359    -0.067083873298
    H            0.022450436492     0.079532585666     1.433743078044
    H            1.230830884469    -0.918695953079    -1.170554127657
    H            2.124090688457    -0.338938665929     0.225626257932
    H            1.175645295311    -1.816562522685     0.337940739984
    H           -1.377057355275    -0.706026976402    -1.149130770323
    H           -2.146195314599    -0.011115804076     0.272025103386
    H           -1.428963033249    -1.614555177951     0.349037702286

  Mulliken Charges: (a.u.)
   Center  Symbol    Alpha    Beta     Spin     Total
       1     H     0.39438  0.39438  0.00000  0.21124
       2     O     4.20952  4.20952  0.00000 -0.41903
       3     C     2.92644  2.92644  0.00000  0.14712
       4     C     3.14263  3.14263  0.00000 -0.28526
       5     C     3.15008  3.15008  0.00000 -0.30017
       6     H     0.45226  0.45226  0.00000  0.09549
       7     H     0.46132  0.46132  0.00000  0.07736
       8     H     0.44552  0.44552  0.00000  0.10895
       9     H     0.45779  0.45779  0.00000  0.08443
      10     H     0.46150  0.46150  0.00000  0.07700
      11     H     0.44416  0.44416  0.00000  0.11168
      12     H     0.45440  0.45440  0.00000  0.09120

   Total alpha = 17.00000, Total beta = 17.00000, Total charge =  0.00000
