  ==> Input File <==

--------------------------------------------------------------------------
set {
	reference rhf
	basis 6-31G*
}

set_num_threads( 4 )
memory 2 gb

molecule MOL {
0 1

O	 0.399343	 0.249864	 -0.935241
C	 1.122059	 0.121804	 -0.000188
C	 0.983051	 0.837004	 1.321576
O	 2.172624	 -0.688929	 0.000216
C	 -0.211320	 1.784585	 1.375511
H	 0.918520	 0.077786	 2.096287
H	 1.914274	 1.366521	 1.503762
C	 -0.328622	 2.495962	 2.724418
H	 -1.120551	 1.227049	 1.173131
H	 -0.123604	 2.517389	 0.579391
C	 -1.521980	 3.448338	 2.786699
H	 -0.415444	 1.757172	 3.518601
H	 0.585988	 3.050909	 2.923402
H	 -2.455555	 2.917162	 2.625627
H	 -1.582396	 3.939238	 3.752951
H	 -1.446654	 4.220485	 2.026597
C	 3.452279	 -0.082609	 0.000533
H	 3.583069	 0.529321	 -0.880332
H	 4.163299	 -0.894027	 0.001117
H	 3.582335	 0.529955	 0.881077

	symmetry c1
}
set optking {
	frozen_dihedral = ("
		1 2 4 17
	")
}

ee = optimize('scf')
oeprop('DIPOLE', 'QUADRUPOLE', 'MULLIKEN_CHARGES')
f=open( 'psi4out.xyz', 'w' )
f.write( "20  " )
f.write( str(ee) + "\n" )
f.write( MOL.save_string_xyz() )
f.close()
--------------------------------------------------------------------------

    Molecular point group: c1
  Charge       = 0
  Multiplicity = 1
  Basis Set: 6-31G*
  Basis Set:
  @DF-RHF Final Energy:  -383.91721751538228
    Total Energy =                       -383.9172175153827311
    Molecular point group: c1
  Basis Set: 6-31G*
  Basis Set:
  Basis Set: 6-31G*
  Basis Set:
  @DF-RHF Final Energy:  -383.91626086454471
    Total Energy =                       -383.9162608645449382
  Basis Set: 6-31G*
  Basis Set:
  Basis Set: 6-31G*
  Basis Set:
  @DF-RHF Final Energy:  -383.91916247437081
    Total Energy =                       -383.9191624743707507
  Basis Set: 6-31G*
  Basis Set:
  Basis Set: 6-31G*
  Basis Set:
  @DF-RHF Final Energy:  -383.92038264172407
    Total Energy =                       -383.9203826417241316
  Basis Set: 6-31G*
  Basis Set:
  Basis Set: 6-31G*
  Basis Set:
  @DF-RHF Final Energy:  -383.92044353549846
    Total Energy =                       -383.9204435354987481
  Basis Set: 6-31G*
  Basis Set:
  Basis Set: 6-31G*
  Basis Set:
  @DF-RHF Final Energy:  -383.92045618377460
    Total Energy =                       -383.9204561837744905
  Basis Set: 6-31G*
  Basis Set:
  Charge       = 0
  Multiplicity = 1
  Basis Set: 6-31G*
  Basis Set:

    Orbital Energies (a.u.)
    -----------------------

    Doubly Occupied:

       1A    -20.587098     2A    -20.555424     3A    -11.375083
       4A    -11.293892     5A    -11.241427     6A    -11.223497
       7A    -11.222798     8A    -11.212955     9A     -1.458675
      10A     -1.367694    11A     -1.090589    12A     -1.017954
      13A     -0.974665    14A     -0.898349    15A     -0.808618
      16A     -0.766048    17A     -0.696434    18A     -0.677714
      19A     -0.676466    20A     -0.646030    21A     -0.616678
      22A     -0.590410    23A     -0.589934    24A     -0.551325
      25A     -0.538188    26A     -0.515780    27A     -0.493748
      28A     -0.486874    29A     -0.480291    30A     -0.473314
      31A     -0.451917    32A     -0.433735

  @DF-RHF Final Energy:  -383.92045715850236

   => Energetics <=

    Nuclear Repulsion Energy =            381.6269884902735612
    One-Electron Energy =               -1279.0676816213558595
    Two-Electron Energy =                 513.5202359725797123
    DFT Exchange-Correlation Energy =       0.0000000000000000
    Empirical Dispersion Energy =           0.0000000000000000
    PCM Polarization Energy =               0.0000000000000000
    EFP Energy =                            0.0000000000000000
    Total Energy =                       -383.9204571585025860
    Molecular point group: c1
  Basis Set: 6-31G*
  Basis Set:

  -Total Gradient:
     Atom            X                  Y                   Z
    ------   -----------------  -----------------  -----------------
       1        0.000369700918     0.000393513612    -0.000253995277
       2       -0.000492413599    -0.000667286876     0.000117287142
       3       -0.000005882055     0.000037296883    -0.000034556725
       4        0.000201222287     0.000264964650     0.000644506944
       5        0.000017046570    -0.000013005537     0.000012961696
       6        0.000000966064    -0.000013017011     0.000012432315
       7        0.000003006110    -0.000011257862     0.000029350441
       8        0.000000812277     0.000003434992    -0.000010378608
       9        0.000002725953     0.000010242871    -0.000003012653
      10        0.000003406051     0.000006286080    -0.000005169685
      11       -0.000005568596    -0.000005285139     0.000011442298
      12        0.000006960321     0.000002836045    -0.000000053319
      13       -0.000006103897     0.000006370395    -0.000000944361
      14        0.000000868287     0.000001316949    -0.000002255142
      15       -0.000006379698     0.000001465912     0.000003110609
      16        0.000003223392    -0.000002998303     0.000002240107
      17       -0.000102004418    -0.000012000117    -0.000544333777
      18        0.000026033734     0.000012656541    -0.000002177006
      19       -0.000001413565    -0.000008674786     0.000009954548
      20       -0.000016206141    -0.000006859292     0.000013590458

  **** Optimization is complete! (in 7 steps) ****
    Final optimized geometry and variables:
    Molecular point group: c1

    Geometry (in Angstrom), charge = 0, multiplicity = 1:

    O           -0.346377389448    -0.724328621184    -1.795280472893
    C            0.378764145749    -0.843590332291    -0.870498747840
    C            0.212821373502    -0.116087982588     0.445161682912
    O            1.405156604181    -1.723243110865    -0.905824706258
    C           -1.012500002704     0.792271314008     0.490488207043
    H            0.170426455451    -0.874241638045     1.223187990941
    H            1.116409642762     0.455936762598     0.641099540502
    C           -1.159840848565     1.504917815118     1.835763115463
    H           -1.900721116505     0.202965613368     0.286421939465
    H           -0.945748467779     1.523819618784    -0.308808050341
    C           -2.388449509957     2.411878748015     1.890462650498
    H           -1.221079318093     0.767076673249     2.633125925011
    H           -0.267498410719     2.095350907355     2.034767949922
    H           -3.300666021902     1.844873430256     1.729824877978
    H           -2.469770819187     2.904655469793     2.854175968973
    H           -2.340424352327     3.182626106867     1.126753871068
    C            2.721994159784    -1.222799252737    -0.967995939900
    H            2.836427383827    -0.544819545725    -1.805918606020
    H            3.364444926802    -2.077100940513    -1.113323753433
    H            3.004929548038    -0.720080880722    -0.050321814078

  Mulliken Charges: (a.u.)
   Center  Symbol    Alpha    Beta     Spin     Total
       1     O     4.25088  4.25088  0.00000 -0.50176
       2     C     2.61179  2.61179  0.00000  0.77643
       3     C     3.21945  3.21945  0.00000 -0.43890
       4     O     4.31367  4.31367  0.00000 -0.62734
       5     C     3.15015  3.15015  0.00000 -0.30030
       6     H     0.39891  0.39891  0.00000  0.20218
       7     H     0.40749  0.40749  0.00000  0.18501
       8     C     3.15436  3.15436  0.00000 -0.30872
       9     H     0.40992  0.40992  0.00000  0.18015
      10     H     0.41199  0.41199  0.00000  0.17603
      11     C     3.23947  3.23947  0.00000 -0.47893
      12     H     0.42243  0.42243  0.00000  0.15514
      13     H     0.42405  0.42405  0.00000  0.15191
      14     H     0.41916  0.41916  0.00000  0.16168
      15     H     0.41842  0.41842  0.00000  0.16316
      16     H     0.41983  0.41983  0.00000  0.16035
      17     C     3.09276  3.09276  0.00000 -0.18552
      18     H     0.41332  0.41332  0.00000  0.17336
      19     H     0.40090  0.40090  0.00000  0.19819
      20     H     0.42106  0.42106  0.00000  0.15789

   Total alpha = 32.00000, Total beta = 32.00000, Total charge =  0.00000
