  ==> Input File <==

--------------------------------------------------------------------------
set {
	reference rhf
	basis 6-31G*
}

set_num_threads( 4 )
memory 2 gb

molecule MOL {
0 1

H	 0.698760	 1.495078	 0.970963
C	 0.266762	 0.515167	 1.145587
N	 -0.528168	 0.128977	 -0.000000
H	 -0.367154	 0.585342	 2.022093
H	 1.085508	 -0.174198	 1.368518
C	 0.248044	 -0.037491	 -1.209632
H	 -1.024713	 -0.715771	 0.202168
H	 0.998722	 0.743888	 -1.266824
H	 -0.398417	 0.061950	 -2.074060
H	 0.763621	 -0.999315	 -1.275517

	symmetry c1
}
set optking {
	frozen_dihedral = ("
		2 3 6 8
	")
}

ee = optimize('scf')
oeprop('DIPOLE', 'QUADRUPOLE', 'MULLIKEN_CHARGES')
f=open( 'psi4out.xyz', 'w' )
f.write( "10  " )
f.write( str(ee) + "\n" )
f.write( MOL.save_string_xyz() )
f.close()
--------------------------------------------------------------------------

    Molecular point group: c1
  Charge       = 0
  Multiplicity = 1
  Basis Set: 6-31G*
  Basis Set:
  @DF-RHF Final Energy:  -134.23680800086106
    Total Energy =                       -134.2368080008609184
    Molecular point group: c1
  Basis Set: 6-31G*
  Basis Set:
  Basis Set: 6-31G*
  Basis Set:
  @DF-RHF Final Energy:  -134.23700055767966
    Total Energy =                       -134.2370005576796075
  Basis Set: 6-31G*
  Basis Set:
  Basis Set: 6-31G*
  Basis Set:
  @DF-RHF Final Energy:  -134.23702857870586
    Total Energy =                       -134.2370285787058606
  Basis Set: 6-31G*
  Basis Set:
  Charge       = 0
  Multiplicity = 1
  Basis Set: 6-31G*
  Basis Set:

    Orbital Energies (a.u.)
    -----------------------

    Doubly Occupied:

       1A    -15.536061     2A    -11.236196     3A    -11.235874
       4A     -1.197197     5A     -0.947678     6A     -0.854801
       7A     -0.661747     8A     -0.609162     9A     -0.590825
      10A     -0.539759    11A     -0.513198    12A     -0.508323
      13A     -0.356820

  @DF-RHF Final Energy:  -134.23702993898377

   => Energetics <=

    Nuclear Repulsion Energy =             84.5615584229988713
    One-Electron Energy =                -348.0218978764153235
    Two-Electron Energy =                 129.2233095144326853
    DFT Exchange-Correlation Energy =       0.0000000000000000
    Empirical Dispersion Energy =           0.0000000000000000
    PCM Polarization Energy =               0.0000000000000000
    EFP Energy =                            0.0000000000000000
    Total Energy =                       -134.2370299389837669
    Molecular point group: c1
  Basis Set: 6-31G*
  Basis Set:

  -Total Gradient:
     Atom            X                  Y                   Z
    ------   -----------------  -----------------  -----------------
       1       -0.000039131105    -0.000039137747    -0.000047613505
       2       -0.000387045141     0.002827225484    -0.000508506034
       3        0.001165021445    -0.004486537578     0.001360301793
       4        0.000005274921     0.000009501500     0.000033983435
       5       -0.000035493944     0.000010033075    -0.000040836620
       6       -0.003205807230     0.003920820004    -0.002728320515
       7        0.000034637493     0.000002655077    -0.000001977897
       8        0.002464333276    -0.002226959220     0.001869329944
       9       -0.000013440179    -0.000017762643     0.000051072192
      10        0.000011650464     0.000000162047     0.000012567207

  **** Optimization is complete! (in 4 steps) ****
    Final optimized geometry and variables:
    Molecular point group: c1

    Geometry (in Angstrom), charge = 0, multiplicity = 1:

    H            0.686934519234     1.303106831729     1.000327040110
    C            0.256558371262     0.322212417037     1.170340947651
    N           -0.532714764063    -0.060570751870     0.020721870156
    H           -0.384040050994     0.390130773342     2.042282730806
    H            1.074389560213    -0.365476836831     1.402801553263
    C            0.227834101832    -0.224215396405    -1.200928965115
    H           -1.063957522643    -0.884545118401     0.215848228121
    H            0.976539849212     0.557452731294    -1.263740204891
    H           -0.422720767099    -0.152697845089    -2.065057849921
    H            0.767001744276    -1.173213029720    -1.256172135944

  Mulliken Charges: (a.u.)
   Center  Symbol    Alpha    Beta     Spin     Total
       1     H     0.41790  0.41790  0.00000  0.16421
       2     C     3.14340  3.14340  0.00000 -0.28679
       3     N     3.84223  3.84223  0.00000 -0.68445
       4     H     0.41739  0.41739  0.00000  0.16523
       5     H     0.43522  0.43522  0.00000  0.12957
       6     C     3.14361  3.14361  0.00000 -0.28723
       7     H     0.33173  0.33173  0.00000  0.33654
       8     H     0.41965  0.41965  0.00000  0.16069
       9     H     0.41544  0.41544  0.00000  0.16912
      10     H     0.43344  0.43344  0.00000  0.13312

   Total alpha = 13.00000, Total beta = 13.00000, Total charge = -0.00000
