  ==> Input File <==

--------------------------------------------------------------------------
set {
	reference rhf
	basis 6-31G*
}

set_num_threads( 1 )
memory 2 gb

molecule MOL {
0 1

H	 3.893188	 0.355400	 -0.101367
N	 3.092854	 -0.246221	 -0.068770
C	 1.865559	 0.531981	 0.018834
H	 3.199514	 -0.826043	 0.741946
C	 0.645745	 -0.382037	 -0.029944
H	 1.841966	 1.207024	 -0.831236
H	 1.815756	 1.155410	 0.915079
C	 -0.679275	 0.379305	 0.025956
H	 0.698998	 -0.976915	 -0.937203
H	 0.693479	 -1.083846	 0.802235
C	 -1.881873	 -0.523786	 0.306239
H	 -0.836160	 0.900149	 -0.917420
H	 -0.624762	 1.149931	 0.793426
C	 -3.204241	 0.240582	 0.357174
H	 -1.939132	 -1.293717	 -0.460013
H	 -1.729132	 -1.043641	 1.249678
H	 -3.402503	 0.744163	 -0.584853
H	 -4.037182	 -0.426464	 0.556835
H	 -3.190979	 0.995876	 1.138036

	symmetry c1
}
set optking {
	frozen_dihedral = ("
		6 3 5 9,
		12 8 11 15,
		1 2 3 6
	")
}

ee = energy('scf')
oeprop('DIPOLE', 'QUADRUPOLE', 'MULLIKEN_CHARGES')
f=open( 'psi4out.xyz', 'w' )
f.write( "19  " )
f.write( str(ee) + "\n" )
f.write( MOL.save_string_xyz() )
f.close()
--------------------------------------------------------------------------

    Molecular point group: c1

    Geometry (in Angstrom), charge = 0, multiplicity = 1:

       Center              X                  Y                   Z               Mass
    ------------   -----------------  -----------------  -----------------  -----------------
           H          3.886125338584     0.351166883924    -0.211117174319     1.007825032070
           N          3.085791338584    -0.250454116076    -0.178520174319    14.003074004780
           C          1.858496338584     0.527747883924    -0.090916174319    12.000000000000
           H          3.192451338584    -0.830276116076     0.632195825681     1.007825032070
           C          0.638682338584    -0.386270116076    -0.139694174319    12.000000000000
           H          1.834903338584     1.202790883924    -0.940986174319     1.007825032070
           H          1.808693338584     1.151176883924     0.805328825681     1.007825032070
           C         -0.686337661416     0.375071883924    -0.083794174319    12.000000000000
           H          0.691935338584    -0.981148116076    -1.046953174319     1.007825032070
           H          0.686416338584    -1.088079116076     0.692484825681     1.007825032070
           C         -1.888935661416    -0.528019116076     0.196488825681    12.000000000000
           H         -0.843222661416     0.895915883924    -1.027170174319     1.007825032070
           H         -0.631824661416     1.145697883924     0.683675825681     1.007825032070
           C         -3.211303661416     0.236348883924     0.247423825681    12.000000000000
           H         -1.946194661416    -1.297950116076    -0.569763174319     1.007825032070
           H         -1.736194661416    -1.047874116076     1.139927825681     1.007825032070
           H         -3.409565661416     0.739929883924    -0.694603174319     1.007825032070
           H         -4.044244661416    -0.430697116076     0.447084825681     1.007825032070
           H         -3.198041661416     0.991642883924     1.028285825681     1.007825032070

  Charge       = 0
  Multiplicity = 1
  Basis Set: 6-31G*
  Basis Set:

    Orbital Energies (a.u.)
    -----------------------

    Doubly Occupied:

       1A    -15.532457     2A    -11.239808     3A    -11.214127
       4A    -11.212560     5A    -11.209261     6A    -11.207546
       7A     -1.176596     8A     -1.073019     9A     -0.998382
      10A     -0.900176    11A     -0.813112    12A     -0.789406
      13A     -0.665029    14A     -0.641844    15A     -0.615464
      16A     -0.590293    17A     -0.563018    18A     -0.548317
      19A     -0.532505    20A     -0.496878    21A     -0.482230
      22A     -0.464997    23A     -0.460611    24A     -0.448976
      25A     -0.381118

  @DF-RHF Final Energy:  -251.35112029243493

   => Energetics <=

    Nuclear Repulsion Energy =            245.7201654335411263
    One-Electron Energy =                -825.6271352596020279
    Two-Electron Energy =                 328.5558495336255760
    DFT Exchange-Correlation Energy =       0.0000000000000000
    Empirical Dispersion Energy =           0.0000000000000000
    PCM Polarization Energy =               0.0000000000000000
    EFP Energy =                            0.0000000000000000
    Total Energy =                       -251.3511202924353825

  Mulliken Charges: (a.u.)
   Center  Symbol    Alpha    Beta     Spin     Total
       1     H     0.33249  0.33249  0.00000  0.33502
       2     N     3.92197  3.92197  0.00000 -0.84394
       3     C     3.06059  3.06059  0.00000 -0.12118
       4     H     0.33534  0.33534  0.00000  0.32932
       5     C     3.15172  3.15172  0.00000 -0.30345
       6     H     0.42087  0.42087  0.00000  0.15827
       7     H     0.43460  0.43460  0.00000  0.13080
       8     C     3.15514  3.15514  0.00000 -0.31029
       9     H     0.41251  0.41251  0.00000  0.17499
      10     H     0.42783  0.42783  0.00000  0.14434
      11     C     3.15124  3.15124  0.00000 -0.30248
      12     H     0.42246  0.42246  0.00000  0.15509
      13     H     0.42515  0.42515  0.00000  0.14971
      14     C     3.23939  3.23939  0.00000 -0.47877
      15     H     0.42193  0.42193  0.00000  0.15613
      16     H     0.42340  0.42340  0.00000  0.15321
      17     H     0.42171  0.42171  0.00000  0.15657
      18     H     0.41942  0.41942  0.00000  0.16115
      19     H     0.42224  0.42224  0.00000  0.15552

   Total alpha = 25.00000, Total beta = 25.00000, Total charge =  0.00000
