  ==> Input File <==

--------------------------------------------------------------------------
set {
	reference rhf
	basis cc-pvtz
}

set_num_threads( 4 )
memory 2 gb

molecule MOL {
0 1

H	 -3.034039	 -0.667848	 0.004703
O	 -2.240597	 -1.171748	 0.000934
C	 -1.159675	 -0.364500	 0.000370
C	 0.089172	 -0.799434	 0.394866
C	 -1.345296	 0.944578	 -0.416658
H	 0.234909	 -1.813263	 0.720398
C	 1.149526	 0.090057	 0.368736
H	 -2.329132	 1.251442	 -0.714711
C	 -0.286331	 1.829568	 -0.444340
H	 2.122046	 -0.243809	 0.677782
C	 0.972037	 1.391224	 -0.043900
C	 -0.483235	 3.246680	 -0.920434
H	 1.804545	 2.068908	 -0.055616
H	 0.036656	 3.947879	 -0.279454
H	 -1.530792	 3.515236	 -0.936216
H	 -0.092711	 3.369905	 -1.924899

	symmetry c1
}
set optking {
	frozen_dihedral = ("
		5 3 2 1
	")
}

ee = optimize('scf')
oeprop('DIPOLE', 'QUADRUPOLE', 'MULLIKEN_CHARGES')
f=open( 'psi4out.xyz', 'w' )
f.write( "16  " )
f.write( str(ee) + "\n" )
f.write( MOL.save_string_xyz() )
f.close()
--------------------------------------------------------------------------

    Molecular point group: c1
  Charge       = 0
  Multiplicity = 1
  Basis Set: CC-PVTZ
  Basis Set:
  @DF-RHF Final Energy:  -344.71824169586768
    Total Energy =                       -344.7182416958681301
    Molecular point group: c1
  Basis Set: CC-PVTZ
  Basis Set:
  Basis Set: CC-PVTZ
  Basis Set:
  @DF-RHF Final Energy:  -344.71994212682182
    Total Energy =                       -344.7199421268218202
  Basis Set: CC-PVTZ
  Basis Set:
  Basis Set: CC-PVTZ
  Basis Set:
  @DF-RHF Final Energy:  -344.72008024202700
    Total Energy =                       -344.7200802420268246
  Basis Set: CC-PVTZ
  Basis Set:
  Basis Set: CC-PVTZ
  Basis Set:
  @DF-RHF Final Energy:  -344.72009781281088
    Total Energy =                       -344.7200978128111046
  Basis Set: CC-PVTZ
  Basis Set:
  @DF-RHF Final Energy:  -344.72010353557181
    Total Energy =                       -344.7201035355716385
  @DF-RHF Final Energy:  -344.72010589970193
    Total Energy =                       -344.7201058997017071
  @DF-RHF Final Energy:  -344.72011223308249
    Total Energy =                       -344.7201122330826593
  @DF-RHF Final Energy:  -344.72012996373951
    Total Energy =                       -344.7201299637393390
  @DF-RHF Final Energy:  -344.71989991630443
    Total Energy =                       -344.7198999163041435
  @DF-RHF Final Energy:  -344.72013849418892
    Total Energy =                       -344.7201384941889160
  @DF-RHF Final Energy:  -344.72014430514685
    Total Energy =                       -344.7201443051469596
  @DF-RHF Final Energy:  -344.72015002983585
    Total Energy =                       -344.7201500298355654
  @DF-RHF Final Energy:  -344.72016638883679
    Total Energy =                       -344.7201663888366738
  @DF-RHF Final Energy:  -344.72018142506658
    Total Energy =                       -344.7201814250669827
  Basis Set: CC-PVTZ
  Basis Set:
  @DF-RHF Final Energy:  -344.72020528626518
    Total Energy =                       -344.7202052862648998
  Basis Set: CC-PVTZ
  Basis Set:
  Basis Set: CC-PVTZ
  Basis Set:
  @DF-RHF Final Energy:  -344.72021545308979
    Total Energy =                       -344.7202154530900202
  Basis Set: CC-PVTZ
  Basis Set:
  Basis Set: CC-PVTZ
  Basis Set:
  @DF-RHF Final Energy:  -344.72022132315186
    Total Energy =                       -344.7202213231518044
  Basis Set: CC-PVTZ
  Basis Set:
  Charge       = 0
  Multiplicity = 1
  Basis Set: CC-PVTZ
  Basis Set:

    Orbital Energies (a.u.)
    -----------------------

    Doubly Occupied:

       1A    -20.581771     2A    -11.294698     3A    -11.242101
       4A    -11.230935     5A    -11.221603     6A    -11.219039
       7A    -11.215288     8A    -11.213678     9A     -1.412091
      10A     -1.154534    11A     -1.047681    12A     -1.006804
      13A     -0.940870    14A     -0.844556    15A     -0.802865
      16A     -0.732339    17A     -0.683626    18A     -0.651886
      19A     -0.605826    20A     -0.597021    21A     -0.580345
      22A     -0.570079    23A     -0.569850    24A     -0.535935
      25A     -0.506817    26A     -0.484761    27A     -0.472406
      28A     -0.333630    29A     -0.311763

  @DF-RHF Final Energy:  -344.72022210950178

   => Energetics <=

    Nuclear Repulsion Energy =            346.3854747859060694
    One-Electron Energy =               -1154.0817981941881953
    Two-Electron Energy =                 462.9761012987802928
    DFT Exchange-Correlation Energy =       0.0000000000000000
    Empirical Dispersion Energy =           0.0000000000000000
    PCM Polarization Energy =               0.0000000000000000
    EFP Energy =                            0.0000000000000000
    Total Energy =                       -344.7202221095017762
    Molecular point group: c1
  Basis Set: CC-PVTZ
  Basis Set:

  -Total Gradient:
     Atom            X                  Y                   Z
    ------   -----------------  -----------------  -----------------
       1       -0.000117600130     0.000036270720     0.001814920795
       2        0.000376223786    -0.000251277021    -0.002981330432
       3       -0.000741693953     0.000645189404     0.002710233236
       4       -0.000015456464    -0.000032048672    -0.000098371112
       5        0.000427612804    -0.000380446909    -0.001325064027
       6        0.000038644831    -0.000017236056    -0.000073219488
       7        0.000008592257     0.000025201253     0.000015588401
       8        0.000030558115    -0.000025823642    -0.000086059462
       9       -0.000020915770     0.000018145479     0.000048618723
      10       -0.000000157576    -0.000000016807    -0.000000644709
      11       -0.000000180501    -0.000008808970    -0.000018055679
      12       -0.000007618836    -0.000002693549    -0.000003630995
      13        0.000008601013    -0.000003484241     0.000005755561
      14        0.000000794048     0.000008502172     0.000001067622
      15       -0.000000129162    -0.000010621147    -0.000003638798
      16        0.000012725541    -0.000000852015    -0.000006169637

  **** Optimization is complete! (in 18 steps) ****
    Final optimized geometry and variables:
    Molecular point group: c1

    Geometry (in Angstrom), charge = 0, multiplicity = 1:

    H           -2.532381106574    -1.464321523446    -0.003216625143
    O           -1.697829360076    -1.892583861640     0.058070173203
    C           -0.694809119538    -0.988443003364     0.102018667984
    C            0.536776250779    -1.418128065298     0.570399499270
    C           -0.858624886979     0.309468649840    -0.336120442855
    H            0.649487248538    -2.432034116635     0.899399376455
    C            1.584691926966    -0.527702759090     0.600635562855
    H           -1.815563980816     0.623627151810    -0.715126476522
    C            0.198516439285     1.210689496823    -0.297580508589
    H            2.541278181899    -0.852976818350     0.963835470143
    C            1.423954760763     0.781638743957     0.174553807789
    C           -0.004355850974     2.625681951991    -0.777642651880
    H            2.253927431440     1.460828984733     0.210140875342
    H            0.899619139323     3.208947372685    -0.668962019946
    H           -0.790534649891     3.117375216482    -0.216130995809
    H           -0.290156050287     2.642482387817    -1.823343850102

  Mulliken Charges: (a.u.)
   Center  Symbol    Alpha    Beta     Spin     Total
       1     H     0.38649  0.38649  0.00000  0.22702
       2     O     4.17706  4.17706  0.00000 -0.35413
       3     C     2.84199  2.84199  0.00000  0.31602
       4     C     3.12375  3.12375  0.00000 -0.24749
       5     C     3.15159  3.15159  0.00000 -0.30318
       6     H     0.41928  0.41928  0.00000  0.16144
       7     C     3.04766  3.04766  0.00000 -0.09532
       8     H     0.43565  0.43565  0.00000  0.12870
       9     C     2.94672  2.94672  0.00000  0.10656
      10     H     0.42323  0.42323  0.00000  0.15354
      11     C     3.12539  3.12539  0.00000 -0.25077
      12     C     3.14963  3.14963  0.00000 -0.29925
      13     H     0.42659  0.42659  0.00000  0.14682
      14     H     0.44970  0.44970  0.00000  0.10061
      15     H     0.44789  0.44789  0.00000  0.10423
      16     H     0.44739  0.44739  0.00000  0.10521

   Total alpha = 29.00000, Total beta = 29.00000, Total charge = -0.00000
