  ==> Input File <==

--------------------------------------------------------------------------
set {
	reference rhf
	basis 6-31G*
}

set_num_threads( 4 )
memory 2 gb

molecule MOL {
0 1

O	 -0.682937	 1.318834	 -0.186099
C	 -0.860635	 0.152188	 -0.042321
C	 -2.173363	 -0.477127	 0.338347
O	 0.083258	 -0.765189	 -0.202595
H	 -2.477673	 -1.180929	 -0.427595
H	 -2.923125	 0.290956	 0.455536
H	 -2.058825	 -1.029004	 1.264191
C	 1.391937	 -0.334737	 -0.569838
C	 2.394504	 -0.593247	 0.539521
H	 1.360294	 0.711337	 -0.834164
H	 1.630596	 -0.913923	 -1.450227
H	 3.391555	 -0.326178	 0.202929
H	 2.161582	 -0.001349	 1.415748
H	 2.397303	 -1.642500	 0.814248

	symmetry c1
}
set optking {
	frozen_dihedral = ("
		10 8 4 2
	")
}

ee = optimize('scf')
oeprop('DIPOLE', 'QUADRUPOLE', 'MULLIKEN_CHARGES')
f=open( 'psi4out.xyz', 'w' )
f.write( "14  " )
f.write( str(ee) + "\n" )
f.write( MOL.save_string_xyz() )
f.close()
--------------------------------------------------------------------------

    Molecular point group: c1
  Charge       = 0
  Multiplicity = 1
  Basis Set: 6-31G*
  Basis Set:
  @DF-RHF Final Energy:  -305.87396808133417
    Total Energy =                       -305.8739680813343966
    Molecular point group: c1
  Basis Set: 6-31G*
  Basis Set:
  Basis Set: 6-31G*
  Basis Set:
  @DF-RHF Final Energy:  -305.87418666627070
    Total Energy =                       -305.8741866662708730
  Basis Set: 6-31G*
  Basis Set:
  Basis Set: 6-31G*
  Basis Set:
  @DF-RHF Final Energy:  -305.87412336668888
    Total Energy =                       -305.8741233666889343
  Basis Set: 6-31G*
  Basis Set:
  Basis Set: 6-31G*
  Basis Set:
  @DF-RHF Final Energy:  -305.87438987657293
    Total Energy =                       -305.8743898765731615
  Basis Set: 6-31G*
  Basis Set:
  Basis Set: 6-31G*
  Basis Set:
  @DF-RHF Final Energy:  -305.87439148239309
    Total Energy =                       -305.8743914823928662
  Basis Set: 6-31G*
  Basis Set:
  Charge       = 0
  Multiplicity = 1
  Basis Set: 6-31G*
  Basis Set:

    Orbital Energies (a.u.)
    -----------------------

    Doubly Occupied:

       1A    -20.601319     2A    -20.544079     3A    -11.376461
       4A    -11.283924     5A    -11.232952     6A    -11.221599
       7A     -1.466066     8A     -1.363187     9A     -1.056625
      10A     -0.999362    11A     -0.878596    12A     -0.772186
      13A     -0.698203    14A     -0.682116    15A     -0.657427
      16A     -0.612313    17A     -0.583208    18A     -0.567550
      19A     -0.561352    20A     -0.529293    21A     -0.518320
      22A     -0.495703    23A     -0.447967    24A     -0.439961

  @DF-RHF Final Energy:  -305.87439159002139

   => Energetics <=

    Nuclear Repulsion Energy =            246.6984764959094605
    One-Electron Energy =                -905.9661963429750813
    Two-Electron Energy =                 353.3933282570442316
    DFT Exchange-Correlation Energy =       0.0000000000000000
    Empirical Dispersion Energy =           0.0000000000000000
    PCM Polarization Energy =               0.0000000000000000
    EFP Energy =                            0.0000000000000000
    Total Energy =                       -305.8743915900213324
    Molecular point group: c1
  Basis Set: 6-31G*
  Basis Set:

  -Total Gradient:
     Atom            X                  Y                   Z
    ------   -----------------  -----------------  -----------------
       1       -0.000024806677     0.000016580039     0.000006384355
       2       -0.000186114525    -0.000086916722    -0.000773014615
       3       -0.000008879405     0.000005700695    -0.000034160990
       4        0.000332354145     0.000133004767     0.001328059301
       5        0.000005768084    -0.000001602768     0.000009843217
       6       -0.000005145975     0.000000216591     0.000005531409
       7        0.000006485479     0.000009854861     0.000008188372
       8       -0.000365334500    -0.000299437518    -0.001413406532
       9        0.000050470913     0.000002516305    -0.000029049664
      10        0.000205835752     0.000221145830     0.000869859079
      11       -0.000015969372    -0.000002204394     0.000009885656
      12        0.000018409730    -0.000003634534     0.000022136714
      13       -0.000007766376     0.000005067822    -0.000006002464
      14       -0.000005307272    -0.000000290977    -0.000004253836

  **** Optimization is complete! (in 6 steps) ****
    Final optimized geometry and variables:
    Molecular point group: c1

    Geometry (in Angstrom), charge = 0, multiplicity = 1:

    O           -0.729117479204     1.445752061752    -0.149291242923
    C           -0.890524246534     0.275657397769    -0.019696344975
    C           -2.193217129249    -0.371963807197     0.365440593767
    O            0.058538642383    -0.635517643411    -0.193272688868
    H           -2.498661225371    -1.067050892093    -0.407996547952
    H           -2.949022849403     0.386976410309     0.501763506507
    H           -2.063642698612    -0.936635203217     1.281484762610
    C            1.368560646472    -0.225869488195    -0.579987116135
    C            2.338862012575    -0.484277244344     0.556972892880
    H            1.352231732459     0.816688286446    -0.850922595790
    H            1.620614492449    -0.817583290011    -1.449492624405
    H            3.348519000019    -0.230820846973     0.248915483606
    H            2.085130849182     0.119886000222     1.421124222919
    H            2.321337273636    -1.528169253555     0.849170857388

  Mulliken Charges: (a.u.)
   Center  Symbol    Alpha    Beta     Spin     Total
       1     O     4.28317  4.28317  0.00000 -0.56633
       2     C     2.62000  2.62000  0.00000  0.76001
       3     C     3.28219  3.28219  0.00000 -0.56437
       4     O     4.30791  4.30791  0.00000 -0.61582
       5     H     0.40043  0.40043  0.00000  0.19915
       6     H     0.39714  0.39714  0.00000  0.20571
       7     H     0.40058  0.40058  0.00000  0.19884
       8     C     3.01241  3.01241  0.00000 -0.02481
       9     C     3.24790  3.24790  0.00000 -0.49579
      10     H     0.39411  0.39411  0.00000  0.21178
      11     H     0.41260  0.41260  0.00000  0.17479
      12     H     0.41747  0.41747  0.00000  0.16505
      13     H     0.41158  0.41158  0.00000  0.17684
      14     H     0.41252  0.41252  0.00000  0.17497

   Total alpha = 24.00000, Total beta = 24.00000, Total charge =  0.00000
