  ==> Input File <==

--------------------------------------------------------------------------
set {
	reference rhf
	basis 6-31G*
}

set_num_threads( 4 )
memory 2 gb

molecule MOL {
0 1

H	 -3.806972	 -2.381578	 0.010425
C	 -2.735430	 -2.288940	 0.010586
C	 -1.943193	 -3.427082	 0.022503
C	 -2.151108	 -1.032213	 -0.001118
H	 -2.397636	 -4.401128	 0.031573
C	 -0.565476	 -3.307166	 0.022703
H	 -2.766844	 -0.151083	 -0.010344
C	 -0.772204	 -0.909754	 -0.000940
H	 0.063193	 -4.176857	 0.031830
C	 0.024578	 -2.048508	 0.010986
H	 -0.315772	 0.060766	 -0.009973
C	 1.512891	 -1.973807	 0.011735
O	 1.970282	 -0.730723	 0.000018
O	 2.227120	 -2.927030	 0.021775
C	 3.377318	 -0.566646	 -0.000065
H	 3.695437	 -0.028981	 -0.881264
H	 3.789299	 -1.563704	 0.000236
H	 3.695516	 -0.028316	 0.880770

	symmetry c1
}
set optking {
	frozen_dihedral = ("
		12 13 15 16
	")
}

ee = optimize('scf')
oeprop('DIPOLE', 'QUADRUPOLE', 'MULLIKEN_CHARGES')
f=open( 'psi4out.xyz', 'w' )
f.write( "18  " )
f.write( str(ee) + "\n" )
f.write( MOL.save_string_xyz() )
f.close()
--------------------------------------------------------------------------

    Molecular point group: c1
  Charge       = 0
  Multiplicity = 1
  Basis Set: 6-31G*
  Basis Set:
  @DF-RHF Final Energy:  -457.34626537644471
    Total Energy =                       -457.3462653764449897
    Molecular point group: c1
  Basis Set: 6-31G*
  Basis Set:
  Basis Set: 6-31G*
  Basis Set:
  @DF-RHF Final Energy:  -457.34650299077134
    Total Energy =                       -457.3465029907713415
  Basis Set: 6-31G*
  Basis Set:
  Basis Set: 6-31G*
  Basis Set:
  @DF-RHF Final Energy:  -457.34842776951666
    Total Energy =                       -457.3484277695163200
  Basis Set: 6-31G*
  Basis Set:
  Basis Set: 6-31G*
  Basis Set:
  @DF-RHF Final Energy:  -457.34845327125174
    Total Energy =                       -457.3484532712520831
  Basis Set: 6-31G*
  Basis Set:
  Basis Set: 6-31G*
  Basis Set:
  @DF-RHF Final Energy:  -457.34823842957877
    Total Energy =                       -457.3482384295788279
  Basis Set: 6-31G*
  Basis Set:
  Basis Set: 6-31G*
  Basis Set:
  @DF-RHF Final Energy:  -457.34846698191495
    Total Energy =                       -457.3484669819151804
  Basis Set: 6-31G*
  Basis Set:
  Charge       = 0
  Multiplicity = 1
  Basis Set: 6-31G*
  Basis Set:

    Orbital Energies (a.u.)
    -----------------------

    Doubly Occupied:

       1A    -20.606620     2A    -20.543587     3A    -11.379507
       4A    -11.281412     5A    -11.245003     6A    -11.244864
       7A    -11.243560     8A    -11.241160     9A    -11.236970
      10A    -11.236207    11A     -1.469979    12A     -1.364447
      13A     -1.164717    14A     -1.047767    15A     -1.024301
      16A     -0.979323    17A     -0.859635    18A     -0.833772
      19A     -0.776859    20A     -0.739887    21A     -0.683837
      22A     -0.674905    23A     -0.671479    24A     -0.631265
      25A     -0.623486    26A     -0.597256    27A     -0.584581
      28A     -0.567974    29A     -0.523535    30A     -0.516211
      31A     -0.503837    32A     -0.498070    33A     -0.454966
      34A     -0.444954    35A     -0.344541    36A     -0.340472

  @DF-RHF Final Energy:  -457.34846736684079

   => Energetics <=

    Nuclear Repulsion Energy =            492.5591352455805350
    One-Electron Energy =               -1599.4533116847921974
    Two-Electron Energy =                 649.5457090723707552
    DFT Exchange-Correlation Energy =       0.0000000000000000
    Empirical Dispersion Energy =           0.0000000000000000
    PCM Polarization Energy =               0.0000000000000000
    EFP Energy =                            0.0000000000000000
    Total Energy =                       -457.3484673668408504
    Molecular point group: c1
  Basis Set: 6-31G*
  Basis Set:

  -Total Gradient:
     Atom            X                  Y                   Z
    ------   -----------------  -----------------  -----------------
       1        0.000005664419     0.000004312754    -0.000000198052
       2        0.000008712789     0.000005562690    -0.000000107645
       3        0.000007433519     0.000005011404     0.000001466216
       4        0.000005301572    -0.000000593157    -0.000000118684
       5        0.000006202840     0.000002710592     0.000000131898
       6        0.000008395271    -0.000002116665    -0.000001269490
       7        0.000000235048     0.000000343652    -0.000000013244
       8       -0.000008097848     0.000005023004    -0.000000701657
       9        0.000000404585     0.000000369980    -0.000000249243
      10        0.000022084083    -0.000014294967    -0.000004361257
      11       -0.000003883949    -0.000002751850     0.000000556128
      12       -0.000040147449     0.000024140986     0.000074370507
      13       -0.000016111377     0.000028858328    -0.000075637661
      14        0.000005667457    -0.000018758199    -0.000003173762
      15        0.000021635098    -0.000083738156    -0.000029388477
      16       -0.000017242234     0.000065141537     0.000040307725
      17        0.000016015187    -0.000018855589     0.000002348323
      18       -0.000022269015    -0.000000366338    -0.000003961624

  **** Optimization is complete! (in 7 steps) ****
    Final optimized geometry and variables:
    Molecular point group: c1

    Geometry (in Angstrom), charge = 0, multiplicity = 1:

    H           -4.030650846056    -0.441115206897     0.002526013387
    C           -2.958006482633    -0.362722988847     0.002105620853
    C           -2.180804455013    -1.511209435674     0.010521323535
    C           -2.357071889781     0.886093673027    -0.006856927748
    H           -2.647933796095    -2.479295315226     0.017461073010
    C           -0.801693264486    -1.409519472813     0.009952395710
    H           -2.961074726179     1.775330117736    -0.013379183701
    C           -0.976654901529     0.990255361490    -0.007418852269
    H           -0.184926412188    -2.287591413772     0.016376829219
    C           -0.194676146195    -0.158832464675     0.001005431840
    H           -0.507852434985     1.954688374838    -0.014344327178
    C            1.295505165915    -0.105804799718     0.000859040607
    O            1.760172954324     1.135478374239    -0.008361144017
    O            1.988945762982    -1.074033392635     0.008110691266
    C            3.161392893320     1.354768481429    -0.008419805499
    H            3.410479604160     1.907199141772    -0.903441316604
    H            3.696123667940     0.420873127994     0.016099627565
    H            3.401733712824     1.948861809885     0.861860311496

  Mulliken Charges: (a.u.)
   Center  Symbol    Alpha    Beta     Spin     Total
       1     H     0.39549  0.39549  0.00000  0.20901
       2     C     3.09000  3.09000  0.00000 -0.18001
       3     C     3.10702  3.10702  0.00000 -0.21403
       4     C     3.10708  3.10708  0.00000 -0.21415
       5     H     0.39550  0.39550  0.00000  0.20900
       6     C     3.08656  3.08656  0.00000 -0.17313
       7     H     0.39641  0.39641  0.00000  0.20718
       8     C     3.08688  3.08688  0.00000 -0.17376
       9     H     0.37593  0.37593  0.00000  0.24815
      10     C     3.07803  3.07803  0.00000 -0.15606
      11     H     0.38064  0.38064  0.00000  0.23872
      12     C     2.57937  2.57937  0.00000  0.84127
      13     O     4.31678  4.31678  0.00000 -0.63356
      14     O     4.29128  4.29128  0.00000 -0.58256
      15     C     3.09876  3.09876  0.00000 -0.19752
      16     H     0.41144  0.41144  0.00000  0.17712
      17     H     0.39148  0.39148  0.00000  0.21703
      18     H     0.41134  0.41134  0.00000  0.17731

   Total alpha = 36.00000, Total beta = 36.00000, Total charge = -0.00000
