  ==> Input File <==

--------------------------------------------------------------------------
set {
	reference rhf
	basis 6-31G*
}

set_num_threads( 4 )
memory 2 gb

molecule MOL {
0 1

O	 -2.042549	 -1.228399	 -0.269030
C	 -1.653912	 -0.146171	 0.050137
C	 -0.332303	 0.024011	 0.778412
C	 -2.438579	 1.106236	 -0.272369
C	 0.845713	 -0.001731	 -0.208243
H	 -0.323783	 0.953829	 1.340327
H	 -0.235459	 -0.796807	 1.480410
C	 2.200309	 0.136118	 0.488247
H	 0.733710	 0.800019	 -0.936072
H	 0.811185	 -0.933796	 -0.764304
C	 2.072719	 0.563069	 1.949973
H	 2.733441	 -0.810518	 0.432791
H	 2.806633	 0.861503	 -0.049113
H	 1.499297	 -0.160829	 2.521996
H	 1.571997	 1.522992	 2.035220
H	 3.048013	 0.655656	 2.417151
H	 -3.277823	 0.863061	 -0.908988
H	 -1.806773	 1.843019	 -0.759671
H	 -2.802853	 1.554979	 0.648059

	symmetry c1
}
set optking {
	frozen_dihedral = ("
		11 8 5 9
	")
}

ee = optimize('scf')
oeprop('DIPOLE', 'QUADRUPOLE', 'MULLIKEN_CHARGES')
f=open( 'psi4out.xyz', 'w' )
f.write( "19  " )
f.write( str(ee) + "\n" )
f.write( MOL.save_string_xyz() )
f.close()
--------------------------------------------------------------------------

    Molecular point group: c1
  Charge       = 0
  Multiplicity = 1
  Basis Set: 6-31G*
  Basis Set:
  @DF-RHF Final Energy:  -309.05198250587313
    Total Energy =                       -309.0519825058729566
    Molecular point group: c1
  Basis Set: 6-31G*
  Basis Set:
  Basis Set: 6-31G*
  Basis Set:
  @DF-RHF Final Energy:  -309.05220348271610
    Total Energy =                       -309.0522034827161519
  Basis Set: 6-31G*
  Basis Set:
  Basis Set: 6-31G*
  Basis Set:
  @DF-RHF Final Energy:  -309.05569079435435
    Total Energy =                       -309.0556907943542910
  Basis Set: 6-31G*
  Basis Set:
  Basis Set: 6-31G*
  Basis Set:
  @DF-RHF Final Energy:  -309.05610896863169
    Total Energy =                       -309.0561089686312926
  Basis Set: 6-31G*
  Basis Set:
  @DF-RHF Final Energy:  -309.05334722910357
    Total Energy =                       -309.0533472291036787
  @DF-RHF Final Energy:  -309.05627733462961
    Total Energy =                       -309.0562773346296126
  @DF-RHF Final Energy:  -309.05619682904342
    Total Energy =                       -309.0561968290436425
  Basis Set: 6-31G*
  Basis Set:
  @DF-RHF Final Energy:  -309.05600250646603
    Total Energy =                       -309.0560025064659726
  Basis Set: 6-31G*
  Basis Set:
  Basis Set: 6-31G*
  Basis Set:
  @DF-RHF Final Energy:  -309.05629245290379
    Total Energy =                       -309.0562924529036195
  Basis Set: 6-31G*
  Basis Set:
  Basis Set: 6-31G*
  Basis Set:
  @DF-RHF Final Energy:  -309.05629047220890
    Total Energy =                       -309.0562904722086728
  Basis Set: 6-31G*
  Basis Set:
  Charge       = 0
  Multiplicity = 1
  Basis Set: 6-31G*
  Basis Set:

    Orbital Energies (a.u.)
    -----------------------

    Doubly Occupied:

       1A    -20.547496     2A    -11.324578     3A    -11.230639
       4A    -11.229291     5A    -11.228252     6A    -11.225208
       7A    -11.216369     8A     -1.393301     9A     -1.087696
      10A     -1.026766    11A     -0.981551    12A     -0.903078
      13A     -0.795282    14A     -0.733697    15A     -0.660500
      16A     -0.651878    17A     -0.620081    18A     -0.604680
      19A     -0.588564    20A     -0.568517    21A     -0.553299
      22A     -0.543347    23A     -0.523542    24A     -0.501281
      25A     -0.480041    26A     -0.466955    27A     -0.457959
      28A     -0.397528

  @DF-RHF Final Energy:  -309.05629432079570

   => Energetics <=

    Nuclear Repulsion Energy =            304.7846202170663901
    One-Electron Energy =               -1022.5990784556449853
    Two-Electron Energy =                 408.7581639177830652
    DFT Exchange-Correlation Energy =       0.0000000000000000
    Empirical Dispersion Energy =           0.0000000000000000
    PCM Polarization Energy =               0.0000000000000000
    EFP Energy =                            0.0000000000000000
    Total Energy =                       -309.0562943207955300
    Molecular point group: c1
  Basis Set: 6-31G*
  Basis Set:

  -Total Gradient:
     Atom            X                  Y                   Z
    ------   -----------------  -----------------  -----------------
       1        0.000006160160     0.000000191258    -0.000008103585
       2       -0.000009613159     0.000001532354     0.000019234625
       3       -0.000006840587     0.000004952769    -0.000004528801
       4        0.000007496883    -0.000000513421    -0.000009457484
       5       -0.002130725059     0.001747511890     0.004100219553
       6        0.000000786759    -0.000011672956    -0.000001909635
       7        0.000001569082    -0.000000777071     0.000001210796
       8        0.000675916122     0.003844603961    -0.002029505914
       9        0.001645285910    -0.002538303704    -0.003005551009
      10        0.000000150594    -0.000000079456     0.000005961379
      11       -0.000192358425    -0.003045874931     0.000922925577
      12       -0.000001239708    -0.000000619457    -0.000004550286
      13        0.000003870273     0.000001949009     0.000006618193
      14       -0.000004803697    -0.000003019583    -0.000005125854
      15        0.000012350760    -0.000003610158     0.000003556302
      16       -0.000000951728     0.000001019696     0.000005321096
      17       -0.000004862895     0.000002475066     0.000003048362
      18        0.000001501681    -0.000001924915     0.000003089788
      19       -0.000003692963     0.000002159652    -0.000002453101

  **** Optimization is complete! (in 11 steps) ****
    Final optimized geometry and variables:
    Molecular point group: c1

    Geometry (in Angstrom), charge = 0, multiplicity = 1:

    O           -1.844636409397    -1.304638183147    -0.731875308540
    C           -1.490510988339    -0.227119697624    -0.360877688836
    C           -0.212275241011    -0.058682763496     0.442228175220
    C           -2.278647346150     1.022735379953    -0.685379299163
    C            1.001864435148    -0.041267844597    -0.501239107505
    H           -0.256424416357     0.851047152012     1.031276609221
    H           -0.142365709835    -0.900832280290     1.120774586018
    C            2.397090902278     0.071617250188     0.168548666213
    H            0.889369767797     0.753943215740    -1.234314000777
    H            0.969934639956    -0.958391863024    -1.079704445550
    C            2.428827616934     0.511528144923     1.634547972309
    H            2.886239154841    -0.896136076414     0.106868708157
    H            3.010769814490     0.750335150799    -0.415298818228
    H            1.894045788242    -0.179959252704     2.276235898179
    H            1.998295755759     1.498726209656     1.774948415303
    H            3.455347881356     0.553227011340     1.984801285907
    H           -3.075072537216     0.788181167571    -1.377809535440
    H           -1.634175838170     1.787463625446    -1.108649667844
    H           -2.704411608417     1.431373481582     0.227336221786

  Mulliken Charges: (a.u.)
   Center  Symbol    Alpha    Beta     Spin     Total
       1     O     4.26216  4.26216  0.00000 -0.52432
       2     C     2.73705  2.73705  0.00000  0.52589
       3     C     3.20161  3.20161  0.00000 -0.40322
       4     C     3.28950  3.28950  0.00000 -0.57900
       5     C     3.16804  3.16804  0.00000 -0.33607
       6     H     0.41481  0.41481  0.00000  0.17037
       7     H     0.40061  0.40061  0.00000  0.19878
       8     C     3.15460  3.15460  0.00000 -0.30920
       9     H     0.41913  0.41913  0.00000  0.16175
      10     H     0.40367  0.40367  0.00000  0.19266
      11     C     3.24402  3.24402  0.00000 -0.48804
      12     H     0.41673  0.41673  0.00000  0.16653
      13     H     0.41761  0.41761  0.00000  0.16478
      14     H     0.41869  0.41869  0.00000  0.16262
      15     H     0.42203  0.42203  0.00000  0.15594
      16     H     0.41622  0.41622  0.00000  0.16757
      17     H     0.39702  0.39702  0.00000  0.20596
      18     H     0.40979  0.40979  0.00000  0.18041
      19     H     0.40671  0.40671  0.00000  0.18657

   Total alpha = 28.00000, Total beta = 28.00000, Total charge =  0.00000
