  ==> Input File <==

--------------------------------------------------------------------------
set {
	reference rhf
	basis 6-31G*
}

set_num_threads( 1 )
memory 2 gb

molecule MOL {
0 1

O	 0.625848	 1.349995	 -0.000749
C	 0.486307	 0.169203	 0.000779
C	 1.608116	 -0.841643	 0.000302
O	 -0.698257	 -0.426125	 0.001050
C	 2.990107	 -0.200498	 -0.000684
H	 1.468623	 -1.481519	 -0.865924
H	 1.469683	 -1.481289	 0.866878
H	 3.129736	 0.423364	 -0.875135
H	 3.757882	 -0.966877	 -0.001197
H	 3.130964	 0.423383	 0.873533
C	 -1.650833	 0.003868	 -0.965958
C	 -2.905601	 -0.818989	 -0.764030
H	 -1.236421	 -0.135337	 -1.955134
H	 -1.839154	 1.060106	 -0.829987
H	 -2.699123	 -1.874693	 -0.898244
H	 -3.661573	 -0.522615	 -1.483973
H	 -3.305278	 -0.672732	 0.233027

	symmetry c1
}
set optking {
	frozen_dihedral = ("
		2 4 11 13,
		4 2 3 6
	")
}

ee = energy('scf')
oeprop('DIPOLE', 'QUADRUPOLE', 'MULLIKEN_CHARGES')
f=open( 'psi4out.xyz', 'w' )
f.write( "17  " )
f.write( str(ee) + "\n" )
f.write( MOL.save_string_xyz() )
f.close()
--------------------------------------------------------------------------

    Molecular point group: c1

    Geometry (in Angstrom), charge = 0, multiplicity = 1:

       Center              X                  Y                   Z               Mass
    ------------   -----------------  -----------------  -----------------  -----------------
           O          0.572981322336     1.455303203896     0.251289239777    15.994914619560
           C          0.433440322336     0.274511203896     0.252817239777    12.000000000000
           C          1.555249322336    -0.736334796104     0.252340239777    12.000000000000
           O         -0.751123677664    -0.320816796104     0.253088239777    15.994914619560
           C          2.937240322336    -0.095189796104     0.251354239777    12.000000000000
           H          1.415756322336    -1.376210796104    -0.613885760223     1.007825032070
           H          1.416816322336    -1.375980796104     1.118916239777     1.007825032070
           H          3.076869322336     0.528672203896    -0.623096760223     1.007825032070
           H          3.705015322336    -0.861568796104     0.250841239777     1.007825032070
           H          3.078097322336     0.528691203896     1.125571239777     1.007825032070
           C         -1.703699677664     0.109176203896    -0.713919760223    12.000000000000
           C         -2.958467677664    -0.713680796104    -0.511991760223    12.000000000000
           H         -1.289287677664    -0.030028796104    -1.703095760223     1.007825032070
           H         -1.892020677664     1.165414203896    -0.577948760223     1.007825032070
           H         -2.751989677664    -1.769384796104    -0.646205760223     1.007825032070
           H         -3.714439677664    -0.417306796104    -1.231934760223     1.007825032070
           H         -3.358144677664    -0.567423796104     0.485065239777     1.007825032070

  Charge       = 0
  Multiplicity = 1
  Basis Set: 6-31G*
  Basis Set:

    Orbital Energies (a.u.)
    -----------------------

    Doubly Occupied:

       1A    -20.590208     2A    -20.548982     3A    -11.371946
       4A    -11.291110     5A    -11.237818     6A    -11.224415
       7A    -11.215572     8A     -1.464306     9A     -1.363198
      10A     -1.068350    11A     -1.034384    12A     -0.908428
      13A     -0.855002    14A     -0.772928    15A     -0.699601
      16A     -0.683971    17A     -0.661467    18A     -0.631259
      19A     -0.596865    20A     -0.563737    21A     -0.558098
      22A     -0.526210    23A     -0.521165    24A     -0.518750
      25A     -0.503883    26A     -0.491655    27A     -0.450755
      28A     -0.433038

  @DF-RHF Final Energy:  -344.90051979051304

   => Energetics <=

    Nuclear Repulsion Energy =            314.7719321287650018
    One-Electron Energy =               -1093.7705300303191507
    Two-Electron Energy =                 434.0980781110403086
    DFT Exchange-Correlation Energy =       0.0000000000000000
    Empirical Dispersion Energy =           0.0000000000000000
    PCM Polarization Energy =               0.0000000000000000
    EFP Energy =                            0.0000000000000000
    Total Energy =                       -344.9005197905138402

  Mulliken Charges: (a.u.)
   Center  Symbol    Alpha    Beta     Spin     Total
       1     O     4.27398  4.27398  0.00000 -0.54797
       2     C     2.60631  2.60631  0.00000  0.78738
       3     C     3.20679  3.20679  0.00000 -0.41357
       4     O     4.31636  4.31636  0.00000 -0.63273
       5     C     3.23969  3.23969  0.00000 -0.47938
       6     H     0.40488  0.40488  0.00000  0.19025
       7     H     0.39940  0.39940  0.00000  0.20121
       8     H     0.41100  0.41100  0.00000  0.17801
       9     H     0.41859  0.41859  0.00000  0.16282
      10     H     0.40924  0.40924  0.00000  0.18153
      11     C     3.00488  3.00488  0.00000 -0.00976
      12     C     3.24822  3.24822  0.00000 -0.49645
      13     H     0.41981  0.41981  0.00000  0.16038
      14     H     0.40390  0.40390  0.00000  0.19221
      15     H     0.41206  0.41206  0.00000  0.17588
      16     H     0.41669  0.41669  0.00000  0.16662
      17     H     0.40822  0.40822  0.00000  0.18357

   Total alpha = 28.00000, Total beta = 28.00000, Total charge = -0.00000
