  ==> Input File <==

--------------------------------------------------------------------------
set {
	reference rhf
	basis 6-31G*
}

set_num_threads( 1 )
memory 2 gb

molecule MOL {
0 1

H	 -2.344230	 0.138638	 0.797294
N	 -1.852125	 0.165761	 -0.074816
C	 -0.563778	 -0.502042	 0.037919
H	 -1.727421	 1.132851	 -0.307069
C	 0.575259	 0.508231	 -0.048326
H	 -0.482092	 -1.204004	 -0.786564
H	 -0.460411	 -1.085169	 0.956626
C	 1.954651	 -0.143624	 0.035137
H	 0.475158	 1.060484	 -0.977307
H	 0.469181	 1.234488	 0.755973
H	 2.103292	 -0.853109	 -0.774172
H	 2.742821	 0.599562	 -0.030094
H	 2.083613	 -0.679371	 0.971560

	symmetry c1
}
set optking {
	frozen_dihedral = ("
		6 3 5 9
	")
}

ee = energy('scf')
oeprop('DIPOLE', 'QUADRUPOLE', 'MULLIKEN_CHARGES')
f=open( 'psi4out.xyz', 'w' )
f.write( "13  " )
f.write( str(ee) + "\n" )
f.write( MOL.save_string_xyz() )
f.close()
--------------------------------------------------------------------------

    Molecular point group: c1

    Geometry (in Angstrom), charge = 0, multiplicity = 1:

       Center              X                  Y                   Z               Mass
    ------------   -----------------  -----------------  -----------------  -----------------
           H         -2.353378441529     0.121388162618     0.799662288390     1.007825032070
           N         -1.861273441529     0.148511162618    -0.072447711610    14.003074004780
           C         -0.572926441529    -0.519291837382     0.040287288390    12.000000000000
           H         -1.736569441529     1.115601162618    -0.304700711610     1.007825032070
           C          0.566110558471     0.490981162618    -0.045957711610    12.000000000000
           H         -0.491240441529    -1.221253837382    -0.784195711610     1.007825032070
           H         -0.469559441529    -1.102418837382     0.958994288390     1.007825032070
           C          1.945502558471    -0.160873837382     0.037505288390    12.000000000000
           H          0.466009558471     1.043234162618    -0.974938711610     1.007825032070
           H          0.460032558471     1.217238162618     0.758341288390     1.007825032070
           H          2.094143558471    -0.870358837382    -0.771803711610     1.007825032070
           H          2.733672558471     0.582312162618    -0.027725711610     1.007825032070
           H          2.074464558471    -0.696620837382     0.973928288390     1.007825032070

  Charge       = 0
  Multiplicity = 1
  Basis Set: 6-31G*
  Basis Set:

    Orbital Energies (a.u.)
    -----------------------

    Doubly Occupied:

       1A    -15.529740     2A    -11.239492     3A    -11.217994
       4A    -11.212378     5A     -1.177645     6A     -1.037213
       7A     -0.899159     8A     -0.809111     9A     -0.666341
      10A     -0.621245    11A     -0.604580    12A     -0.555585
      13A     -0.544310    14A     -0.501227    15A     -0.485054
      16A     -0.470996    17A     -0.375243

  @DF-RHF Final Energy:  -173.27712770404648

   => Energetics <=

    Nuclear Repulsion Energy =            132.1686041191869379
    One-Electron Energy =                -494.9968188098093833
    Two-Electron Energy =                 189.5510869865760810
    DFT Exchange-Correlation Energy =       0.0000000000000000
    Empirical Dispersion Energy =           0.0000000000000000
    PCM Polarization Energy =               0.0000000000000000
    EFP Energy =                            0.0000000000000000
    Total Energy =                       -173.2771277040463360

  Mulliken Charges: (a.u.)
   Center  Symbol    Alpha    Beta     Spin     Total
       1     H     0.33286  0.33286  0.00000  0.33427
       2     N     3.92738  3.92738  0.00000 -0.85476
       3     C     3.04936  3.04936  0.00000 -0.09872
       4     H     0.33140  0.33140  0.00000  0.33720
       5     C     3.16769  3.16769  0.00000 -0.33539
       6     H     0.41961  0.41961  0.00000  0.16078
       7     H     0.42565  0.42565  0.00000  0.14870
       8     C     3.24309  3.24309  0.00000 -0.48618
       9     H     0.42010  0.42010  0.00000  0.15981
      10     H     0.42460  0.42460  0.00000  0.15081
      11     H     0.41914  0.41914  0.00000  0.16171
      12     H     0.41797  0.41797  0.00000  0.16405
      13     H     0.42114  0.42114  0.00000  0.15772

   Total alpha = 17.00000, Total beta = 17.00000, Total charge =  0.00000
