                              Psi4 1.0.54 Driver

  ==> Input File <==

--------------------------------------------------------------------------
set {
	reference rhf
	basis cc-pvtz
}

set_num_threads( 4 )
memory 2 gb

molecule MOL {
0 1

H	 2.342730	 0.877684	 -1.045694
C	 2.360424	 0.000000	 -0.411793
C	 1.173749	 0.000000	 0.526870
H	 3.286567	 0.000000	 0.151574
H	 2.342730	 -0.877684	 -1.045694
O	 0.000000	 0.000000	 -0.223739
H	 1.203779	 0.876757	 1.172538
H	 1.203779	 -0.876757	 1.172538
C	 -1.173749	 0.000000	 0.526870
C	 -2.095894	 1.078563	 0.001859
H	 -0.945161	 0.177703	 1.576946
H	 -1.657642	 -0.973774	 0.462818
H	 -1.624565	 2.050482	 0.077322
H	 -3.017534	 1.096924	 0.572268
H	 -2.337800	 0.897787	 -1.037984

	symmetry c1
}
set optking {
	frozen_dihedral = ("
		11 9 6 3
	")
}

ee,wfn = optimize('scf', return_wfn=True)
oeprop( wfn, 'DIPOLE', 'QUADRUPOLE', 'MULLIKEN_CHARGES')
f=open( 'psi4out.xyz', 'w' )
f.write( "15  " )
f.write( str(ee) + "\n" )
f.write( MOL.save_string_xyz() )
f.close()
--------------------------------------------------------------------------

    Molecular point group: c1
  Charge       = 0
  Multiplicity = 1
  Basis Set: CC-PVTZ
  Basis Set:
  @DF-RHF Final Energy:  -232.22990483803943
    Total Energy =                       -232.2299048380394879
    Molecular point group: c1
  Basis Set: CC-PVTZ
  Basis Set:
  Basis Set: CC-PVTZ
  Basis Set:
  @DF-RHF Final Energy:  -232.22995934462031
    Total Energy =                       -232.2299593446201698
  Basis Set: CC-PVTZ
  Basis Set:
  Basis Set: CC-PVTZ
  Basis Set:
  @DF-RHF Final Energy:  -232.23025087163666
    Total Energy =                       -232.2302508716367129
  Basis Set: CC-PVTZ
  Basis Set:
  Basis Set: CC-PVTZ
  Basis Set:
  @DF-RHF Final Energy:  -232.23025446176587
    Total Energy =                       -232.2302544617658100
  Basis Set: CC-PVTZ
  Basis Set:
  Charge       = 0
  Multiplicity = 1
  Basis Set: CC-PVTZ
  Basis Set:

    Orbital Energies (a.u.)
    -----------------------

    Doubly Occupied:

       1A    -20.542407     2A    -11.266945     3A    -11.265816
       4A    -11.207300     5A    -11.206839     6A     -1.377050
       7A     -1.043997     8A     -0.983961     9A     -0.851112
      10A     -0.823804    11A     -0.673573    12A     -0.664270
      13A     -0.625817    14A     -0.581811    15A     -0.550948
      16A     -0.536678    17A     -0.522786    18A     -0.499471
      19A     -0.486184    20A     -0.464842    21A     -0.407890

  @DF-RHF Final Energy:  -232.23025491833334

   => Energetics <=

    Nuclear Repulsion Energy =            191.4184612719888037
    One-Electron Energy =                -694.1304268750391202
    Two-Electron Energy =                 270.4817106847170862
    DFT Exchange-Correlation Energy =       0.0000000000000000
    Empirical Dispersion Energy =           0.0000000000000000
    PCM Polarization Energy =               0.0000000000000000
    EFP Energy =                            0.0000000000000000
    Total Energy =                       -232.2302549183332303
    Molecular point group: c1
  Basis Set: CC-PVTZ
  Basis Set:

  -Total Gradient:
     Atom            X                  Y                   Z
    ------   -----------------  -----------------  -----------------
       1        0.000000505493     0.000003822712    -0.000002991328
       2       -0.000011463045     0.000004385409     0.000003925528
       3        0.000189424421     0.001451111023     0.000093417354
       4        0.000013315672    -0.000001437962     0.000000664144
       5       -0.000001926749    -0.000001180094     0.000002282899
       6       -0.000284305992    -0.002577741976    -0.000034146199
       7       -0.000003244190    -0.000002114826    -0.000007964818
       8       -0.000008718746     0.000003175393    -0.000006563547
       9        0.000106735505     0.002906904492    -0.000267752353
      10        0.000002847596    -0.000002068783    -0.000015069456
      11        0.000002719709    -0.001784212003     0.000240664913
      12       -0.000009654511    -0.000001467454    -0.000003367256
      13        0.000004042932     0.000001363367     0.000001167180
      14        0.000004506742    -0.000008164917     0.000004116921
      15       -0.000004784835     0.000007625618    -0.000008383984

  **** Optimization is complete! (in 5 steps) ****
    Final optimized geometry and variables:
    Molecular point group: c1

    Geometry (in Angstrom), charge = 0, multiplicity = 1:

    H            2.359030458792     0.503466481449    -1.061562110660
    C            2.297454655311    -0.395605465691    -0.461088010389
    C            1.104425527325    -0.332228143916     0.467062469695
    H            3.214030362341    -0.493381865389     0.109775614804
    H            2.214550471541    -1.244582512846    -1.128127985335
    O           -0.054872455611    -0.202831749809    -0.296874645266
    H            1.201174892626     0.513317247219     1.146098946584
    H            1.057272801228    -1.233299523749     1.076995298235
    C           -1.258036611707    -0.114798529638     0.411624350538
    C           -2.093492528295     1.032131264395    -0.119111308864
    H           -1.065812454874     0.012477666575     1.473356386410
    H           -1.799260198549    -1.051220454461     0.303035709954
    H           -1.583048410471     1.977165678627     0.023504909259
    H           -3.048694550732     1.074866542005     0.393019817293
    H           -2.277898920084     0.903944182540    -1.178520067939

  Mulliken Charges: (a.u.)
   Center  Symbol    Alpha    Beta     Spin     Total
       1     H     0.45180  0.45180  0.00000  0.09640
       2     C     3.13735  3.13735  0.00000 -0.27469
       3     C     2.96428  2.96428  0.00000  0.07145
       4     H     0.45929  0.45929  0.00000  0.08143
       5     H     0.45142  0.45142  0.00000  0.09715
       6     O     4.18421  4.18421  0.00000 -0.36842
       7     H     0.47436  0.47436  0.00000  0.05128
       8     H     0.47247  0.47247  0.00000  0.05506
       9     C     2.97325  2.97325  0.00000  0.05350
      10     C     3.13371  3.13371  0.00000 -0.26742
      11     H     0.47214  0.47214  0.00000  0.05572
      12     H     0.46107  0.46107  0.00000  0.07787
      13     H     0.45523  0.45523  0.00000  0.08954
      14     H     0.45874  0.45874  0.00000  0.08251
      15     H     0.45069  0.45069  0.00000  0.09861

   Total alpha = 21.00000, Total beta = 21.00000, Total charge =  0.00000

*** Psi4 exiting successfully. Buy a developer a beer!
