  ==> Input File <==

--------------------------------------------------------------------------
set {
	reference rhf
	basis 6-31G*
}

set_num_threads( 4 )
memory 2 gb

molecule MOL {
0 1

H	 0.704874	 1.128645	 -1.982233
C	 0.748324	 1.572878	 -0.980449
C	 0.692068	 0.589600	 0.160137
O	 0.833608	 2.751317	 -0.853411
C	 -0.558097	 -0.297372	 0.091132
H	 0.731913	 1.144999	 1.089882
H	 1.581899	 -0.036321	 0.103081
C	 -1.850991	 0.512573	 -0.019058
H	 -0.476753	 -0.965681	 -0.762987
H	 -0.604799	 -0.930658	 0.975228
C	 -3.096943	 -0.368295	 -0.099594
H	 -1.800724	 1.150330	 -0.898172
H	 -1.931651	 1.177355	 0.838044
H	 -3.060452	 -1.020287	 -0.967456
H	 -3.996858	 0.233488	 -0.175704
H	 -3.191959	 -0.995686	 0.782074

	symmetry c1
}
set optking {
	frozen_dihedral = ("
		6 3 5 9
	")
}

ee = optimize('scf')
oeprop('DIPOLE', 'QUADRUPOLE', 'MULLIKEN_CHARGES')
f=open( 'psi4out.xyz', 'w' )
f.write( "16  " )
f.write( str(ee) + "\n" )
f.write( MOL.save_string_xyz() )
f.close()
--------------------------------------------------------------------------

    Molecular point group: c1
  Charge       = 0
  Multiplicity = 1
  Basis Set: 6-31G*
  Basis Set:
  @DF-RHF Final Energy:  -270.01845969649764
    Total Energy =                       -270.0184596964975299
    Molecular point group: c1
  Basis Set: 6-31G*
  Basis Set:
  Basis Set: 6-31G*
  Basis Set:
  @DF-RHF Final Energy:  -270.01881671291142
    Total Energy =                       -270.0188167129113026
  Basis Set: 6-31G*
  Basis Set:
  Basis Set: 6-31G*
  Basis Set:
  @DF-RHF Final Energy:  -270.01878356578356
    Total Energy =                       -270.0187835657835649
  Basis Set: 6-31G*
  Basis Set:
  Basis Set: 6-31G*
  Basis Set:
  @DF-RHF Final Energy:  -270.01901034290427
    Total Energy =                       -270.0190103429044370
  Basis Set: 6-31G*
  Basis Set:
  Basis Set: 6-31G*
  Basis Set:
  @DF-RHF Final Energy:  -270.01901701039827
    Total Energy =                       -270.0190170103982155
  Basis Set: 6-31G*
  Basis Set:
  Basis Set: 6-31G*
  Basis Set:
  @DF-RHF Final Energy:  -270.01901935806336
    Total Energy =                       -270.0190193580631330
  Basis Set: 6-31G*
  Basis Set:
  Basis Set: 6-31G*
  Basis Set:
  @DF-RHF Final Energy:  -270.01902123153775
    Total Energy =                       -270.0190212315375220
  Basis Set: 6-31G*
  Basis Set:
  Charge       = 0
  Multiplicity = 1
  Basis Set: 6-31G*
  Basis Set:

    Orbital Energies (a.u.)
    -----------------------

    Doubly Occupied:

       1A    -20.562158     2A    -11.326641     3A    -11.236110
       4A    -11.235316     5A    -11.227666     6A    -11.217758
       7A     -1.402127     8A     -1.096068     9A     -1.017098
      10A     -0.904720    11A     -0.824117    12A     -0.785425
      13A     -0.665491    14A     -0.654654    15A     -0.618959
      16A     -0.608968    17A     -0.589226    18A     -0.548635
      19A     -0.525101    20A     -0.516443    21A     -0.490598
      22A     -0.479621    23A     -0.467932    24A     -0.409809

  @DF-RHF Final Energy:  -270.01902194361480

   => Energetics <=

    Nuclear Repulsion Energy =            233.5096892386171419
    One-Electron Energy =                -828.2361380836138096
    Two-Electron Energy =                 324.7074269013817229
    DFT Exchange-Correlation Energy =       0.0000000000000000
    Empirical Dispersion Energy =           0.0000000000000000
    PCM Polarization Energy =               0.0000000000000000
    EFP Energy =                            0.0000000000000000
    Total Energy =                       -270.0190219436149164
    Molecular point group: c1
  Basis Set: 6-31G*
  Basis Set:

  -Total Gradient:
     Atom            X                  Y                   Z
    ------   -----------------  -----------------  -----------------
       1        0.000010451893    -0.000011338251    -0.000000076174
       2       -0.000014512263     0.000005716495    -0.000000658395
       3       -0.001328160648     0.002003264319    -0.001034558879
       4       -0.000001202582    -0.000004846046     0.000004677077
       5       -0.001025773961     0.001630218757    -0.001519228306
       6        0.001244414493    -0.001914596633     0.001094330755
       7       -0.000010806326    -0.000009046089    -0.000005354349
       8        0.000006274615     0.000012917742     0.000020476973
       9        0.001086269712    -0.001710855836     0.001446825938
      10        0.000007247723     0.000008805872     0.000001430805
      11        0.000016239556    -0.000017963396    -0.000020000423
      12       -0.000004255756     0.000001202903     0.000000597494
      13        0.000010516308     0.000007398449     0.000007937013
      14       -0.000005966238    -0.000009301837     0.000001892963
      15        0.000012008025     0.000007813106    -0.000001896805
      16       -0.000002744548     0.000000610444     0.000003604314

  **** Optimization is complete! (in 8 steps) ****
    Final optimized geometry and variables:
    Molecular point group: c1

    Geometry (in Angstrom), charge = 0, multiplicity = 1:

    H            1.284170951892     0.330085465753    -1.688176901292
    C            1.347714105928     0.777232863212    -0.688379102246
    C            1.200008191303    -0.193672534810     0.454035778766
    O            1.532317964680     1.944751491048    -0.566975092346
    C           -0.051766453614    -1.076037075648     0.340733096300
    H            1.218208253177     0.353239360268     1.389611752813
    H            2.081177005138    -0.834687014119     0.440767996105
    C           -1.363730989629    -0.292151617518     0.262602287849
    H            0.045145017536    -1.739016905284    -0.516992801802
    H           -0.078108731031    -1.728114477458     1.209701279583
    C           -2.590215738743    -1.202404031202     0.221295037925
    H           -1.363428933760     0.347578322790    -0.617054091585
    H           -1.432259713623     0.373506730558     1.119601535269
    H           -2.562183105485    -1.860343269944    -0.642659209235
    H           -3.505552597020    -0.622312936353     0.165650156239
    H           -2.646118534893    -1.825298382806     1.109409085956

  Mulliken Charges: (a.u.)
   Center  Symbol    Alpha    Beta     Spin     Total
       1     H     0.43237  0.43237  0.00000  0.13526
       2     C     2.83078  2.83078  0.00000  0.33845
       3     C     3.20880  3.20880  0.00000 -0.41759
       4     O     4.23799  4.23799  0.00000 -0.47597
       5     C     3.16389  3.16389  0.00000 -0.32778
       6     H     0.39970  0.39970  0.00000  0.20061
       7     H     0.40681  0.40681  0.00000  0.18638
       8     C     3.15616  3.15616  0.00000 -0.31232
       9     H     0.41931  0.41931  0.00000  0.16139
      10     H     0.41311  0.41311  0.00000  0.17379
      11     C     3.24025  3.24025  0.00000 -0.48050
      12     H     0.41845  0.41845  0.00000  0.16311
      13     H     0.41594  0.41594  0.00000  0.16812
      14     H     0.42076  0.42076  0.00000  0.15848
      15     H     0.41552  0.41552  0.00000  0.16897
      16     H     0.42019  0.42019  0.00000  0.15963

   Total alpha = 24.00000, Total beta = 24.00000, Total charge =  0.00000
