  ==> Input File <==

--------------------------------------------------------------------------
set {
	reference rhf
	basis 6-31G*
}

set_num_threads( 4 )
memory 2 gb

molecule MOL {
0 1

O	 0.266953	 0.952112	 -0.866793
C	 0.486307	 0.169203	 0.000779
C	 1.608116	 -0.841643	 0.000302
O	 -0.242774	 0.078837	 1.104356
C	 2.990107	 -0.200498	 -0.000684
H	 1.468623	 -1.481519	 -0.865924
H	 1.469683	 -1.481289	 0.866878
H	 3.129736	 0.423364	 -0.875135
H	 3.757882	 -0.966877	 -0.001197
H	 3.130964	 0.423383	 0.873533
C	 -1.341318	 0.974159	 1.242196
C	 -2.007718	 0.674080	 2.568159
H	 -2.019651	 0.830233	 0.412296
H	 -0.975071	 1.990847	 1.199794
H	 -2.364082	 -0.349319	 2.596764
H	 -2.854468	 1.336855	 2.714415
H	 -1.313877	 0.817678	 3.388659

	symmetry c1
}
set optking {
	frozen_dihedral = ("
		4 2 3 6
	")
}

ee = optimize('scf')
oeprop('DIPOLE', 'QUADRUPOLE', 'MULLIKEN_CHARGES')
f=open( 'psi4out.xyz', 'w' )
f.write( "17  " )
f.write( str(ee) + "\n" )
f.write( MOL.save_string_xyz() )
f.close()
--------------------------------------------------------------------------

    Molecular point group: c1
  Charge       = 0
  Multiplicity = 1
  Basis Set: 6-31G*
  Basis Set:
  @DF-RHF Final Energy:  -344.90946737363868
    Total Energy =                       -344.9094673736387904
    Molecular point group: c1
  Basis Set: 6-31G*
  Basis Set:
  Basis Set: 6-31G*
  Basis Set:
  @DF-RHF Final Energy:  -344.91008397806252
    Total Energy =                       -344.9100839780624028
  Basis Set: 6-31G*
  Basis Set:
  Basis Set: 6-31G*
  Basis Set:
  @DF-RHF Final Energy:  -344.90859500235763
    Total Energy =                       -344.9085950023575151
  Basis Set: 6-31G*
  Basis Set:
  Basis Set: 6-31G*
  Basis Set:
  @DF-RHF Final Energy:  -344.91019675526860
    Total Energy =                       -344.9101967552684869
  Basis Set: 6-31G*
  Basis Set:
  Basis Set: 6-31G*
  Basis Set:
  @DF-RHF Final Energy:  -344.91020427757172
    Total Energy =                       -344.9102042775719497
  Basis Set: 6-31G*
  Basis Set:
  Charge       = 0
  Multiplicity = 1
  Basis Set: 6-31G*
  Basis Set:

    Orbital Energies (a.u.)
    -----------------------

    Doubly Occupied:

       1A    -20.603314     2A    -20.541028     3A    -11.370767
       4A    -11.284790     5A    -11.236090     6A    -11.222716
       7A    -11.222507     8A     -1.467900     9A     -1.360533
      10A     -1.070233    11A     -1.032385    12A     -0.909275
      13A     -0.851127    14A     -0.776100    15A     -0.694176
      16A     -0.685887    17A     -0.666177    18A     -0.619977
      19A     -0.594425    20A     -0.574453    21A     -0.555564
      22A     -0.532118    23A     -0.525211    24A     -0.510188
      25A     -0.501535    26A     -0.493484    27A     -0.451317
      28A     -0.432957

  @DF-RHF Final Energy:  -344.91020452238558

   => Energetics <=

    Nuclear Repulsion Energy =            315.2447388657870988
    One-Electron Energy =               -1094.7374151332419387
    Two-Electron Energy =                 434.5824717450691992
    DFT Exchange-Correlation Energy =       0.0000000000000000
    Empirical Dispersion Energy =           0.0000000000000000
    PCM Polarization Energy =               0.0000000000000000
    EFP Energy =                            0.0000000000000000
    Total Energy =                       -344.9102045223856408
    Molecular point group: c1
  Basis Set: 6-31G*
  Basis Set:

  -Total Gradient:
     Atom            X                  Y                   Z
    ------   -----------------  -----------------  -----------------
       1       -0.000012662240    -0.000037800234     0.000057551429
       2       -0.000298334227    -0.000331381678    -0.000524119397
       3       -0.000307128152    -0.000354183849     0.000510738370
       4        0.000243788271     0.000334162125     0.000267407549
       5       -0.000023302014     0.000003644530    -0.000010031137
       6        0.000350406039     0.000381539495    -0.000319748346
       7        0.000002370267    -0.000006051726    -0.000000059193
       8        0.000003898987     0.000011252256     0.000007250887
       9       -0.000001168382    -0.000006290965    -0.000001815650
      10        0.000003036041    -0.000002871975    -0.000005744749
      11        0.000095210546     0.000032411144     0.000039523541
      12       -0.000025564735    -0.000008809672    -0.000006813889
      13       -0.000007327884    -0.000010113121    -0.000015692675
      14       -0.000023499205    -0.000001314680    -0.000000116895
      15       -0.000003222315    -0.000003505615     0.000007456299
      16       -0.000000501273    -0.000002547026     0.000000083875
      17        0.000004000280     0.000001860990    -0.000005870013

  **** Optimization is complete! (in 6 steps) ****
    Final optimized geometry and variables:
    Molecular point group: c1

    Geometry (in Angstrom), charge = 0, multiplicity = 1:

    O            0.076104263643     0.684033875637    -1.417015578554
    C            0.254585021684    -0.115486810999    -0.553604216679
    C            1.370497615286    -1.134305143384    -0.566796123108
    O           -0.501146278999    -0.198573685564     0.529992790410
    C            2.740392401632    -0.453557455471    -0.642647410880
    H            1.225362429967    -1.749422646819    -1.448995755539
    H            1.296475320693    -1.769609066206     0.305483776281
    H            2.800544186525     0.184770697540    -1.515027148713
    H            3.526146778887    -1.198186806099    -0.705391996379
    H            2.925543061640     0.153941882519     0.237402068259
    C           -1.583932151708     0.719249313631     0.647044399641
    C           -2.292299641381     0.421360175766     1.951575024115
    H           -2.241641486646     0.597532510008    -0.202646425533
    H           -1.194295534674     1.727716167959     0.623954216888
    H           -2.671346279351    -0.594245926040     1.960564115182
    H           -3.128213447699     1.101071336578     2.081415559391
    H           -1.618185309229     0.542274170678     2.791928170175

  Mulliken Charges: (a.u.)
   Center  Symbol    Alpha    Beta     Spin     Total
       1     O     4.28762  4.28762  0.00000 -0.57525
       2     C     2.60807  2.60807  0.00000  0.78387
       3     C     3.20182  3.20182  0.00000 -0.40363
       4     O     4.30990  4.30990  0.00000 -0.61980
       5     C     3.24806  3.24806  0.00000 -0.49613
       6     H     0.40061  0.40061  0.00000  0.19877
       7     H     0.40101  0.40101  0.00000  0.19798
       8     H     0.40233  0.40233  0.00000  0.19534
       9     H     0.41405  0.41405  0.00000  0.17189
      10     H     0.41512  0.41512  0.00000  0.16977
      11     C     3.00357  3.00357  0.00000 -0.00715
      12     C     3.24860  3.24860  0.00000 -0.49719
      13     H     0.40967  0.40967  0.00000  0.18067
      14     H     0.40979  0.40979  0.00000  0.18041
      15     H     0.41173  0.41173  0.00000  0.17654
      16     H     0.41618  0.41618  0.00000  0.16765
      17     H     0.41187  0.41187  0.00000  0.17627

   Total alpha = 28.00000, Total beta = 28.00000, Total charge = -0.00000
