  ==> Input File <==

--------------------------------------------------------------------------
set {
	reference rhf
	basis 6-31G*
}

set_num_threads( 4 )
memory 2 gb

molecule MOL {
0 1

O	 -2.042549	 -1.228399	 -0.269030
C	 -1.653912	 -0.146171	 0.050137
C	 -0.332303	 0.024011	 0.778412
C	 -2.438579	 1.106236	 -0.272369
C	 0.845713	 -0.001731	 -0.208243
H	 -0.323783	 0.953829	 1.340327
H	 -0.235459	 -0.796807	 1.480410
C	 2.200309	 0.136118	 0.488247
H	 0.733710	 0.800019	 -0.936072
H	 0.811185	 -0.933796	 -0.764304
C	 2.184773	 -0.393897	 1.921443
H	 2.957540	 -0.393786	 -0.085536
H	 2.495427	 1.182758	 0.492566
H	 1.925770	 -1.448551	 1.947419
H	 1.459213	 0.139629	 2.528366
H	 3.156671	 -0.280573	 2.391121
H	 -3.277823	 0.863061	 -0.908988
H	 -1.806773	 1.843019	 -0.759671
H	 -2.802853	 1.554979	 0.648059

	symmetry c1
}
set optking {
	frozen_dihedral = ("
		11 8 5 9
	")
}

ee = optimize('scf')
oeprop('DIPOLE', 'QUADRUPOLE', 'MULLIKEN_CHARGES')
f=open( 'psi4out.xyz', 'w' )
f.write( "19  " )
f.write( str(ee) + "\n" )
f.write( MOL.save_string_xyz() )
f.close()
--------------------------------------------------------------------------

    Molecular point group: c1
  Charge       = 0
  Multiplicity = 1
  Basis Set: 6-31G*
  Basis Set:
  @DF-RHF Final Energy:  -309.05637788400060
    Total Energy =                       -309.0563778840004829
    Molecular point group: c1
  Basis Set: 6-31G*
  Basis Set:
  Basis Set: 6-31G*
  Basis Set:
  @DF-RHF Final Energy:  -309.05696668655190
    Total Energy =                       -309.0569666865518457
  Basis Set: 6-31G*
  Basis Set:
  Basis Set: 6-31G*
  Basis Set:
  @DF-RHF Final Energy:  -309.05889068067989
    Total Energy =                       -309.0588906806797240
  Basis Set: 6-31G*
  Basis Set:
  Basis Set: 6-31G*
  Basis Set:
  @DF-RHF Final Energy:  -309.05898342035601
    Total Energy =                       -309.0589834203561281
  Basis Set: 6-31G*
  Basis Set:
  @DF-RHF Final Energy:  -309.05903406846426
    Total Energy =                       -309.0590340684642001
  Basis Set: 6-31G*
  Basis Set:
  @DF-RHF Final Energy:  -309.05907367804440
    Total Energy =                       -309.0590736780444558
  Basis Set: 6-31G*
  Basis Set:
  Basis Set: 6-31G*
  Basis Set:
  @DF-RHF Final Energy:  -309.05908231417277
    Total Energy =                       -309.0590823141727128
  Basis Set: 6-31G*
  Basis Set:
  Basis Set: 6-31G*
  Basis Set:
  @DF-RHF Final Energy:  -309.05908687964745
    Total Energy =                       -309.0590868796473387
  Basis Set: 6-31G*
  Basis Set:
  Charge       = 0
  Multiplicity = 1
  Basis Set: 6-31G*
  Basis Set:

    Orbital Energies (a.u.)
    -----------------------

    Doubly Occupied:

       1A    -20.547217     2A    -11.324332     3A    -11.231049
       4A    -11.228726     5A    -11.228291     6A    -11.225376
       7A    -11.215370     8A     -1.393019     9A     -1.089261
      10A     -1.026717    11A     -0.980929    12A     -0.902439
      13A     -0.795378    14A     -0.733566    15A     -0.661785
      16A     -0.650791    17A     -0.621928    18A     -0.602738
      19A     -0.586528    20A     -0.575265    21A     -0.550742
      22A     -0.544426    23A     -0.517744    24A     -0.502361
      25A     -0.480646    26A     -0.466350    27A     -0.461752
      28A     -0.397304

  @DF-RHF Final Energy:  -309.05908786507757

   => Energetics <=

    Nuclear Repulsion Energy =            305.0735358628751328
    One-Electron Energy =               -1023.1811880479792762
    Two-Electron Energy =                 409.0485643200264008
    DFT Exchange-Correlation Energy =       0.0000000000000000
    Empirical Dispersion Energy =           0.0000000000000000
    PCM Polarization Energy =               0.0000000000000000
    EFP Energy =                            0.0000000000000000
    Total Energy =                       -309.0590878650777427
    Molecular point group: c1
  Basis Set: 6-31G*
  Basis Set:

  -Total Gradient:
     Atom            X                  Y                   Z
    ------   -----------------  -----------------  -----------------
       1        0.000000485129    -0.000008465515    -0.000018989423
       2        0.000018484032    -0.000045530700     0.000056191485
       3        0.000034280865     0.000073587917     0.000019159044
       4        0.000046969940     0.000019800981    -0.000038551598
       5        0.002506785633    -0.002437253273    -0.004684836551
       6       -0.000046112700     0.000023112111    -0.000020476918
       7        0.000009122452     0.000003030519     0.000034031823
       8        0.001398073993    -0.005266887325    -0.001326392178
       9       -0.002560739076     0.003438281639     0.004430335785
      10       -0.000016039363     0.000047299661    -0.000062849341
      11       -0.001379200693     0.004132868812     0.001639596047
      12       -0.000042463131     0.000027938076    -0.000041310113
      13        0.000028687293    -0.000016350206    -0.000011533316
      14        0.000079028792    -0.000008605473     0.000007005891
      15       -0.000041140021    -0.000025587215     0.000007336875
      16       -0.000011769839     0.000042889029    -0.000009887822
      17        0.000005061532    -0.000004996374     0.000004907721
      18       -0.000013559732    -0.000007356692     0.000013278210
      19       -0.000015955108     0.000012224026     0.000002984378

  **** Optimization is complete! (in 9 steps) ****
    Final optimized geometry and variables:
    Molecular point group: c1

    Geometry (in Angstrom), charge = 0, multiplicity = 1:

    O           -1.893028910095    -1.128354005312    -0.707665958058
    C           -1.502028615615    -0.060318840729    -0.345973058461
    C           -0.209536520001     0.070186467091     0.440490578710
    C           -2.255545114252     1.211243705879    -0.668276701518
    C            0.997275145816     0.027840444420    -0.516609215808
    H           -0.204767123302     0.996099548669     1.008960120523
    H           -0.170064002422    -0.757187734563     1.137754176387
    C            2.372799821739     0.202119540453     0.162771718692
    H            0.867150204604     0.840768219759    -1.226607745491
    H            0.957262544163    -0.904510240361    -1.068284845007
    C            2.492188278380    -0.317249171448     1.597081186368
    H            3.126340908659    -0.272638412482    -0.458245052428
    H            2.621053027662     1.260823239315     0.174548980208
    H            2.259592549842    -1.376233416632     1.665835398346
    H            1.832555933799     0.213210306278     2.274674866332
    H            3.506914419401    -0.181990015630     1.957862285227
    H           -3.069048100947     0.996907326540    -1.347258027914
    H           -1.594036055464     1.952462444640    -1.106930158692
    H           -2.654473819112     1.639859578880     0.247424954483

  Mulliken Charges: (a.u.)
   Center  Symbol    Alpha    Beta     Spin     Total
       1     O     4.26252  4.26252  0.00000 -0.52505
       2     C     2.73685  2.73685  0.00000  0.52630
       3     C     3.20324  3.20324  0.00000 -0.40649
       4     C     3.28951  3.28951  0.00000 -0.57903
       5     C     3.16329  3.16329  0.00000 -0.32657
       6     H     0.41745  0.41745  0.00000  0.16509
       7     H     0.39890  0.39890  0.00000  0.20221
       8     C     3.15327  3.15327  0.00000 -0.30655
       9     H     0.41935  0.41935  0.00000  0.16131
      10     H     0.40467  0.40467  0.00000  0.19066
      11     C     3.24451  3.24451  0.00000 -0.48903
      12     H     0.41603  0.41603  0.00000  0.16794
      13     H     0.42159  0.42159  0.00000  0.15683
      14     H     0.41841  0.41841  0.00000  0.16318
      15     H     0.41984  0.41984  0.00000  0.16031
      16     H     0.41674  0.41674  0.00000  0.16651
      17     H     0.39700  0.39700  0.00000  0.20601
      18     H     0.41009  0.41009  0.00000  0.17982
      19     H     0.40673  0.40673  0.00000  0.18654

   Total alpha = 28.00000, Total beta = 28.00000, Total charge =  0.00000
