  ==> Input File <==

--------------------------------------------------------------------------
set {
	reference rhf
	basis cc-pvtz
}

set_num_threads( 4 )
memory 2 gb

molecule MOL {
0 1

H	 -1.611680	 0.514738	 -2.241742
C	 -1.240537	 -0.377745	 -1.743134
O	 -1.401606	 -0.295183	 -0.366624
H	 -1.804691	 -1.230532	 -2.091521
H	 -0.195754	 -0.514767	 -2.016152
C	 -0.718530	 0.758693	 0.228682
C	 0.718529	 0.758687	 -0.228709
H	 -1.176498	 1.708665	 -0.046615
H	 -0.748705	 0.673525	 1.312779
O	 1.401606	 -0.295166	 0.366636
H	 0.748705	 0.673477	 -1.312803
H	 1.176496	 1.708671	 0.046552
C	 2.714315	 -0.441627	 -0.061017
H	 2.765292	 -0.641548	 -1.128869
H	 3.305661	 0.447341	 0.150952
H	 3.143725	 -1.278506	 0.470147

	symmetry c1
}
set optking {
	frozen_dihedral = ("
		2 3 6 7
	")
}

ee = optimize('scf')
oeprop('DIPOLE', 'QUADRUPOLE', 'MULLIKEN_CHARGES')
f=open( 'psi4out.xyz', 'w' )
f.write( "16  " )
f.write( str(ee) + "\n" )
f.write( MOL.save_string_xyz() )
f.close()
--------------------------------------------------------------------------

    Molecular point group: c1
  Charge       = 0
  Multiplicity = 1
  Basis Set: CC-PVTZ
  Basis Set:
  @DF-RHF Final Energy:  -307.08385813181985
    Total Energy =                       -307.0838581318200227
    Molecular point group: c1
  Basis Set: CC-PVTZ
  Basis Set:
  Basis Set: CC-PVTZ
  Basis Set:
  @DF-RHF Final Energy:  -307.09012391956782
    Total Energy =                       -307.0901239195673611
  Basis Set: CC-PVTZ
  Basis Set:
  Basis Set: CC-PVTZ
  Basis Set:
  @DF-RHF Final Energy:  -307.09341416707622
    Total Energy =                       -307.0934141670762756
  Basis Set: CC-PVTZ
  Basis Set:
  Basis Set: CC-PVTZ
  Basis Set:
  @DF-RHF Final Energy:  -307.09382002756411
    Total Energy =                       -307.0938200275641066
  Basis Set: CC-PVTZ
  Basis Set:
  Basis Set: CC-PVTZ
  Basis Set:
  @DF-RHF Final Energy:  -307.09391757710455
    Total Energy =                       -307.0939175771042642
  Basis Set: CC-PVTZ
  Basis Set:
  Basis Set: CC-PVTZ
  Basis Set:
  @DF-RHF Final Energy:  -307.09393475719122
    Total Energy =                       -307.0939347571912776
  Basis Set: CC-PVTZ
  Basis Set:
  Basis Set: CC-PVTZ
  Basis Set:
  @DF-RHF Final Energy:  -307.09393580468645
    Total Energy =                       -307.0939358046865664
  Basis Set: CC-PVTZ
  Basis Set:
  Charge       = 0
  Multiplicity = 1
  Basis Set: CC-PVTZ
  Basis Set:

    Orbital Energies (a.u.)
    -----------------------

    Doubly Occupied:

       1A    -20.553732     2A    -20.545120     3A    -11.271678
       4A    -11.267688     5A    -11.266699     6A    -11.259545
       7A     -1.393847     8A     -1.372917     9A     -1.029477
      10A     -0.949413    11A     -0.900860    12A     -0.812509
      13A     -0.693381    14A     -0.683252    15A     -0.661065
      16A     -0.639657    17A     -0.630962    18A     -0.598157
      19A     -0.558742    20A     -0.532117    21A     -0.518704
      22A     -0.493294    23A     -0.453816    24A     -0.424312
      25A     -0.413268

  @DF-RHF Final Energy:  -307.09393591536139

   => Energetics <=

    Nuclear Repulsion Energy =            263.9961148384339822
    One-Electron Energy =                -942.3316827505493620
    Two-Electron Energy =                 371.2416319967538811
    DFT Exchange-Correlation Energy =       0.0000000000000000
    Empirical Dispersion Energy =           0.0000000000000000
    PCM Polarization Energy =               0.0000000000000000
    EFP Energy =                            0.0000000000000000
    Total Energy =                       -307.0939359153614987
    Molecular point group: c1
  Basis Set: CC-PVTZ
  Basis Set:

  -Total Gradient:
     Atom            X                  Y                   Z
    ------   -----------------  -----------------  -----------------
       1        0.000004874088    -0.000000233356     0.000007109051
       2        0.001565118656    -0.001305869373     0.000309319391
       3       -0.002488251285     0.002415968753    -0.001187203871
       4        0.000006049487    -0.000005338020    -0.000006028456
       5        0.000000247444     0.000001377532    -0.000001833958
       6        0.001318695555    -0.002146917489     0.002366703930
       7       -0.000423370724     0.001059133987    -0.001487394714
       8        0.000000089091    -0.000007930007     0.000006609055
       9        0.000003699630     0.000000008257     0.000005576734
      10       -0.000004866275    -0.000000020090    -0.000003704515
      11        0.000002852051    -0.000005358510    -0.000008866421
      12        0.000002245034     0.000000912496    -0.000004051724
      13        0.000005841866    -0.000005461923     0.000005578419
      14       -0.000002326781     0.000000081784     0.000003139704
      15        0.000003714827    -0.000000052433    -0.000002717843
      16        0.000005387336    -0.000000301609    -0.000002234783

  **** Optimization is complete! (in 8 steps) ****
    Final optimized geometry and variables:
    Molecular point group: c1

    Geometry (in Angstrom), charge = 0, multiplicity = 1:

    H           -1.763618291420     0.419538589041    -1.959608377246
    C           -1.598673124282    -0.491888345497    -1.386900473165
    O           -1.697730645194    -0.267208640916    -0.018984436115
    H           -2.367917313931    -1.203465002711    -1.649985442396
    H           -0.635928166889    -0.908813430374    -1.661773544210
    C           -0.947178658479     0.777247206420     0.513121873065
    C            0.520844263733     0.805112564308     0.138246154902
    H           -1.375802791822     1.735352864053     0.215290916290
    H           -1.035865468122     0.690394851217     1.586839290597
    O            1.145069314572    -0.362570964858     0.558561131685
    H            0.649965051782     0.939586469160    -0.933853735716
    H            0.965125265067     1.674631879950     0.623058634091
    C            2.504888093927    -0.419755875934     0.280763936330
    H            2.696831517473    -0.358314039729    -0.788500326454
    H            3.046700420725     0.385083672633     0.773153988714
    H            2.877790356597    -1.365031630770     0.646755602320

  Mulliken Charges: (a.u.)
   Center  Symbol    Alpha    Beta     Spin     Total
       1     H     0.47455  0.47455  0.00000  0.05091
       2     C     3.03560  3.03560  0.00000 -0.07119
       3     O     4.17303  4.17303  0.00000 -0.34606
       4     H     0.44320  0.44320  0.00000  0.11360
       5     H     0.46617  0.46617  0.00000  0.06767
       6     C     2.97213  2.97213  0.00000  0.05575
       7     C     2.98958  2.98958  0.00000  0.02085
       8     H     0.47199  0.47199  0.00000  0.05601
       9     H     0.45138  0.45138  0.00000  0.09723
      10     O     4.17125  4.17125  0.00000 -0.34250
      11     H     0.46945  0.46945  0.00000  0.06110
      12     H     0.45998  0.45998  0.00000  0.08004
      13     C     3.03476  3.03476  0.00000 -0.06952
      14     H     0.47217  0.47217  0.00000  0.05566
      15     H     0.46977  0.46977  0.00000  0.06047
      16     H     0.44501  0.44501  0.00000  0.10998

   Total alpha = 25.00000, Total beta = 25.00000, Total charge = -0.00000
