  ==> Input File <==

--------------------------------------------------------------------------
set {
	reference rhf
	basis 6-31G*
}

set_num_threads( 1 )
memory 2 gb

molecule MOL {
0 1

H	 3.503935	 -0.364136	 0.837129
N	 3.092854	 -0.246221	 -0.068770
C	 1.865559	 0.531981	 0.018834
H	 2.901659	 -1.164805	 -0.421585
C	 0.645745	 -0.382037	 -0.029944
H	 1.841966	 1.207024	 -0.831236
H	 1.815756	 1.155410	 0.915079
C	 -0.679275	 0.379305	 0.025956
H	 0.698998	 -0.976915	 -0.937203
H	 0.693479	 -1.083846	 0.802235
C	 -1.903357	 -0.536963	 -0.023547
H	 -0.726309	 1.082987	 -0.803784
H	 -0.717680	 0.977832	 0.934877
C	 -3.225172	 0.228290	 0.028445
H	 -1.867824	 -1.134999	 -0.931459
H	 -1.860449	 -1.239604	 0.805977
H	 -3.313397	 0.915643	 -0.808262
H	 -4.073500	 -0.448134	 -0.008893
H	 -3.306061	 0.809945	 0.942516

	symmetry c1
}
set optking {
	frozen_dihedral = ("
		6 3 5 9,
		12 8 5 9,
		12 8 11 15
	")
}

ee = energy('scf')
oeprop('DIPOLE', 'QUADRUPOLE', 'MULLIKEN_CHARGES')
f=open( 'psi4out.xyz', 'w' )
f.write( "19  " )
f.write( str(ee) + "\n" )
f.write( MOL.save_string_xyz() )
f.close()
--------------------------------------------------------------------------

    Molecular point group: c1

    Geometry (in Angstrom), charge = 0, multiplicity = 1:

       Center              X                  Y                   Z               Mass
    ------------   -----------------  -----------------  -----------------  -----------------
           H          3.511884819807    -0.351890985323     0.839732713577     1.007825032070
           N          3.100803819807    -0.233975985323    -0.066166286423    14.003074004780
           C          1.873508819807     0.544226014677     0.021437713577    12.000000000000
           H          2.909608819807    -1.152559985323    -0.418981286423     1.007825032070
           C          0.653694819807    -0.369791985323    -0.027340286423    12.000000000000
           H          1.849915819807     1.219269014677    -0.828632286423     1.007825032070
           H          1.823705819807     1.167655014677     0.917682713577     1.007825032070
           C         -0.671325180193     0.391550014677     0.028559713577    12.000000000000
           H          0.706947819807    -0.964669985323    -0.934599286423     1.007825032070
           H          0.701428819807    -1.071600985323     0.804838713577     1.007825032070
           C         -1.895407180193    -0.524717985323    -0.020943286423    12.000000000000
           H         -0.718359180193     1.095232014677    -0.801180286423     1.007825032070
           H         -0.709730180193     0.990077014677     0.937480713577     1.007825032070
           C         -3.217222180193     0.240535014677     0.031048713577    12.000000000000
           H         -1.859874180193    -1.122753985323    -0.928855286423     1.007825032070
           H         -1.852499180193    -1.227358985323     0.808580713577     1.007825032070
           H         -3.305447180193     0.927888014677    -0.805658286423     1.007825032070
           H         -4.065550180193    -0.435888985323    -0.006289286423     1.007825032070
           H         -3.298111180193     0.822190014677     0.945119713577     1.007825032070

  Charge       = 0
  Multiplicity = 1
  Basis Set: 6-31G*
  Basis Set:

    Orbital Energies (a.u.)
    -----------------------

    Doubly Occupied:

       1A    -15.529600     2A    -11.239416     3A    -11.216753
       4A    -11.215633     5A    -11.214500     6A    -11.209538
       7A     -1.177573     8A     -1.075413     9A     -0.999807
      10A     -0.901115    11A     -0.819408    12A     -0.794189
      13A     -0.672912    14A     -0.639543    15A     -0.599717
      16A     -0.596570    17A     -0.568103    18A     -0.555806
      19A     -0.526861    20A     -0.502517    21A     -0.487050
      22A     -0.469173    23A     -0.465587    24A     -0.460077
      25A     -0.372657

  @DF-RHF Final Energy:  -251.34689672397499

   => Energetics <=

    Nuclear Repulsion Energy =            246.2106368943400128
    One-Electron Energy =                -826.4960197534239796
    Two-Electron Energy =                 328.9384861351088034
    DFT Exchange-Correlation Energy =       0.0000000000000000
    Empirical Dispersion Energy =           0.0000000000000000
    PCM Polarization Energy =               0.0000000000000000
    EFP Energy =                            0.0000000000000000
    Total Energy =                       -251.3468967239751350

  Mulliken Charges: (a.u.)
   Center  Symbol    Alpha    Beta     Spin     Total
       1     H     0.33339  0.33339  0.00000  0.33322
       2     N     3.92551  3.92551  0.00000 -0.85102
       3     C     3.05276  3.05276  0.00000 -0.10553
       4     H     0.33184  0.33184  0.00000  0.33633
       5     C     3.16633  3.16633  0.00000 -0.33266
       6     H     0.41904  0.41904  0.00000  0.16193
       7     H     0.42321  0.42321  0.00000  0.15358
       8     C     3.15463  3.15463  0.00000 -0.30925
       9     H     0.42303  0.42303  0.00000  0.15395
      10     H     0.42548  0.42548  0.00000  0.14904
      11     C     3.15097  3.15097  0.00000 -0.30195
      12     H     0.42206  0.42206  0.00000  0.15588
      13     H     0.42386  0.42386  0.00000  0.15228
      14     C     3.23938  3.23938  0.00000 -0.47877
      15     H     0.42273  0.42273  0.00000  0.15453
      16     H     0.42338  0.42338  0.00000  0.15323
      17     H     0.42136  0.42136  0.00000  0.15727
      18     H     0.41918  0.41918  0.00000  0.16164
      19     H     0.42185  0.42185  0.00000  0.15630

   Total alpha = 25.00000, Total beta = 25.00000, Total charge =  0.00000
