  ==> Input File <==

--------------------------------------------------------------------------
set {
	reference rhf
	basis cc-pvtz
}

set_num_threads( 4 )
memory 2 gb

molecule MOL {
0 1

H	 -0.795677	 1.694307	 -0.133699
O	 0.057669	 1.301365	 -0.158528
C	 0.004145	 -0.005141	 0.363049
C	 1.199168	 -0.827145	 -0.096690
C	 -1.316386	 -0.602081	 -0.083515
H	 0.012026	 0.043363	 1.450619
H	 1.216685	 -0.896776	 -1.178167
H	 2.129940	 -0.372354	 0.228035
H	 1.160783	 -1.829622	 0.314294
H	 -1.357882	 -0.655920	 -1.165207
H	 -2.140147	 0.011735	 0.257253
H	 -1.440790	 -1.601175	 0.317669

	symmetry c1
}
set optking {
	frozen_dihedral = ("
		1 2 3 4
	")
}

ee = optimize('scf')
oeprop('DIPOLE', 'QUADRUPOLE', 'MULLIKEN_CHARGES')
f=open( 'psi4out.xyz', 'w' )
f.write( "12  " )
f.write( str(ee) + "\n" )
f.write( MOL.save_string_xyz() )
f.close()
--------------------------------------------------------------------------

    Molecular point group: c1
  Charge       = 0
  Multiplicity = 1
  Basis Set: CC-PVTZ
  Basis Set:
  @DF-RHF Final Energy:  -193.19355192272639
    Total Energy =                       -193.1935519227263853
    Molecular point group: c1
  Basis Set: CC-PVTZ
  Basis Set:
  Basis Set: CC-PVTZ
  Basis Set:
  @DF-RHF Final Energy:  -193.19511609581204
    Total Energy =                       -193.1951160958120113
  Basis Set: CC-PVTZ
  Basis Set:
  Basis Set: CC-PVTZ
  Basis Set:
  @DF-RHF Final Energy:  -193.19547204292067
    Total Energy =                       -193.1954720429205281
  Basis Set: CC-PVTZ
  Basis Set:
  Basis Set: CC-PVTZ
  Basis Set:
  @DF-RHF Final Energy:  -193.19547635796789
    Total Energy =                       -193.1954763579679195
  Basis Set: CC-PVTZ
  Basis Set:
  Charge       = 0
  Multiplicity = 1
  Basis Set: CC-PVTZ
  Basis Set:

    Orbital Energies (a.u.)
    -----------------------

    Doubly Occupied:

       1A    -20.543626     2A    -11.273996     3A    -11.214687
       4A    -11.205042     5A     -1.364327     6A     -1.043890
       7A     -0.942347     8A     -0.807067     9A     -0.692362
      10A     -0.637500    11A     -0.607758    12A     -0.547166
      13A     -0.536346    14A     -0.528488    15A     -0.513995
      16A     -0.469775    17A     -0.432369

  @DF-RHF Final Energy:  -193.19547676950708

   => Energetics <=

    Nuclear Repulsion Energy =            135.8042268891721278
    One-Electron Energy =                -531.2779271391625571
    Two-Electron Energy =                 202.2782234804833479
    DFT Exchange-Correlation Energy =       0.0000000000000000
    Empirical Dispersion Energy =           0.0000000000000000
    PCM Polarization Energy =               0.0000000000000000
    EFP Energy =                            0.0000000000000000
    Total Energy =                       -193.1954767695070814
    Molecular point group: c1
  Basis Set: CC-PVTZ
  Basis Set:

  -Total Gradient:
     Atom            X                  Y                   Z
    ------   -----------------  -----------------  -----------------
       1       -0.000294564760    -0.000584483279    -0.001566192765
       2        0.000200392600     0.000641217471     0.001648110983
       3        0.000611381619     0.000268689642     0.000734993889
       4       -0.000534465349    -0.000299046359    -0.000827699531
       5        0.000002643029     0.000003235960     0.000001815707
       6       -0.000004141923    -0.000024466265    -0.000015046411
       7       -0.000007843756     0.000005603504    -0.000002694353
       8       -0.000012186398     0.000007687776     0.000011807492
       9        0.000007892559    -0.000008904108    -0.000009488922
      10        0.000008520195     0.000015121497     0.000015882422
      11        0.000019874542    -0.000003847911    -0.000004488521
      12        0.000002497642    -0.000020807929     0.000013000009

  **** Optimization is complete! (in 5 steps) ****
    Final optimized geometry and variables:
    Molecular point group: c1

    Geometry (in Angstrom), charge = 0, multiplicity = 1:

    H           -0.675887414184     1.744401233362    -0.150283403467
    O            0.151677598090     1.300054447152    -0.141711453286
    C            0.001316618687    -0.004486338410     0.366903855444
    C            1.201851741823    -0.805652847812    -0.099573456652
    C           -1.313165063085    -0.623437861136    -0.083922928897
    H            0.009445700555     0.037595853468     1.454360847030
    H            1.207663926676    -0.880380819097    -1.180701008200
    H            2.118870611271    -0.321577452409     0.211387582850
    H            1.182378393294    -1.805588773665     0.318538321538
    H           -1.355407195658    -0.680966864069    -1.165886305221
    H           -2.157930030076    -0.033646849361     0.259583560918
    H           -1.426655649941    -1.623287523037     0.318262682311

  Mulliken Charges: (a.u.)
   Center  Symbol    Alpha    Beta     Spin     Total
       1     H     0.39415  0.39415  0.00000  0.21170
       2     O     4.20660  4.20660  0.00000 -0.41320
       3     C     2.91971  2.91971  0.00000  0.16057
       4     C     3.14073  3.14073  0.00000 -0.28147
       5     C     3.15097  3.15097  0.00000 -0.30194
       6     H     0.46613  0.46613  0.00000  0.06773
       7     H     0.45469  0.45469  0.00000  0.09062
       8     H     0.44604  0.44604  0.00000  0.10793
       9     H     0.45930  0.45930  0.00000  0.08139
      10     H     0.45044  0.45044  0.00000  0.09912
      11     H     0.45723  0.45723  0.00000  0.08554
      12     H     0.45400  0.45400  0.00000  0.09199

   Total alpha = 17.00000, Total beta = 17.00000, Total charge = -0.00000
