                              Psi4 1.0.54 Driver

  ==> Input File <==

--------------------------------------------------------------------------
set {
	reference rhf
	basis cc-pvtz
}

set_num_threads( 4 )
memory 2 gb

molecule MOL {
0 1

H	 -3.436473	 1.252944	 -1.023892
O	 -3.458596	 0.315260	 -0.960865
C	 -3.176635	 -0.080824	 0.355601
C	 -1.763371	 0.265266	 0.799691
H	 -3.321825	 -1.153438	 0.379502
H	 -3.895468	 0.357385	 1.043382
C	 -0.673390	 -0.426948	 -0.013392
H	 -1.631049	 1.344913	 0.747560
H	 -1.664587	 -0.001624	 1.849167
C	 0.737842	 -0.043159	 0.423759
H	 -0.806103	 -0.190518	 -1.063345
H	 -0.797221	 -1.503753	 0.074146
C	 1.824000	 -0.743224	 -0.390623
H	 0.850588	 1.033777	 0.343840
H	 0.868587	 -0.286314	 1.476203
C	 3.255957	 -0.453067	 0.062319
H	 1.718250	 -0.470599	 -1.438164
H	 1.658105	 -1.815850	 -0.339904
C	 3.705053	 -1.231208	 1.296804
H	 3.340746	 0.608885	 0.271711
H	 3.939323	 -0.654537	 -0.758559
H	 3.036276	 -1.053838	 2.133077
H	 4.700345	 -0.927988	 1.601261
H	 3.732111	 -2.298997	 1.115972

	symmetry c1
}
set optking {
	frozen_dihedral = ("
		20 16 13 17
	")
}

ee,wfn = optimize('scf', return_wfn=True)
oeprop( wfn, 'DIPOLE', 'QUADRUPOLE', 'MULLIKEN_CHARGES')
f=open( 'psi4out.xyz', 'w' )
f.write( "24  " )
f.write( str(ee) + "\n" )
f.write( MOL.save_string_xyz() )
f.close()
--------------------------------------------------------------------------

    Molecular point group: c1
  Charge       = 0
  Multiplicity = 1
  Basis Set: CC-PVTZ
  Basis Set:
  @DF-RHF Final Energy:  -349.37958578410036
    Total Energy =                       -349.3795857841002999
    Molecular point group: c1
  Basis Set: CC-PVTZ
  Basis Set:
  Basis Set: CC-PVTZ
  Basis Set:
  @DF-RHF Final Energy:  -349.37980951037804
    Total Energy =                       -349.3798095103780952
  Basis Set: CC-PVTZ
  Basis Set:
  Basis Set: CC-PVTZ
  Basis Set:
  @DF-RHF Final Energy:  -349.37983896617834
    Total Energy =                       -349.3798389661785677
  Basis Set: CC-PVTZ
  Basis Set:
  Basis Set: CC-PVTZ
  Basis Set:
  @DF-RHF Final Energy:  -349.37984196685130
    Total Energy =                       -349.3798419668512452
  Basis Set: CC-PVTZ
  Basis Set:
  Charge       = 0
  Multiplicity = 1
  Basis Set: CC-PVTZ
  Basis Set:

    Orbital Energies (a.u.)
    -----------------------

    Doubly Occupied:

       1A    -20.546323     2A    -11.265568     3A    -11.215267
       4A    -11.211946     5A    -11.210573     6A    -11.209270
       7A    -11.209037     8A    -11.205286     9A     -1.364179
      10A     -1.089791    11A     -1.049421    12A     -0.987175
      13A     -0.915418    14A     -0.849237    15A     -0.800888
      16A     -0.780259    17A     -0.681755    18A     -0.655227
      19A     -0.625330    20A     -0.619751    21A     -0.600307
      22A     -0.585331    23A     -0.559130    24A     -0.538825
      25A     -0.517209    26A     -0.513780    27A     -0.495545
      28A     -0.471943    29A     -0.468699    30A     -0.460887
      31A     -0.458317    32A     -0.451369    33A     -0.421052

  @DF-RHF Final Energy:  -349.37984268059802

   => Energetics <=

    Nuclear Repulsion Energy =            384.1066357121798092
    One-Electron Energy =               -1234.9047617931437344
    Two-Electron Energy =                 501.4182834003660787
    DFT Exchange-Correlation Energy =       0.0000000000000000
    Empirical Dispersion Energy =           0.0000000000000000
    PCM Polarization Energy =               0.0000000000000000
    EFP Energy =                            0.0000000000000000
    Total Energy =                       -349.3798426805978465
    Molecular point group: c1
  Basis Set: CC-PVTZ
  Basis Set:

  -Total Gradient:
     Atom            X                  Y                   Z
    ------   -----------------  -----------------  -----------------
       1       -0.000000153572     0.000000185318     0.000001084871
       2       -0.000002519514    -0.000001157970     0.000000694262
       3        0.000006045742    -0.000006190586    -0.000002906638
       4        0.000007654096     0.000005571432     0.000004210401
       5       -0.000002603878    -0.000001228049    -0.000003058277
       6        0.000003457029    -0.000000427669     0.000001079141
       7       -0.000000600663     0.000011563611    -0.000022222936
       8       -0.000000169832    -0.000001016861    -0.000000590080
       9        0.000000562433     0.000002410997     0.000002826211
      10        0.000003591155     0.000022645147    -0.000018349794
      11       -0.000005753805     0.000000942908     0.000002062133
      12        0.000008785862    -0.000000300933     0.000001143320
      13       -0.000890503405     0.002300569936     0.001204287756
      14       -0.000020814645     0.000001480282     0.000000904350
      15        0.000017507441    -0.000005213385    -0.000014080273
      16        0.000780791225     0.000021829652    -0.002598725781
      17        0.000617114510    -0.001926628569    -0.000558296858
      18        0.000009771439    -0.000021279500     0.000002795174
      19        0.000019379520    -0.000045923805    -0.000023355603
      20       -0.000551366193    -0.000346531763     0.001997374437
      21       -0.000007730901    -0.000003150961     0.000014489578
      22       -0.000002121841     0.000010527716    -0.000011679226
      23       -0.000000165818    -0.000006467094    -0.000003088964
      24        0.000009843613    -0.000012209851     0.000023402792

  **** Optimization is complete! (in 5 steps) ****
    Final optimized geometry and variables:
    Molecular point group: c1

    Geometry (in Angstrom), charge = 0, multiplicity = 1:

    H           -3.422608694151     1.550491992744    -1.211483474678
    O           -3.450879867939     0.612502548448    -1.156180809698
    C           -3.179999818349     0.204319867219     0.158817595554
    C           -1.767454298110     0.537907647476     0.614682968682
    H           -3.332107813863    -0.867514654596     0.172914456768
    H           -3.900582890952     0.641445479650     0.845461679278
    C           -0.676598567829    -0.153185861536    -0.198177232600
    H           -1.628334935722     1.617165294976     0.573325129205
    H           -1.676781369012     0.260813822557     1.662243043447
    C            0.733958907909     0.216086638493     0.252624182667
    H           -0.800590616718     0.094494765617    -1.246574697423
    H           -0.807960869408    -1.229990831186    -0.122084931757
    C            1.823985001778    -0.473302501184    -0.564438752311
    H            0.863633486334     1.293365743020     0.178039473839
    H            0.849223201021    -0.031370729466     1.304295333064
    C            3.253093987942    -0.139980500536    -0.124484255819
    H            1.702918454067    -0.213106116466    -1.612030015713
    H            1.681779618380    -1.550698847148    -0.514884311191
    C            3.715349293576    -0.908944852643     1.111999694549
    H            3.326893860663     0.924839268473     0.079501155211
    H            3.936650275857    -0.349174716089    -0.940506200895
    H            3.082278928433    -0.710576233842     1.969291820278
    H            4.728094900854    -0.633855435469     1.384269090308
    H            3.701033769898    -1.978807086440     0.931920082752

  Mulliken Charges: (a.u.)
   Center  Symbol    Alpha    Beta     Spin     Total
       1     H     0.39531  0.39531  0.00000  0.20937
       2     O     4.20368  4.20368  0.00000 -0.40736
       3     C     2.97774  2.97774  0.00000  0.04451
       4     C     3.10188  3.10188  0.00000 -0.20375
       5     H     0.45884  0.45884  0.00000  0.08232
       6     H     0.46027  0.46027  0.00000  0.07945
       7     C     3.08758  3.08758  0.00000 -0.17515
       8     H     0.45910  0.45910  0.00000  0.08181
       9     H     0.45344  0.45344  0.00000  0.09311
      10     C     3.09004  3.09004  0.00000 -0.18009
      11     H     0.44611  0.44611  0.00000  0.10778
      12     H     0.45503  0.45503  0.00000  0.08993
      13     C     3.09396  3.09396  0.00000 -0.18792
      14     H     0.45529  0.45529  0.00000  0.08941
      15     H     0.45499  0.45499  0.00000  0.09002
      16     C     3.09047  3.09047  0.00000 -0.18094
      17     H     0.44835  0.44835  0.00000  0.10331
      18     H     0.45594  0.45594  0.00000  0.08811
      19     C     3.14911  3.14911  0.00000 -0.29822
      20     H     0.45647  0.45647  0.00000  0.08705
      21     H     0.44781  0.44781  0.00000  0.10438
      22     H     0.45544  0.45544  0.00000  0.08912
      23     H     0.44787  0.44787  0.00000  0.10427
      24     H     0.45526  0.45526  0.00000  0.08948

   Total alpha = 33.00000, Total beta = 33.00000, Total charge =  0.00000

*** Psi4 exiting successfully. Buy a developer a beer!
