  ==> Input File <==

--------------------------------------------------------------------------
set {
	reference rhf
	basis 6-31G*
}

set_num_threads( 1 )
memory 2 gb

molecule MOL {
0 1

H	 -3.407059	 -1.043082	 0.000000
O	 -3.119761	 -0.140267	 0.000000
C	 -1.777559	 -0.059267	 0.000000
C	 -1.083053	 0.741106	 0.902256
C	 -1.092509	 -0.812493	 -0.945210
H	 -1.621665	 1.321765	 1.631669
C	 0.294523	 0.785018	 0.855598
H	 -1.650611	 -1.422026	 -1.630238
C	 0.285281	 -0.758028	 -0.979330
H	 0.843176	 1.398173	 1.545612
C	 0.995144	 0.036729	 -0.084857
H	 0.816635	 -1.341539	 -1.711614
C	 2.469706	 0.084871	 -0.133447
O	 3.152277	 0.737460	 0.593864
H	 2.926845	 -0.539130	 -0.908570

	symmetry c1
}
set optking {
	frozen_dihedral = ("
		7 11 13 14
	")
}

ee = energy('scf')
oeprop('DIPOLE', 'QUADRUPOLE', 'MULLIKEN_CHARGES')
f=open( 'psi4out.xyz', 'w' )
f.write( "15  " )
f.write( str(ee) + "\n" )
f.write( MOL.save_string_xyz() )
f.close()
--------------------------------------------------------------------------

    Molecular point group: c1

    Geometry (in Angstrom), charge = 0, multiplicity = 1:

       Center              X                  Y                   Z               Mass
    ------------   -----------------  -----------------  -----------------  -----------------
           H         -3.403039165662    -1.109690786646    -0.031116730797     1.007825032070
           O         -3.115741165662    -0.206875786646    -0.031116730797    15.994914619560
           C         -1.773539165662    -0.125875786646    -0.031116730797    12.000000000000
           C         -1.079033165662     0.674497213354     0.871139269203    12.000000000000
           C         -1.088489165662    -0.879101786646    -0.976326730797    12.000000000000
           H         -1.617645165662     1.255156213354     1.600552269203     1.007825032070
           C          0.298542834338     0.718409213354     0.824481269203    12.000000000000
           H         -1.646591165662    -1.488634786646    -1.661354730797     1.007825032070
           C          0.289300834338    -0.824636786646    -1.010446730797    12.000000000000
           H          0.847195834338     1.331564213354     1.514495269203     1.007825032070
           C          0.999163834338    -0.029879786646    -0.115973730797    12.000000000000
           H          0.820654834338    -1.408147786646    -1.742730730797     1.007825032070
           C          2.473725834338     0.018262213354    -0.164563730797    12.000000000000
           O          3.156296834338     0.670851213354     0.562747269203    15.994914619560
           H          2.930864834338    -0.605738786646    -0.939686730797     1.007825032070

  Charge       = 0
  Multiplicity = 1
  Basis Set: 6-31G*
  Basis Set:

    Orbital Energies (a.u.)
    -----------------------

    Doubly Occupied:

       1A    -20.600364     2A    -20.558340     3A    -11.329727
       4A    -11.318324     5A    -11.261110     6A    -11.254199
       7A    -11.242332     8A    -11.241893     9A    -11.241417
      10A     -1.425328    11A     -1.399123    12A     -1.170294
      13A     -1.041490    14A     -1.037012    15A     -0.890884
      16A     -0.856789    17A     -0.801898    18A     -0.756132
      19A     -0.700657    20A     -0.681788    21A     -0.642519
      22A     -0.628720    23A     -0.619382    24A     -0.607483
      25A     -0.564925    26A     -0.552260    27A     -0.543706
      28A     -0.499361    29A     -0.483055    30A     -0.420447
      31A     -0.356420    32A     -0.333654

  @DF-RHF Final Energy:  -418.28466697630500

   => Energetics <=

    Nuclear Repulsion Energy =            401.3558403823438425
    One-Electron Energy =               -1365.1590657709473362
    Two-Electron Energy =                 545.5185584122992850
    DFT Exchange-Correlation Energy =       0.0000000000000000
    Empirical Dispersion Energy =           0.0000000000000000
    PCM Polarization Energy =               0.0000000000000000
    EFP Energy =                            0.0000000000000000
    Total Energy =                       -418.2846669763042655

  Mulliken Charges: (a.u.)
   Center  Symbol    Alpha    Beta     Spin     Total
       1     H     0.26747  0.26747  0.00000  0.46506
       2     O     4.37984  4.37984  0.00000 -0.75967
       3     C     2.79285  2.79285  0.00000  0.41431
       4     C     3.12516  3.12516  0.00000 -0.25032
       5     C     3.13887  3.13887  0.00000 -0.27773
       6     H     0.38683  0.38683  0.00000  0.22633
       7     C     3.08186  3.08186  0.00000 -0.16372
       8     H     0.39465  0.39465  0.00000  0.21069
       9     C     3.09466  3.09466  0.00000 -0.18932
      10     H     0.37435  0.37435  0.00000  0.25131
      11     C     3.06456  3.06456  0.00000 -0.12911
      12     H     0.39097  0.39097  0.00000  0.21805
      13     C     2.83057  2.83057  0.00000  0.33885
      14     O     4.25281  4.25281  0.00000 -0.50561
      15     H     0.42456  0.42456  0.00000  0.15089

   Total alpha = 32.00000, Total beta = 32.00000, Total charge =  0.00000
