  ==> Input File <==

--------------------------------------------------------------------------
set {
	reference rhf
	basis 6-31G*
}

set_num_threads( 4 )
memory 2 gb

molecule MOL {
0 1

H	 -2.352127	 0.794044	 2.852086
C	 -2.332088	 0.116276	 2.020887
C	 -1.242650	 0.000483	 1.297203
H	 -3.214853	 -0.454694	 1.802646
O	 -1.180634	 -0.819263	 0.215062
H	 -0.345976	 0.557814	 1.503486
C	 0.051604	 -1.018856	 -0.387932
C	 1.043764	 0.054862	 -0.001873
H	 -0.017620	 -1.041351	 -1.469781
H	 0.437898	 -1.966374	 -0.042284
F	 2.212596	 -0.199467	 -0.571921
F	 0.652529	 1.252447	 -0.405055
F	 1.230877	 0.110694	 1.300533

	symmetry c1
}
set optking {
	frozen_dihedral = ("
		3 5 7 9
	")
}

ee = optimize('scf')
oeprop('DIPOLE', 'QUADRUPOLE', 'MULLIKEN_CHARGES')
f=open( 'psi4out.xyz', 'w' )
f.write( "13  " )
f.write( str(ee) + "\n" )
f.write( MOL.save_string_xyz() )
f.close()
--------------------------------------------------------------------------

    Molecular point group: c1
  Charge       = 0
  Multiplicity = 1
  Basis Set: 6-31G*
  Basis Set:
  @DF-RHF Final Energy:  -527.50356177374113
    Total Energy =                       -527.5035617737412394
    Molecular point group: c1
  Basis Set: 6-31G*
  Basis Set:
  Basis Set: 6-31G*
  Basis Set:
  @DF-RHF Final Energy:  -527.52005053383186
    Total Energy =                       -527.5200505338318635
  Basis Set: 6-31G*
  Basis Set:
  Basis Set: 6-31G*
  Basis Set:
  @DF-RHF Final Energy:  -527.52520894301961
    Total Energy =                       -527.5252089430193791
  Basis Set: 6-31G*
  Basis Set:
  Basis Set: 6-31G*
  Basis Set:
  @DF-RHF Final Energy:  -527.52646625088528
    Total Energy =                       -527.5264662508848232
  Basis Set: 6-31G*
  Basis Set:
  @DF-RHF Final Energy:  -527.52692143518470
    Total Energy =                       -527.5269214351853861
  @DF-RHF Final Energy:  -527.52707240990185
    Total Energy =                       -527.5270724099018480
  @DF-RHF Final Energy:  -527.52710309435088
    Total Energy =                       -527.5271030943507640
  @DF-RHF Final Energy:  -527.52711794542779
    Total Energy =                       -527.5271179454280173
  @DF-RHF Final Energy:  -527.52712191021601
    Total Energy =                       -527.5271219102157829
  Basis Set: 6-31G*
  Basis Set:
  @DF-RHF Final Energy:  -527.52712329973087
    Total Energy =                       -527.5271232997306470
  Basis Set: 6-31G*
  Basis Set:
  Basis Set: 6-31G*
  Basis Set:
  @DF-RHF Final Energy:  -527.52712064087632
    Total Energy =                       -527.5271206408763192
  Basis Set: 6-31G*
  Basis Set:
  Basis Set: 6-31G*
  Basis Set:
  @DF-RHF Final Energy:  -527.52712155488871
    Total Energy =                       -527.5271215548890495
  Basis Set: 6-31G*
  Basis Set:
  Charge       = 0
  Multiplicity = 1
  Basis Set: 6-31G*
  Basis Set:

    Orbital Energies (a.u.)
    -----------------------

    Doubly Occupied:

       1A    -26.350952     2A    -26.350756     3A    -26.349705
       4A    -20.600252     5A    -11.511987     6A    -11.318500
       7A    -11.294635     8A    -11.216600     9A     -1.749532
      10A     -1.646995    11A     -1.646011    12A     -1.426582
      13A     -1.083711    14A     -1.019752    15A     -0.930763
      16A     -0.844592    17A     -0.838836    18A     -0.834521
      19A     -0.759004    20A     -0.725773    21A     -0.720558
      22A     -0.702574    23A     -0.680999    24A     -0.663711
      25A     -0.653719    26A     -0.650691    27A     -0.645071
      28A     -0.593897    29A     -0.559436    30A     -0.524663
      31A     -0.484444    32A     -0.355022

  @DF-RHF Final Energy:  -527.52712270003030

   => Energetics <=

    Nuclear Repulsion Energy =            416.2076516799494357
    One-Electron Energy =               -1556.0010544639540058
    Two-Electron Energy =                 612.2662800839734700
    DFT Exchange-Correlation Energy =       0.0000000000000000
    Empirical Dispersion Energy =           0.0000000000000000
    PCM Polarization Energy =               0.0000000000000000
    EFP Energy =                            0.0000000000000000
    Total Energy =                       -527.5271227000312138
    Molecular point group: c1
  Basis Set: 6-31G*
  Basis Set:

  -Total Gradient:
     Atom            X                  Y                   Z
    ------   -----------------  -----------------  -----------------
       1       -0.000014144006     0.000000312410    -0.000007436104
       2       -0.000004698291     0.000021865884    -0.000000572034
       3       -0.000006419971     0.002298411521    -0.001752672016
       4       -0.000002405925    -0.000005029481    -0.000001317810
       5        0.000227427515    -0.002832067256     0.002750612796
       6        0.000029805195     0.000004544961    -0.000007254753
       7       -0.001387108204    -0.002577548788    -0.000725591234
       8        0.000038722680     0.000058414146    -0.000299186586
       9        0.001191838915     0.003068422828     0.000006034181
      10       -0.000033043732    -0.000031204281    -0.000108023846
      11       -0.000054604373     0.000042886298     0.000021719871
      12       -0.000050799080    -0.000019759433     0.000032692306
      13        0.000065429290    -0.000029248814     0.000090995226

  **** Optimization is complete! (in 13 steps) ****
    Final optimized geometry and variables:
    Molecular point group: c1

    Geometry (in Angstrom), charge = 0, multiplicity = 1:

    H           -2.798003460252     0.741425378905     2.519754749811
    C           -2.624305138273     0.049662433676     1.717934379460
    C           -1.673557904431     0.284663908554     0.842953845372
    H           -3.255335627875    -0.816187540030     1.643189842782
    O           -1.494616850303    -0.525352861464    -0.237581012980
    H           -1.041764403128     1.149060851128     0.897346780395
    C           -0.241922086810    -0.882445972647    -0.730783892091
    C            0.926552349042     0.016297182172    -0.382005945079
    H           -0.303929682782    -0.864124931757    -1.809401900515
    H            0.020009432593    -1.880397899309    -0.401393395334
    F            1.992631498977    -0.415382170224    -1.035242515155
    F            0.718357589386     1.273300570583    -0.737064932000
    F            1.221016471963     0.008898513018     0.906503836426

  Mulliken Charges: (a.u.)
   Center  Symbol    Alpha    Beta     Spin     Total
       1     H     0.40725  0.40725  0.00000  0.18550
       2     C     3.22777  3.22777  0.00000 -0.45554
       3     C     2.90871  2.90871  0.00000  0.18258
       4     H     0.40357  0.40357  0.00000  0.19285
       5     O     4.31583  4.31583  0.00000 -0.63166
       6     H     0.39761  0.39761  0.00000  0.20478
       7     C     3.02118  3.02118  0.00000 -0.04236
       8     C     2.48060  2.48060  0.00000  1.03880
       9     H     0.39774  0.39774  0.00000  0.20451
      10     H     0.40281  0.40281  0.00000  0.19438
      11     F     4.68027  4.68027  0.00000 -0.36055
      12     F     4.67909  4.67909  0.00000 -0.35819
      13     F     4.67756  4.67756  0.00000 -0.35511

   Total alpha = 32.00000, Total beta = 32.00000, Total charge =  0.00000
