                              Psi4 1.0.54 Driver

  ==> Input File <==

--------------------------------------------------------------------------
set {
	reference rhf
	basis cc-pvtz
}

set_num_threads( 4 )
memory 2 gb

molecule MOL {
0 1

H	 1.120746	 0.328159	 1.508480
C	 1.141832	 0.156298	 0.423649
C	 0.062554	 0.862911	 -0.350953
O	 1.975935	 -0.534515	 -0.049851
C	 -1.339253	 0.577611	 0.196911
H	 0.146471	 0.582688	 -1.393031
H	 0.267542	 1.928189	 -0.271973
C	 -1.813142	 -0.849710	 -0.061612
H	 -2.032833	 1.276441	 -0.256032
H	 -1.357249	 0.782269	 1.263793
H	 -1.839268	 -1.063526	 -1.124230
H	 -2.810118	 -1.001930	 0.334000
H	 -1.159274	 -1.579980	 0.402282

	symmetry c1
}
set optking {
	frozen_dihedral = ("
		6 3 5 9
	")
}

ee,wfn = optimize('scf', return_wfn=True)
oeprop( wfn, 'DIPOLE', 'QUADRUPOLE', 'MULLIKEN_CHARGES')
f=open( 'psi4out.xyz', 'w' )
f.write( "13  " )
f.write( str(ee) + "\n" )
f.write( MOL.save_string_xyz() )
f.close()
--------------------------------------------------------------------------

    Molecular point group: c1
  Charge       = 0
  Multiplicity = 1
  Basis Set: CC-PVTZ
  Basis Set:
  @DF-RHF Final Energy:  -231.07070992414492
    Total Energy =                       -231.0707099241446087
    Molecular point group: c1
  Basis Set: CC-PVTZ
  Basis Set:
  Basis Set: CC-PVTZ
  Basis Set:
  @DF-RHF Final Energy:  -231.07071694759165
    Total Energy =                       -231.0707169475916771
  Basis Set: CC-PVTZ
  Basis Set:
  Basis Set: CC-PVTZ
  Basis Set:
  @DF-RHF Final Energy:  -231.07069437536515
    Total Energy =                       -231.0706943753652354
  Basis Set: CC-PVTZ
  Basis Set:
  Basis Set: CC-PVTZ
  Basis Set:
  @DF-RHF Final Energy:  -231.07071892861919
    Total Energy =                       -231.0707189286191010
  Basis Set: CC-PVTZ
  Basis Set:
  Charge       = 0
  Multiplicity = 1
  Basis Set: CC-PVTZ
  Basis Set:

    Orbital Energies (a.u.)
    -----------------------

    Doubly Occupied:

       1A    -20.552651     2A    -11.321932     3A    -11.236920
       4A    -11.234819     5A    -11.219443     6A     -1.407611
       7A     -1.088005     8A     -0.974224     9A     -0.847711
      10A     -0.790251    11A     -0.668706    12A     -0.652113
      13A     -0.629260    14A     -0.595253    15A     -0.560362
      16A     -0.537512    17A     -0.507171    18A     -0.494191
      19A     -0.483947    20A     -0.413064

  @DF-RHF Final Energy:  -231.07071946185059

   => Energetics <=

    Nuclear Repulsion Energy =            174.0216947544689390
    One-Electron Energy =                -657.7545308979802030
    Two-Electron Energy =                 252.6621166816606205
    DFT Exchange-Correlation Energy =       0.0000000000000000
    Empirical Dispersion Energy =           0.0000000000000000
    PCM Polarization Energy =               0.0000000000000000
    EFP Energy =                            0.0000000000000000
    Total Energy =                       -231.0707194618506151
    Molecular point group: c1
  Basis Set: CC-PVTZ
  Basis Set:

  -Total Gradient:
     Atom            X                  Y                   Z
    ------   -----------------  -----------------  -----------------
       1       -0.000002261666    -0.000010537110     0.000008645283
       2        0.000002075337     0.000019223916    -0.000005964429
       3       -0.000263217783     0.000845672875    -0.000108311483
       4        0.000001456375     0.000005634002    -0.000002888553
       5       -0.000061980302    -0.000670750900    -0.000560708060
       6        0.000200346259    -0.000619401537     0.000172951568
       7        0.000016282306    -0.000001034352    -0.000000477944
       8       -0.000000405700    -0.000000416177    -0.000013462365
       9        0.000109247105     0.000417924172     0.000501366527
      10       -0.000006088151     0.000006475211     0.000005509430
      11       -0.000000522809    -0.000002899655    -0.000001914038
      12        0.000000320095     0.000002052932     0.000000791498
      13        0.000004748931     0.000008056623     0.000004462568

  **** Optimization is complete! (in 5 steps) ****
    Final optimized geometry and variables:
    Molecular point group: c1

    Geometry (in Angstrom), charge = 0, multiplicity = 1:

    H            1.111244523575     0.296967031348     1.479877031164
    C            1.132040709664     0.128902221958     0.394474413827
    C            0.058355400341     0.845940097708    -0.378989256873
    O            1.961059745312    -0.566835249249    -0.080696040654
    C           -1.345280494729     0.559280944916     0.163703931271
    H            0.146109554117     0.567748086653    -1.421310711443
    H            0.267652398880     1.909595804013    -0.292715245099
    C           -1.813572608977    -0.870145855887    -0.091230176811
    H           -2.039519532216     1.257631121596    -0.288851429230
    H           -1.366151571525     0.766430592909     1.230288804046
    H           -1.841654413613    -1.085665766902    -1.153418548434
    H           -2.808679639974    -1.026497241184     0.307463931835
    H           -1.154362388115    -1.595988135822     0.372059202595

  Mulliken Charges: (a.u.)
   Center  Symbol    Alpha    Beta     Spin     Total
       1     H     0.46508  0.46508  0.00000  0.06984
       2     C     2.90589  2.90589  0.00000  0.18823
       3     C     3.08649  3.08649  0.00000 -0.17298
       4     O     4.16436  4.16436  0.00000 -0.32871
       5     C     3.10314  3.10314  0.00000 -0.20629
       6     H     0.44355  0.44355  0.00000  0.11290
       7     H     0.44256  0.44256  0.00000  0.11487
       8     C     3.14373  3.14373  0.00000 -0.28747
       9     H     0.44368  0.44368  0.00000  0.11264
      10     H     0.45188  0.45188  0.00000  0.09624
      11     H     0.45132  0.45132  0.00000  0.09736
      12     H     0.44668  0.44668  0.00000  0.10664
      13     H     0.45163  0.45163  0.00000  0.09674

   Total alpha = 20.00000, Total beta = 20.00000, Total charge = -0.00000

*** Psi4 exiting successfully. Buy a developer a beer!
