  ==> Input File <==

--------------------------------------------------------------------------
set {
	reference rhf
	basis 6-31G*
}

set_num_threads( 1 )
memory 2 gb

molecule MOL {
0 1

H	 -1.075903	 1.732022	 -3.005952
O	 -1.477656	 1.119856	 -2.405756
C	 -0.785094	 1.131077	 -1.186239
C	 0.544688	 0.407058	 -1.300886
H	 -0.620437	 2.143338	 -0.827668
H	 -1.410834	 0.624344	 -0.465046
O	 1.171513	 0.459272	 -0.058250
H	 1.165108	 0.881713	 -2.063620
H	 0.374804	 -0.621712	 -1.612906
C	 2.397842	 -0.198080	 -0.002151
H	 2.508049	 -0.905315	 -0.822092
H	 3.173794	 0.550865	 -0.078850
H	 2.517602	 -0.735921	 0.936026

	symmetry c1
}
set optking {
	frozen_dihedral = ("
		8 4 3 5,
		1 2 3 5,
		10 7 4 8
	")
}

ee = energy('scf')
oeprop('DIPOLE', 'QUADRUPOLE', 'MULLIKEN_CHARGES')
f=open( 'psi4out.xyz', 'w' )
f.write( "13  " )
f.write( str(ee) + "\n" )
f.write( MOL.save_string_xyz() )
f.close()
--------------------------------------------------------------------------

    Molecular point group: c1

    Geometry (in Angstrom), charge = 0, multiplicity = 1:

       Center              X                  Y                   Z               Mass
    ------------   -----------------  -----------------  -----------------  -----------------
           H         -1.439817487437     1.139842046141    -1.989743606602     1.007825032070
           O         -1.841570487437     0.527676046141    -1.389547606602    15.994914619560
           C         -1.149008487437     0.538897046141    -0.170030606602    12.000000000000
           C          0.180773512563    -0.185121953859    -0.284677606602    12.000000000000
           H         -0.984351487437     1.551158046141     0.188540393398     1.007825032070
           H         -1.774748487437     0.032164046141     0.551162393398     1.007825032070
           O          0.807598512563    -0.132907953859     0.957958393398    15.994914619560
           H          0.801193512563     0.289533046141    -1.047411606602     1.007825032070
           H          0.010889512563    -1.213891953859    -0.596697606602     1.007825032070
           C          2.033927512563    -0.790259953859     1.014057393398    12.000000000000
           H          2.144134512563    -1.497494953859     0.194116393398     1.007825032070
           H          2.809879512563    -0.041314953859     0.937358393398     1.007825032070
           H          2.153687512563    -1.328100953859     1.952234393398     1.007825032070

  Charge       = 0
  Multiplicity = 1
  Basis Set: 6-31G*
  Basis Set:

    Orbital Energies (a.u.)
    -----------------------

    Doubly Occupied:

       1A    -20.560045     2A    -20.559575     3A    -11.271532
       4A    -11.269556     5A    -11.268719     6A     -1.387883
       7A     -1.365024     8A     -1.017985     9A     -0.913070
      10A     -0.842740    11A     -0.709389    12A     -0.673703
      13A     -0.657676    14A     -0.637700    15A     -0.597362
      16A     -0.569518    17A     -0.545697    18A     -0.490340
      19A     -0.482433    20A     -0.438309    21A     -0.417286

  @DF-RHF Final Energy:  -267.94686150003457

   => Energetics <=

    Nuclear Repulsion Energy =            190.2881050236107967
    One-Electron Energy =                -743.1188640822408615
    Two-Electron Energy =                 284.8838975585953222
    DFT Exchange-Correlation Energy =       0.0000000000000000
    Empirical Dispersion Energy =           0.0000000000000000
    PCM Polarization Energy =               0.0000000000000000
    EFP Energy =                            0.0000000000000000
    Total Energy =                       -267.9468615000347427

  Mulliken Charges: (a.u.)
   Center  Symbol    Alpha    Beta     Spin     Total
       1     H     0.28128  0.28128  0.00000  0.43743
       2     O     4.37087  4.37087  0.00000 -0.74174
       3     C     3.00490  3.00490  0.00000 -0.00981
       4     C     2.99784  2.99784  0.00000  0.00431
       5     H     0.42230  0.42230  0.00000  0.15539
       6     H     0.40841  0.40841  0.00000  0.18318
       7     O     4.30931  4.30931  0.00000 -0.61862
       8     H     0.43776  0.43776  0.00000  0.12448
       9     H     0.42237  0.42237  0.00000  0.15526
      10     C     3.07833  3.07833  0.00000 -0.15665
      11     H     0.42853  0.42853  0.00000  0.14293
      12     H     0.42278  0.42278  0.00000  0.15444
      13     H     0.41530  0.41530  0.00000  0.16940

   Total alpha = 21.00000, Total beta = 21.00000, Total charge = -0.00000
