  ==> Input File <==

--------------------------------------------------------------------------
set {
	reference rhf
	basis 6-31G*
}

set_num_threads( 4 )
memory 2 gb

molecule MOL {
0 1

H	 2.962496	 -0.577202	 1.744492
O	 2.045245	 -0.795659	 1.831300
C	 1.301594	 -0.136111	 0.916767
C	 1.860868	 0.737131	 -0.007334
C	 -0.064799	 -0.356056	 0.921907
H	 2.924453	 0.906888	 -0.009632
C	 1.054245	 1.389249	 -0.924815
H	 -0.498074	 -1.030309	 1.635161
C	 -0.865228	 0.300799	 0.000000
H	 1.498493	 2.062700	 -1.635086
C	 -0.312282	 1.175399	 -0.926875
C	 -2.333960	 0.069074	 0.000000
H	 -0.940700	 1.680872	 -1.638629
O	 -2.847347	 -1.003763	 0.000000
H	 -2.943845	 0.977528	 0.000000

	symmetry c1
}
set optking {
	frozen_dihedral = ("
		11 9 12 14
	")
}

ee = optimize('scf')
oeprop('DIPOLE', 'QUADRUPOLE', 'MULLIKEN_CHARGES')
f=open( 'psi4out.xyz', 'w' )
f.write( "15  " )
f.write( str(ee) + "\n" )
f.write( MOL.save_string_xyz() )
f.close()
--------------------------------------------------------------------------

    Molecular point group: c1
  Charge       = 0
  Multiplicity = 1
  Basis Set: 6-31G*
  Basis Set:
  @DF-RHF Final Energy:  -418.27882786202019
    Total Energy =                       -418.2788278620195115
    Molecular point group: c1
  Basis Set: 6-31G*
  Basis Set:
  Basis Set: 6-31G*
  Basis Set:
  @DF-RHF Final Energy:  -418.27715574903078
    Total Energy =                       -418.2771557490307259
  Basis Set: 6-31G*
  Basis Set:
  Basis Set: 6-31G*
  Basis Set:
  @DF-RHF Final Energy:  -418.27936895230448
    Total Energy =                       -418.2793689523037983
  Basis Set: 6-31G*
  Basis Set:
  Basis Set: 6-31G*
  Basis Set:
  @DF-RHF Final Energy:  -418.27951263793500
    Total Energy =                       -418.2795126379344310
  Basis Set: 6-31G*
  Basis Set:
  Basis Set: 6-31G*
  Basis Set:
  @DF-RHF Final Energy:  -418.27951434716266
    Total Energy =                       -418.2795143471621486
  Basis Set: 6-31G*
  Basis Set:
  Charge       = 0
  Multiplicity = 1
  Basis Set: 6-31G*
  Basis Set:

    Orbital Energies (a.u.)
    -----------------------

    Doubly Occupied:

       1A    -20.601864     2A    -20.569109     3A    -11.334658
       4A    -11.312735     5A    -11.254551     6A    -11.252558
       7A    -11.245633     8A    -11.243365     9A    -11.239382
      10A     -1.421647    11A     -1.408737    12A     -1.168453
      13A     -1.047810    14A     -1.025443    15A     -0.899219
      16A     -0.843798    17A     -0.815275    18A     -0.736778
      19A     -0.700999    20A     -0.682856    21A     -0.647291
      22A     -0.638507    23A     -0.613073    24A     -0.600512
      25A     -0.578684    26A     -0.545365    27A     -0.534835
      28A     -0.513616    29A     -0.488535    30A     -0.423743
      31A     -0.352926    32A     -0.324424

  @DF-RHF Final Energy:  -418.27951483649321

   => Energetics <=

    Nuclear Repulsion Energy =            402.8451123713397806
    One-Electron Energy =               -1368.1164963368112240
    Two-Electron Energy =                 546.9918691289783510
    DFT Exchange-Correlation Energy =       0.0000000000000000
    Empirical Dispersion Energy =           0.0000000000000000
    PCM Polarization Energy =               0.0000000000000000
    EFP Energy =                            0.0000000000000000
    Total Energy =                       -418.2795148364930355
    Molecular point group: c1
  Basis Set: 6-31G*
  Basis Set:

  -Total Gradient:
     Atom            X                  Y                   Z
    ------   -----------------  -----------------  -----------------
       1       -0.000005717296     0.000022413091     0.000011098854
       2        0.000003657957    -0.000015158378    -0.000034157913
       3       -0.000025375515    -0.000011819953     0.000015185646
       4       -0.000010795696     0.000040288285    -0.000003825456
       5        0.000043855795     0.000001203948     0.000029025174
       6        0.000004274433    -0.000009349787    -0.000003241853
       7        0.000061749203    -0.000028529410     0.000009828957
       8       -0.000004747927     0.000011046748    -0.000000007314
       9       -0.001253996677     0.006268517845     0.001841976561
      10        0.000001441886    -0.000003467346     0.000003329130
      11        0.000879658970    -0.004409272970    -0.003409226178
      12        0.000065167249    -0.001601124808     0.008535505823
      13       -0.000002118304    -0.000003475845    -0.000002435439
      14        0.000247094602    -0.000244726228    -0.006987965529
      15       -0.000004148683    -0.000016545187    -0.000005090465

  **** Optimization is complete! (in 6 steps) ****
    Final optimized geometry and variables:
    Molecular point group: c1

    Geometry (in Angstrom), charge = 0, multiplicity = 1:

    H            2.980443197090    -0.720991024972     1.472538232946
    O            2.059279856464    -0.911896017756     1.580968610122
    C            1.317487954129    -0.244689304906     0.671270438770
    C            1.877876410182     0.615268293478    -0.261681594029
    C           -0.052820986268    -0.454089152020     0.687442523030
    H            2.943541088027     0.769758625048    -0.279698502256
    C            1.065419415388     1.271335912562    -1.172266924709
    H           -0.474170048973    -1.145757903693     1.391956232331
    C           -0.858621110573     0.230717429948    -0.205642109649
    H            1.509421796703     1.925922523812    -1.900186027935
    C           -0.304951065068     1.089922919177    -1.147529918256
    C           -2.325382204481    -0.047323944522    -0.248273746874
    H           -0.934440354286     1.607331432192    -1.849811836825
    O           -2.791256885021    -1.140252020590    -0.226108989644
    H           -2.968899052139     0.828416932773    -0.373446098746

  Mulliken Charges: (a.u.)
   Center  Symbol    Alpha    Beta     Spin     Total
       1     H     0.27041  0.27041  0.00000  0.45919
       2     O     4.37596  4.37596  0.00000 -0.75192
       3     C     2.79385  2.79385  0.00000  0.41229
       4     C     3.13833  3.13833  0.00000 -0.27665
       5     C     3.11680  3.11680  0.00000 -0.23361
       6     H     0.39988  0.39988  0.00000  0.20024
       7     C     3.09143  3.09143  0.00000 -0.18285
       8     H     0.37739  0.37739  0.00000  0.24523
       9     C     3.03077  3.03077  0.00000 -0.06153
      10     H     0.39346  0.39346  0.00000  0.21309
      11     C     3.11750  3.11750  0.00000 -0.23499
      12     C     2.84727  2.84727  0.00000  0.30545
      13     H     0.39434  0.39434  0.00000  0.21133
      14     O     4.22959  4.22959  0.00000 -0.45919
      15     H     0.42304  0.42304  0.00000  0.15392

   Total alpha = 32.00000, Total beta = 32.00000, Total charge = -0.00000
