  ==> Input File <==

--------------------------------------------------------------------------
set {
	reference rhf
	basis cc-pvtz
}

set_num_threads( 4 )
memory 2 gb

molecule MOL {
0 1

H	 -2.588028	 -0.502302	 -0.186332
N	 -1.851927	 0.161443	 -0.071573
C	 -0.561396	 -0.500007	 0.035200
H	 -2.053496	 0.685169	 0.754513
C	 0.575129	 0.507849	 -0.048832
H	 -0.478089	 -1.200753	 -0.788956
H	 -0.456191	 -1.081816	 0.952176
C	 1.951750	 -0.141983	 0.035101
H	 0.478254	 1.061643	 -0.975981
H	 0.467676	 1.231891	 0.755499
H	 2.101550	 -0.848142	 -0.774949
H	 2.738260	 0.600794	 -0.026526
H	 2.078939	 -0.679792	 0.968824

	symmetry c1
}
set optking {
	frozen_dihedral = ("
		1 2 3 6
	")
}

ee = optimize('scf')
oeprop('DIPOLE', 'QUADRUPOLE', 'MULLIKEN_CHARGES')
f=open( 'psi4out.xyz', 'w' )
f.write( "13  " )
f.write( str(ee) + "\n" )
f.write( MOL.save_string_xyz() )
f.close()
--------------------------------------------------------------------------

    Molecular point group: c1
  Charge       = 0
  Multiplicity = 1
  Basis Set: CC-PVTZ
  Basis Set:
  @DF-RHF Final Energy:  -173.35249844637593
    Total Energy =                       -173.3524984463759324
    Molecular point group: c1
  Basis Set: CC-PVTZ
  Basis Set:
  Basis Set: CC-PVTZ
  Basis Set:
  @DF-RHF Final Energy:  -173.35251183226370
    Total Energy =                       -173.3525118322636160
  Basis Set: CC-PVTZ
  Basis Set:
  Basis Set: CC-PVTZ
  Basis Set:
  @DF-RHF Final Energy:  -173.35251370295941
    Total Energy =                       -173.3525137029594703
  Basis Set: CC-PVTZ
  Basis Set:
  Charge       = 0
  Multiplicity = 1
  Basis Set: CC-PVTZ
  Basis Set:

    Orbital Energies (a.u.)
    -----------------------

    Doubly Occupied:

       1A    -15.526488     2A    -11.238435     3A    -11.209419
       4A    -11.206542     5A     -1.178111     6A     -1.035979
       7A     -0.899255     8A     -0.799357     9A     -0.666127
      10A     -0.627895    11A     -0.604289    12A     -0.567423
      13A     -0.529319    14A     -0.492189    15A     -0.478819
      16A     -0.468323    17A     -0.383422

  @DF-RHF Final Energy:  -173.35251383266112

   => Energetics <=

    Nuclear Repulsion Energy =            131.9399049120803227
    One-Electron Energy =                -494.7620511734191382
    Two-Electron Energy =                 189.4696324286777269
    DFT Exchange-Correlation Energy =       0.0000000000000000
    Empirical Dispersion Energy =           0.0000000000000000
    PCM Polarization Energy =               0.0000000000000000
    EFP Energy =                            0.0000000000000000
    Total Energy =                       -173.3525138326611170
    Molecular point group: c1
  Basis Set: CC-PVTZ
  Basis Set:

  -Total Gradient:
     Atom            X                  Y                   Z
    ------   -----------------  -----------------  -----------------
       1        0.000108254864     0.000044541994    -0.000884055894
       2       -0.000224421339    -0.000161701657     0.001214892390
       3        0.000469868020     0.000705392387    -0.000772212199
       4        0.000008615027    -0.000004961483    -0.000009989139
       5       -0.000015597976    -0.000003823159    -0.000007321615
       6       -0.000331249272    -0.000568191457     0.000454021504
       7        0.000001649932    -0.000000044586    -0.000001261632
       8       -0.000008323475    -0.000002486684     0.000010915002
       9       -0.000005831216    -0.000004340439    -0.000002169229
      10        0.000000368774    -0.000007890727    -0.000003310845
      11       -0.000003928140     0.000004529970     0.000000103553
      12        0.000000757635     0.000001753066     0.000001824414
      13       -0.000000162832    -0.000002777226    -0.000001436310

  **** Optimization is complete! (in 4 steps) ****
    Final optimized geometry and variables:
    Molecular point group: c1

    Geometry (in Angstrom), charge = 0, multiplicity = 1:

    H           -2.589533853361    -0.502374084150    -0.176706147073
    N           -1.852555769778     0.160492319288    -0.066631236114
    C           -0.560138324081    -0.498189687488     0.031874524850
    H           -2.049285433971     0.695861700831     0.752531787262
    C            0.576208002973     0.509993042967    -0.049329869569
    H           -0.480735866250    -1.198702899601    -0.792763878188
    H           -0.452458859343    -1.085203451475     0.945397838580
    C            1.952846467471    -0.139315813179     0.037704491046
    H            0.480623015083     1.064335979769    -0.976177270258
    H            0.465641796383     1.233477193666     0.754855179151
    H            2.104212771015    -0.846657806848    -0.771132855004
    H            2.739358883663     0.603505592304    -0.023667340679
    H            2.078689056384    -0.675909735192     0.972357303295

  Mulliken Charges: (a.u.)
   Center  Symbol    Alpha    Beta     Spin     Total
       1     H     0.42887  0.42887  0.00000  0.14226
       2     N     3.69114  3.69114  0.00000 -0.38227
       3     C     3.02412  3.02412  0.00000 -0.04825
       4     H     0.43031  0.43031  0.00000  0.13937
       5     C     3.07579  3.07579  0.00000 -0.15158
       6     H     0.45738  0.45738  0.00000  0.08524
       7     H     0.46927  0.46927  0.00000  0.06146
       8     C     3.15314  3.15314  0.00000 -0.30629
       9     H     0.44978  0.44978  0.00000  0.10044
      10     H     0.45999  0.45999  0.00000  0.08003
      11     H     0.45539  0.45539  0.00000  0.08922
      12     H     0.44777  0.44777  0.00000  0.10446
      13     H     0.45705  0.45705  0.00000  0.08591

   Total alpha = 17.00000, Total beta = 17.00000, Total charge = -0.00000
