                              Psi4 1.0.54 Driver

  ==> Input File <==

--------------------------------------------------------------------------
set {
	reference rhf
	basis cc-pvtz
}

set_num_threads( 4 )
memory 2 gb

molecule MOL {
0 1

O	 -3.033981	 0.861261	 0.858551
C	 -2.664672	 0.129869	 0.003507
C	 -3.489114	 -0.227827	 -1.203404
O	 -1.481217	 -0.452708	 0.001092
H	 -3.739964	 0.682613	 -1.730900
H	 -2.967450	 -0.903709	 -1.861956
H	 -4.413167	 -0.678599	 -0.867241
C	 -0.332055	 0.384012	 -0.000250
C	 0.892252	 -0.506059	 -0.000295
H	 -0.360822	 1.020205	 -0.874146
H	 -0.359817	 1.021310	 0.872861
C	 2.188199	 0.299473	 -0.001416
H	 0.857046	 -1.152781	 -0.871031
H	 0.857910	 -1.151798	 0.871202
C	 3.437151	 -0.577593	 -0.000991
H	 2.209565	 0.950707	 -0.871712
H	 2.210062	 0.952234	 0.867721
C	 4.732399	 0.226982	 -0.000914
H	 3.417321	 -1.229122	 -0.869998
H	 3.416993	 -1.228707	 0.868337
H	 4.797903	 0.863451	 -0.876963
H	 5.598517	 -0.424436	 -0.000420
H	 4.797415	 0.864118	 0.874691

	symmetry c1
}
set optking {
	frozen_dihedral = ("
		1 2 4 8
	")
}

ee,wfn = optimize('scf', return_wfn=True)
oeprop( wfn, 'DIPOLE', 'QUADRUPOLE', 'MULLIKEN_CHARGES')
f=open( 'psi4out.xyz', 'w' )
f.write( "23  " )
f.write( str(ee) + "\n" )
f.write( MOL.save_string_xyz() )
f.close()
--------------------------------------------------------------------------

    Molecular point group: c1
  Charge       = 0
  Multiplicity = 1
  Basis Set: CC-PVTZ
  Basis Set:
  @DF-RHF Final Energy:  -423.11901052455664
    Total Energy =                       -423.1190105245566428
    Molecular point group: c1
  Basis Set: CC-PVTZ
  Basis Set:
  Basis Set: CC-PVTZ
  Basis Set:
  @DF-RHF Final Energy:  -422.94936751380214
    Total Energy =                       -422.9493675138020308
  Basis Set: CC-PVTZ
  Basis Set:
  Basis Set: CC-PVTZ
  Basis Set:
  @DF-RHF Final Energy:  -423.07187517670837
    Total Energy =                       -423.0718751767082040
  Basis Set: CC-PVTZ
  Basis Set:
  Basis Set: CC-PVTZ
  Basis Set:
  @DF-RHF Final Energy:  -423.11666334278732
    Total Energy =                       -423.1166633427872057
  Basis Set: CC-PVTZ
  Basis Set:
  @DF-RHF Final Energy:  -423.10413407923335
    Total Energy =                       -423.1041340792335177
  @DF-RHF Final Energy:  -423.11734943736360
    Total Energy =                       -423.1173494373638277
  @DF-RHF Final Energy:  -423.12005329489199
    Total Energy =                       -423.1200532948915907
  @DF-RHF Final Energy:  -423.12023957299488
    Total Energy =                       -423.1202395729952741
  @DF-RHF Final Energy:  -423.12027802178739
    Total Energy =                       -423.1202780217869304
  @DF-RHF Final Energy:  -423.12038833244259
    Total Energy =                       -423.1203883324425306
  @DF-RHF Final Energy:  -423.12032026449396
    Total Energy =                       -423.1203202644944668
  @DF-RHF Final Energy:  -423.12041866001653
    Total Energy =                       -423.1204186600168669
  @DF-RHF Final Energy:  -423.12050671559768
    Total Energy =                       -423.1205067155973438
  @DF-RHF Final Energy:  -423.12051790804014
    Total Energy =                       -423.1205179080391190
  @DF-RHF Final Energy:  -423.12050114669552
    Total Energy =                       -423.1205011466948918
  @DF-RHF Final Energy:  -422.96620541284034
    Total Energy =                       -422.9662054128409636
  @DF-RHF Final Energy:  -422.76600942791208
    Total Energy =                       -422.7660094279123086
  @DF-RHF Final Energy:  -422.78438911122356
    Total Energy =                       -422.7843891112233905
  @DF-RHF Final Energy:  -422.78688933278306
    Total Energy =                       -422.7868893327829483
  @DF-RHF Final Energy:  -422.80786454273266
    Total Energy =                       -422.8078645427323181
  @DF-RHF Final Energy:  -422.86353133940776
    Total Energy =                       -422.8635313394073592
  @DF-RHF Final Energy:  -422.97503289012832
    Total Energy =                       -422.9750328901283183
  @DF-RHF Final Energy:  -423.08797270766689
    Total Energy =                       -423.0879727076671770
  @DF-RHF Final Energy:  -423.01792500144563
    Total Energy =                       -423.0179250014451782
  @DF-RHF Final Energy:  -423.09733098947709
    Total Energy =                       -423.0973309894772001
  @DF-RHF Final Energy:  -423.08150232980154
    Total Energy =                       -423.0815023298010829
  @DF-RHF Final Energy:  -423.08266521731986
    Total Energy =                       -423.0826652173193452
  @DF-RHF Final Energy:  -423.09170094876742
    Total Energy =                       -423.0917009487674250
  @DF-RHF Final Energy:  -423.11115941980017
    Total Energy =                       -423.1111594198001740
  @DF-RHF Final Energy:  -423.11920429517141
    Total Energy =                       -423.1192042951713574
  @DF-RHF Final Energy:  -423.11986523740688
    Total Energy =                       -423.1198652374067706
  @DF-RHF Final Energy:  -423.12003930374476
    Total Energy =                       -423.1200393037447611
  @DF-RHF Final Energy:  -423.12009751886035
    Total Energy =                       -423.1200975188598932
  @DF-RHF Final Energy:  -423.12013381274653
    Total Energy =                       -423.1201338127465306
  Basis Set: CC-PVTZ
  Basis Set:
  @DF-RHF Final Energy:  -423.12017784725316
    Total Energy =                       -423.1201778472529895
  Basis Set: CC-PVTZ
  Basis Set:
  Basis Set: CC-PVTZ
  Basis Set:
  @DF-RHF Final Energy:  -423.12021378265541
    Total Energy =                       -423.1202137826554690
  Basis Set: CC-PVTZ
  Basis Set:
  Basis Set: CC-PVTZ
  Basis Set:
  @DF-RHF Final Energy:  -423.12021863070822
    Total Energy =                       -423.1202186307082229
  Basis Set: CC-PVTZ
  Basis Set:
  Charge       = 0
  Multiplicity = 1
  Basis Set: CC-PVTZ
  Basis Set:

    Orbital Energies (a.u.)
    -----------------------

    Doubly Occupied:

       1A    -20.579701     2A    -20.538034     3A    -11.368972
       4A    -11.285454     5A    -11.232171     6A    -11.222901
       7A    -11.222219     8A    -11.219936     9A    -11.211399
      10A     -1.461778    11A     -1.365868    12A     -1.094945
      13A     -1.039107    14A     -1.005737    15A     -0.932870
      16A     -0.842115    17A     -0.803521    18A     -0.774487
      19A     -0.699130    20A     -0.686157    21A     -0.658405
      22A     -0.649116    23A     -0.615356    24A     -0.590048
      25A     -0.584970    26A     -0.573305    27A     -0.556329
      28A     -0.549285    29A     -0.514240    30A     -0.503950
      31A     -0.494072    32A     -0.478755    33A     -0.472298
      34A     -0.470195    35A     -0.451265    36A     -0.435651

  @DF-RHF Final Energy:  -423.12022020025262

   => Energetics <=

    Nuclear Repulsion Energy =            449.1504931818221280
    One-Electron Energy =               -1466.1739404836882841
    Two-Electron Energy =                 593.9032271016136519
    DFT Exchange-Correlation Energy =       0.0000000000000000
    Empirical Dispersion Energy =           0.0000000000000000
    PCM Polarization Energy =               0.0000000000000000
    EFP Energy =                            0.0000000000000000
    Total Energy =                       -423.1202202002524473
    Molecular point group: c1
  Basis Set: CC-PVTZ
  Basis Set:

  -Total Gradient:
     Atom            X                  Y                   Z
    ------   -----------------  -----------------  -----------------
       1        0.005350002034     0.002117710968     0.006643016929
       2       -0.009138126230    -0.006533777897    -0.010173101457
       3       -0.000029872910     0.000137196545    -0.000162632625
       4        0.006142590104     0.010808096905     0.004211176336
       5        0.000074152907     0.000014442755     0.000079721341
       6       -0.000071529703     0.000017275014     0.000008392796
       7        0.000053519876    -0.000074056921     0.000064316232
       8       -0.002362466419    -0.006436796586    -0.000743332936
       9       -0.000048530131    -0.000050905839     0.000071605381
      10       -0.000000042888     0.000017190656     0.000023857140
      11        0.000007406788    -0.000069431528     0.000014119785
      12        0.000088684455     0.000020893070    -0.000040818541
      13       -0.000009781484     0.000074582064    -0.000017555374
      14        0.000008573785    -0.000008369143    -0.000000289150
      15       -0.000094493822    -0.000032800673     0.000065408811
      16       -0.000009871115     0.000009752661     0.000001436214
      17        0.000017328617    -0.000081024000     0.000013302966
      18        0.000085238745     0.000102790193    -0.000059171769
      19       -0.000019058350     0.000068541372    -0.000007129001
      20        0.000012088761    -0.000014293694    -0.000006223480
      21       -0.000008487821    -0.000000660151    -0.000009617041
      22       -0.000051620317    -0.000002591890     0.000006501538
      23        0.000004295114    -0.000083763884     0.000017015910

  **** Optimization is complete! (in 38 steps) ****
    Final optimized geometry and variables:
    Molecular point group: c1

    Geometry (in Angstrom), charge = 0, multiplicity = 1:

    O           -1.896951584041     1.309930359520     2.276440448844
    C           -1.440225447636     0.222894789076     2.251329679082
    C           -1.924580169031    -0.894914731534     3.139106358514
    O           -0.374686061207    -0.096364071270     1.506812607634
    H           -2.973225610394    -1.067910770301     2.934646120914
    H           -1.364626331005    -1.803449964044     2.986610852200
    H           -1.841829245444    -0.579836222326     4.170727002327
    C           -0.473565401853     0.081634343569     0.100136738506
    C            0.885881763911    -0.181080140713    -0.510262427461
    H           -1.210305776011    -0.614950401493    -0.287161544731
    H           -0.808833843955     1.087990969041    -0.110725746110
    C            0.876102898440    -0.031881452334    -2.028807229470
    H            1.206236043525    -1.180895856056    -0.236493134416
    H            1.599421901208     0.508701007915    -0.072298643316
    C            2.240066308704    -0.289634339416    -2.662692918359
    H            0.148736670351    -0.717635763542    -2.457097229223
    H            0.543422668072     0.968865691169    -2.292365937417
    C            2.232022718062    -0.138755794381    -4.180038915140
    H            2.573142490605    -1.289992157360    -2.401297481395
    H            2.967761892152     0.394741196977    -2.236092485477
    H            1.537867903132    -0.834779627251    -4.639245669111
    H            3.213917676244    -0.327885130612    -4.597734818769
    H            1.935630202559     0.862944690817    -4.472249060307

  Mulliken Charges: (a.u.)
   Center  Symbol    Alpha    Beta     Spin     Total
       1     O     4.18403  4.18403  0.00000 -0.36806
       2     C     2.81049  2.81049  0.00000  0.37902
       3     C     3.14643  3.14643  0.00000 -0.29285
       4     O     4.16378  4.16378  0.00000 -0.32757
       5     H     0.44235  0.44235  0.00000  0.11530
       6     H     0.44119  0.44119  0.00000  0.11762
       7     H     0.43814  0.43814  0.00000  0.12371
       8     C     2.97326  2.97326  0.00000  0.05348
       9     C     3.08531  3.08531  0.00000 -0.17063
      10     H     0.46535  0.46535  0.00000  0.06930
      11     H     0.44873  0.44873  0.00000  0.10253
      12     C     3.09953  3.09953  0.00000 -0.19906
      13     H     0.45031  0.45031  0.00000  0.09939
      14     H     0.44704  0.44704  0.00000  0.10592
      15     C     3.08508  3.08508  0.00000 -0.17016
      16     H     0.45448  0.45448  0.00000  0.09103
      17     H     0.45198  0.45198  0.00000  0.09605
      18     C     3.14956  3.14956  0.00000 -0.29912
      19     H     0.45354  0.45354  0.00000  0.09291
      20     H     0.45257  0.45257  0.00000  0.09486
      21     H     0.45513  0.45513  0.00000  0.08974
      22     H     0.44745  0.44745  0.00000  0.10509
      23     H     0.45425  0.45425  0.00000  0.09150

   Total alpha = 36.00000, Total beta = 36.00000, Total charge = -0.00000

*** Psi4 exiting successfully. Buy a developer a beer!
