  ==> Input File <==

--------------------------------------------------------------------------
set {
	reference rhf
	basis cc-pvtz
}

set_num_threads( 4 )
memory 2 gb

molecule MOL {
0 1

H	 -0.000342	 -0.223902	 -3.352295
C	 -0.027146	 0.371068	 -2.446756
C	 0.024493	 -0.518541	 -1.216015
H	 -0.932586	 0.964979	 -2.449855
H	 0.819708	 1.049865	 -2.473332
N	 -0.042516	 0.263377	 -0.000000
H	 -0.822211	 -1.197105	 -1.225584
H	 0.921114	 -1.142847	 -1.255206
C	 0.024493	 -0.518541	 1.216015
H	 0.682568	 0.950412	 -0.000000
C	 1.461047	 -0.697586	 1.677586
H	 -0.538183	 0.004325	 1.982472
H	 -0.446221	 -1.498643	 1.101771
H	 1.931285	 0.263995	 1.841295
H	 1.500191	 -1.263734	 2.600978
H	 2.044826	 -1.234992	 0.936620

	symmetry c1
}
set optking {
	frozen_dihedral = ("
		12 9 6 3
	")
}

ee = optimize('scf')
oeprop('DIPOLE', 'QUADRUPOLE', 'MULLIKEN_CHARGES')
f=open( 'psi4out.xyz', 'w' )
f.write( "16  " )
f.write( str(ee) + "\n" )
f.write( MOL.save_string_xyz() )
f.close()
--------------------------------------------------------------------------

    Molecular point group: c1
  Charge       = 0
  Multiplicity = 1
  Basis Set: CC-PVTZ
  Basis Set:
  @DF-RHF Final Energy:  -212.38932449651023
    Total Energy =                       -212.3893244965100848
    Molecular point group: c1
  Basis Set: CC-PVTZ
  Basis Set:
  Basis Set: CC-PVTZ
  Basis Set:
  @DF-RHF Final Energy:  -212.39086480268190
    Total Energy =                       -212.3908648026820174
  Basis Set: CC-PVTZ
  Basis Set:
  Basis Set: CC-PVTZ
  Basis Set:
  @DF-RHF Final Energy:  -212.39107741670122
    Total Energy =                       -212.3910774167012505
  Basis Set: CC-PVTZ
  Basis Set:
  Basis Set: CC-PVTZ
  Basis Set:
  @DF-RHF Final Energy:  -212.39108955140665
    Total Energy =                       -212.3910895514065373
  Basis Set: CC-PVTZ
  Basis Set:
  Charge       = 0
  Multiplicity = 1
  Basis Set: CC-PVTZ
  Basis Set:

    Orbital Energies (a.u.)
    -----------------------

    Doubly Occupied:

       1A    -15.525832     2A    -11.238974     3A    -11.238660
       4A    -11.207893     5A    -11.206112     6A     -1.203554
       7A     -1.026652     8A     -0.965168     9A     -0.843262
      10A     -0.817777    11A     -0.648597    12A     -0.628658
      13A     -0.619373    14A     -0.567757    15A     -0.559153
      16A     -0.528851    17A     -0.509561    18A     -0.491704
      19A     -0.488163    20A     -0.474114    21A     -0.354438

  @DF-RHF Final Energy:  -212.39109103035298

   => Energetics <=

    Nuclear Repulsion Energy =            190.7376401819636840
    One-Electron Energy =                -663.9689592608898465
    Two-Electron Energy =                 260.8402280485732945
    DFT Exchange-Correlation Energy =       0.0000000000000000
    Empirical Dispersion Energy =           0.0000000000000000
    PCM Polarization Energy =               0.0000000000000000
    EFP Energy =                            0.0000000000000000
    Total Energy =                       -212.3910910303528681
    Molecular point group: c1
  Basis Set: CC-PVTZ
  Basis Set:

  -Total Gradient:
     Atom            X                  Y                   Z
    ------   -----------------  -----------------  -----------------
       1        0.000000753827     0.000001791972     0.000006138697
       2       -0.000005673525     0.000004259416     0.000016982001
       3       -0.001877105167    -0.000298679102    -0.000033131130
       4       -0.000006184934    -0.000000944699     0.000000398490
       5        0.000006623254    -0.000003958175     0.000001361472
       6        0.002226641216     0.000085031831    -0.000174093642
       7       -0.000002155164     0.000019386532     0.000005980283
       8       -0.000010707401     0.000023707767     0.000013169335
       9        0.001761620603     0.001487801446     0.000807942028
      10       -0.000012651753    -0.000047317840     0.000028430673
      11       -0.000067975415     0.000015014524    -0.000074747590
      12       -0.001973092590    -0.001268570357    -0.000622269157
      13       -0.000010258156    -0.000016517489    -0.000015838640
      14       -0.000005857089    -0.000017600060    -0.000009958589
      15       -0.000009699306    -0.000010345966     0.000028300580
      16       -0.000014278398     0.000026940201     0.000021335188

  **** Optimization is complete! (in 5 steps) ****
    Final optimized geometry and variables:
    Molecular point group: c1

    Geometry (in Angstrom), charge = 0, multiplicity = 1:

    H           -0.334890707063    -0.000437187867    -3.212070928823
    C           -0.363227959088     0.590508158913    -2.303952704350
    C           -0.270589199018    -0.302129116150    -1.077668206266
    H           -1.283522437929     1.161150508730    -2.290528475201
    H            0.465898310047     1.290428454808    -2.340592077017
    N           -0.354148151404     0.479493025349     0.138307007416
    H           -1.098534420286    -1.002743551798    -1.081258248592
    H            0.642220333156    -0.899148669293    -1.138919537659
    C           -0.256857135560    -0.263244501265     1.380780509050
    H            0.302961076206     1.229887606870     0.121678612847
    C            1.162827186486    -0.509818463020     1.882910331236
    H           -0.829764333170     0.254395069504     2.143209678404
    H           -0.757581429920    -1.214417811448     1.235923292548
    H            1.671658922511     0.429413866633     2.076233952332
    H            1.151957583698    -1.074841929882     2.808854948947
    H            1.749777694656    -1.064881982371     1.159955920689

  Mulliken Charges: (a.u.)
   Center  Symbol    Alpha    Beta     Spin     Total
       1     H     0.45398  0.45398  0.00000  0.09204
       2     C     3.14274  3.14274  0.00000 -0.28549
       3     C     3.01992  3.01992  0.00000 -0.03984
       4     H     0.44940  0.44940  0.00000  0.10119
       5     H     0.45940  0.45940  0.00000  0.08121
       6     N     3.63974  3.63974  0.00000 -0.27949
       7     H     0.45828  0.45828  0.00000  0.08344
       8     H     0.47561  0.47561  0.00000  0.04878
       9     C     3.03549  3.03549  0.00000 -0.07099
      10     H     0.44550  0.44550  0.00000  0.10900
      11     C     3.14657  3.14657  0.00000 -0.29314
      12     H     0.45024  0.45024  0.00000  0.09952
      13     H     0.45939  0.45939  0.00000  0.08122
      14     H     0.45830  0.45830  0.00000  0.08341
      15     H     0.45199  0.45199  0.00000  0.09603
      16     H     0.45344  0.45344  0.00000  0.09312

   Total alpha = 21.00000, Total beta = 21.00000, Total charge = -0.00000
