  ==> Input File <==

--------------------------------------------------------------------------
set {
	reference rhf
	basis 6-31G*
}

set_num_threads( 1 )
memory 2 gb

molecule MOL {
0 1

H	 -3.420663	 1.227371	 -1.044276
O	 -3.452007	 0.283848	 -0.965577
C	 -3.181085	 -0.079926	 0.364119
C	 -1.765924	 0.277073	 0.805136
H	 -3.327791	 -1.152017	 0.410903
H	 -3.905698	 0.375695	 1.036898
C	 -0.677594	 -0.417312	 -0.014550
H	 -1.637766	 1.358238	 0.744969
H	 -1.659588	 0.017670	 1.857098
C	 0.738335	 -0.034840	 0.421385
H	 -0.814977	 -0.178223	 -1.064632
H	 -0.802730	 -1.495410	 0.071702
C	 1.811729	 -0.940680	 -0.188010
H	 0.925630	 1.000296	 0.146008
H	 0.807190	 -0.079022	 1.507622
C	 3.240124	 -0.653098	 0.288584
H	 1.773716	 -0.863251	 -1.273484
H	 1.570435	 -1.974579	 0.049996
C	 3.790698	 0.709002	 -0.137979
H	 3.895082	 -1.429918	 -0.098548
H	 3.280877	 -0.735573	 1.372899
H	 3.750729	 0.824977	 -1.217836
H	 4.826981	 0.818563	 0.166902
H	 3.234037	 1.528908	 0.303662

	symmetry c1
}
set optking {
	frozen_dihedral = ("
		20 16 13 17,
		17 13 10 7,
		11 7 4 3,
		1 2 3 5,
		7 4 3 2
	")
}

ee = energy('scf')
oeprop('DIPOLE', 'QUADRUPOLE', 'MULLIKEN_CHARGES')
f=open( 'psi4out.xyz', 'w' )
f.write( "24  " )
f.write( str(ee) + "\n" )
f.write( MOL.save_string_xyz() )
f.close()
--------------------------------------------------------------------------

    Molecular point group: c1

    Geometry (in Angstrom), charge = 0, multiplicity = 1:

       Center              X                  Y                   Z               Mass
    ------------   -----------------  -----------------  -----------------  -----------------
           H         -3.427748594483     1.312622726972    -1.096058766054     1.007825032070
           O         -3.459092594483     0.369099726972    -1.017359766054    15.994914619560
           C         -3.188170594483     0.005325726972     0.312336233946    12.000000000000
           C         -1.773009594483     0.362324726972     0.753353233946    12.000000000000
           H         -3.334876594483    -1.066765273028     0.359120233946     1.007825032070
           H         -3.912783594483     0.460946726972     0.985115233946     1.007825032070
           C         -0.684679594483    -0.332060273028    -0.066332766054    12.000000000000
           H         -1.644851594483     1.443489726972     0.693186233946     1.007825032070
           H         -1.666673594483     0.102921726972     1.805315233946     1.007825032070
           C          0.731249405517     0.050411726972     0.369602233946    12.000000000000
           H         -0.822062594483    -0.092971273028    -1.116414766054     1.007825032070
           H         -0.809815594483    -1.410158273028     0.019919233946     1.007825032070
           C          1.804643405517    -0.855428273028    -0.239792766054    12.000000000000
           H          0.918544405517     1.085547726972     0.094225233946     1.007825032070
           H          0.800104405517     0.006229726972     1.455839233946     1.007825032070
           C          3.233038405517    -0.567846273028     0.236801233946    12.000000000000
           H          1.766630405517    -0.777999273028    -1.325266766054     1.007825032070
           H          1.563349405517    -1.889327273028    -0.001786766054     1.007825032070
           C          3.783612405517     0.794253726972    -0.189761766054    12.000000000000
           H          3.887996405517    -1.344666273028    -0.150330766054     1.007825032070
           H          3.273791405517    -0.650321273028     1.321116233946     1.007825032070
           H          3.743643405517     0.910228726972    -1.269618766054     1.007825032070
           H          4.819895405517     0.903814726972     0.115119233946     1.007825032070
           H          3.226951405517     1.614159726972     0.251879233946     1.007825032070

  Charge       = 0
  Multiplicity = 1
  Basis Set: 6-31G*
  Basis Set:

    Orbital Energies (a.u.)
    -----------------------

    Doubly Occupied:

       1A    -20.553533     2A    -11.267676     3A    -11.217517
       4A    -11.214084     5A    -11.212355     6A    -11.211652
       7A    -11.210945     8A    -11.207334     9A     -1.360133
      10A     -1.088588    11A     -1.048286    12A     -0.985608
      13A     -0.915001    14A     -0.850495    15A     -0.800693
      16A     -0.776338    17A     -0.678938    18A     -0.654579
      19A     -0.624332    20A     -0.620499    21A     -0.596039
      22A     -0.582838    23A     -0.561079    24A     -0.538142
      25A     -0.516351    26A     -0.510678    27A     -0.497047
      28A     -0.474542    29A     -0.467159    30A     -0.459977
      31A     -0.454036    32A     -0.450249    33A     -0.419205

  @DF-RHF Final Energy:  -349.24708745732170

   => Energetics <=

    Nuclear Repulsion Energy =            384.2943973867886029
    One-Electron Energy =               -1235.0309504921524422
    Two-Electron Energy =                 501.4894656480416302
    DFT Exchange-Correlation Energy =       0.0000000000000000
    Empirical Dispersion Energy =           0.0000000000000000
    PCM Polarization Energy =               0.0000000000000000
    EFP Energy =                            0.0000000000000000
    Total Energy =                       -349.2470874573221522

  Mulliken Charges: (a.u.)
   Center  Symbol    Alpha    Beta     Spin     Total
       1     H     0.28339  0.28339  0.00000  0.43322
       2     O     4.36833  4.36833  0.00000 -0.73665
       3     C     2.99618  2.99618  0.00000  0.00763
       4     C     3.16922  3.16922  0.00000 -0.33844
       5     H     0.41630  0.41630  0.00000  0.16741
       6     H     0.42821  0.42821  0.00000  0.14359
       7     C     3.15192  3.15192  0.00000 -0.30384
       8     H     0.42831  0.42831  0.00000  0.14337
       9     H     0.42228  0.42228  0.00000  0.15544
      10     C     3.15382  3.15382  0.00000 -0.30764
      11     H     0.41157  0.41157  0.00000  0.17685
      12     H     0.42379  0.42379  0.00000  0.15242
      13     C     3.15248  3.15248  0.00000 -0.30496
      14     H     0.42213  0.42213  0.00000  0.15573
      15     H     0.42580  0.42580  0.00000  0.14839
      16     C     3.15231  3.15231  0.00000 -0.30462
      17     H     0.42349  0.42349  0.00000  0.15303
      18     H     0.42217  0.42217  0.00000  0.15565
      19     C     3.24105  3.24105  0.00000 -0.48209
      20     H     0.42110  0.42110  0.00000  0.15780
      21     H     0.42381  0.42381  0.00000  0.15237
      22     H     0.42218  0.42218  0.00000  0.15565
      23     H     0.41957  0.41957  0.00000  0.16086
      24     H     0.42059  0.42059  0.00000  0.15882

   Total alpha = 33.00000, Total beta = 33.00000, Total charge =  0.00000
