  ==> Input File <==

--------------------------------------------------------------------------
set {
	reference rhf
	basis cc-pvtz
}

set_num_threads( 4 )
memory 2 gb

molecule MOL {
0 1

H	 3.283645	 -0.487017	 -0.000000
C	 2.228138	 -0.292414	 -0.000000
C	 1.768840	 1.016164	 0.000000
C	 1.335991	 -1.345785	 -0.000000
H	 2.468361	 1.829468	 0.000000
C	 0.415592	 1.270175	 0.000000
H	 1.694164	 -2.356818	 -0.000000
C	 -0.022788	 -1.089092	 -0.000000
H	 0.041253	 2.274430	 0.000000
C	 -0.486398	 0.214248	 0.000000
H	 -0.722717	 -1.904122	 -0.000000
C	 -1.946525	 0.470130	 0.000000
O	 -2.779618	 -0.371226	 0.000000
H	 -2.227127	 1.528393	 0.000000

	symmetry c1
}
set optking {
	frozen_dihedral = ("
		8 10 12 14
	")
}

ee = optimize('scf')
oeprop('DIPOLE', 'QUADRUPOLE', 'MULLIKEN_CHARGES')
f=open( 'psi4out.xyz', 'w' )
f.write( "14  " )
f.write( str(ee) + "\n" )
f.write( MOL.save_string_xyz() )
f.close()
--------------------------------------------------------------------------

    Molecular point group: c1
  Charge       = 0
  Multiplicity = 1
  Basis Set: CC-PVTZ
  Basis Set:
  @DF-RHF Final Energy:  -343.54983723368224
    Total Energy =                       -343.5498372336820125
    Molecular point group: c1
  Basis Set: CC-PVTZ
  Basis Set:
  Basis Set: CC-PVTZ
  Basis Set:
  @DF-RHF Final Energy:  -343.55008082021936
    Total Energy =                       -343.5500808202189660
  Basis Set: CC-PVTZ
  Basis Set:
  Basis Set: CC-PVTZ
  Basis Set:
  @DF-RHF Final Energy:  -343.55010965601775
    Total Energy =                       -343.5501096560177530
  Basis Set: CC-PVTZ
  Basis Set:
  Charge       = 0
  Multiplicity = 1
  Basis Set: CC-PVTZ
  Basis Set:

    Orbital Energies (a.u.)
    -----------------------

    Doubly Occupied:

       1A    -20.552597     2A    -11.326905     3A    -11.252794
       4A    -11.250355     5A    -11.246679     6A    -11.245352
       7A    -11.243970     8A    -11.242368     9A     -1.408473
      10A     -1.177188    11A     -1.051881    12A     -1.036283
      13A     -0.892805    14A     -0.848545    15A     -0.794487
      16A     -0.725539    17A     -0.682393    18A     -0.656563
      19A     -0.623694    20A     -0.620782    21A     -0.606078
      22A     -0.562390    23A     -0.530255    24A     -0.510198
      25A     -0.508314    26A     -0.425508    27A     -0.355944
      28A     -0.352613

  @DF-RHF Final Energy:  -343.55011469037061

   => Energetics <=

    Nuclear Repulsion Energy =            323.9625817136828800
    One-Electron Energy =               -1107.5634864944802302
    Two-Electron Energy =                 440.0507900904266307
    DFT Exchange-Correlation Energy =       0.0000000000000000
    Empirical Dispersion Energy =           0.0000000000000000
    PCM Polarization Energy =               0.0000000000000000
    EFP Energy =                            0.0000000000000000
    Total Energy =                       -343.5501146903707195
    Molecular point group: c1
  Basis Set: CC-PVTZ
  Basis Set:

  -Total Gradient:
     Atom            X                  Y                   Z
    ------   -----------------  -----------------  -----------------
       1       -0.000001233123     0.000005715002     0.000000000000
       2       -0.000061690494    -0.000288253799    -0.000000000000
       3       -0.000120991341     0.000235725822    -0.000000000000
       4        0.000214259747     0.000200868748    -0.000000000000
       5        0.000019092252    -0.000031468275    -0.000000000000
       6        0.000099067375     0.000076200201     0.000000000000
       7       -0.000020445891    -0.000024490575     0.000000000000
       8       -0.000054429179     0.000153319027    -0.000000000000
       9        0.000031104061    -0.000003895032     0.000000000000
      10       -0.000054350814    -0.000343746903     0.000000000007
      11       -0.000036134630    -0.000008849962    -0.000000000000
      12        0.000021419377     0.000069366801    -0.000000000019
      13       -0.000073887204     0.000001358695     0.000000000007
      14        0.000038219855    -0.000041849751     0.000000000006

  **** Optimization is complete! (in 4 steps) ****
    Final optimized geometry and variables:
    Molecular point group: c1

    Geometry (in Angstrom), charge = 0, multiplicity = 1:

    H            3.291431539919    -0.456195604107     0.000000000004
    C            2.235276472544    -0.264844093797    -0.000000000001
    C            1.773134679955     1.035930572151     0.000000000001
    C            1.342978866817    -1.326574588213    -0.000000000009
    H            2.465583170348     1.855102976983     0.000000000006
    C            0.411144323915     1.276057548226    -0.000000000008
    H            1.709840843554    -2.334723642213    -0.000000000012
    C           -0.012665540322    -1.085914543148    -0.000000000015
    H            0.044805964025     2.286050073813    -0.000000000009
    C           -0.483160250753     0.220681693905    -0.000000000012
    H           -0.717954672307    -1.893044921907    -0.000000000026
    C           -1.939521915357     0.498566720310    -0.000000000036
    O           -2.785444871696    -0.329690055805     0.000000000065
    H           -2.202916667217     1.561365477226    -0.000000000031

  Mulliken Charges: (a.u.)
   Center  Symbol    Alpha    Beta     Spin     Total
       1     H     0.41948  0.41948  0.00000  0.16105
       2     C     3.06947  3.06947  0.00000 -0.13894
       3     C     3.07382  3.07382  0.00000 -0.14764
       4     C     3.07266  3.07266  0.00000 -0.14531
       5     H     0.42058  0.42058  0.00000  0.15884
       6     C     3.08685  3.08685  0.00000 -0.17371
       7     H     0.41951  0.41951  0.00000  0.16099
       8     C     3.07918  3.07918  0.00000 -0.15836
       9     H     0.42287  0.42287  0.00000  0.15427
      10     C     2.98645  2.98645  0.00000  0.02710
      11     H     0.40866  0.40866  0.00000  0.18269
      12     C     2.90920  2.90920  0.00000  0.18159
      13     O     4.17285  4.17285  0.00000 -0.34569
      14     H     0.45844  0.45844  0.00000  0.08312

   Total alpha = 28.00000, Total beta = 28.00000, Total charge =  0.00000
