  ==> Input File <==

--------------------------------------------------------------------------
set {
	reference rhf
	basis 6-31G*
}

set_num_threads( 4 )
memory 2 gb

molecule MOL {
0 1

H	 3.301248	 -0.421704	 0.018187
C	 2.241050	 -0.241745	 0.014277
C	 1.463567	 -0.721459	 -1.032745
C	 1.659207	 0.466474	 1.052480
H	 1.922569	 -1.270328	 -1.834982
C	 0.101728	 -0.492130	 -1.040894
H	 2.263820	 0.835985	 1.860656
C	 0.292878	 0.695878	 1.043141
H	 -0.516661	 -0.854322	 -1.840621
C	 -0.488460	 0.219100	 0.000000
H	 -0.165235	 1.245741	 1.847336
C	 -1.949954	 0.470334	 0.000000
O	 -2.781584	 -0.381627	 0.000000
H	 -2.238022	 1.526388	 0.000000

	symmetry c1
}
set optking {
	frozen_dihedral = ("
		8 10 12 14
	")
}

ee = optimize('scf')
oeprop('DIPOLE', 'QUADRUPOLE', 'MULLIKEN_CHARGES')
f=open( 'psi4out.xyz', 'w' )
f.write( "14  " )
f.write( str(ee) + "\n" )
f.write( MOL.save_string_xyz() )
f.close()
--------------------------------------------------------------------------

    Molecular point group: c1
  Charge       = 0
  Multiplicity = 1
  Basis Set: 6-31G*
  Basis Set:
  @DF-RHF Final Energy:  -343.42231484475974
    Total Energy =                       -343.4223148447596259
    Molecular point group: c1
  Basis Set: 6-31G*
  Basis Set:
  Basis Set: 6-31G*
  Basis Set:
  @DF-RHF Final Energy:  -343.42051702154737
    Total Energy =                       -343.4205170215473117
  Basis Set: 6-31G*
  Basis Set:
  Basis Set: 6-31G*
  Basis Set:
  @DF-RHF Final Energy:  -343.42314999754188
    Total Energy =                       -343.4231499975419979
  Basis Set: 6-31G*
  Basis Set:
  Basis Set: 6-31G*
  Basis Set:
  @DF-RHF Final Energy:  -343.42323557007938
    Total Energy =                       -343.4232355700793846
  Basis Set: 6-31G*
  Basis Set:
  Basis Set: 6-31G*
  Basis Set:
  @DF-RHF Final Energy:  -343.42323681739776
    Total Energy =                       -343.4232368173978784
  Basis Set: 6-31G*
  Basis Set:
  Charge       = 0
  Multiplicity = 1
  Basis Set: 6-31G*
  Basis Set:

    Orbital Energies (a.u.)
    -----------------------

    Doubly Occupied:

       1A    -20.569191     2A    -11.334315     3A    -11.250386
       4A    -11.249003     5A    -11.246432     6A    -11.245740
       7A    -11.243753     8A    -11.242452     9A     -1.408590
      10A     -1.169253    11A     -1.044958    12A     -1.029413
      13A     -0.887312    14A     -0.841325    15A     -0.793468
      16A     -0.720546    17A     -0.676502    18A     -0.651766
      19A     -0.632483    20A     -0.616691    21A     -0.601026
      22A     -0.539069    23A     -0.526914    24A     -0.507969
      25A     -0.502371    26A     -0.422173    27A     -0.347203
      28A     -0.345842

  @DF-RHF Final Energy:  -343.42323710299121

   => Energetics <=

    Nuclear Repulsion Energy =            322.8984223812031473
    One-Electron Energy =               -1105.3510289621444826
    Two-Electron Energy =                 439.0293694779501266
    DFT Exchange-Correlation Energy =       0.0000000000000000
    Empirical Dispersion Energy =           0.0000000000000000
    PCM Polarization Energy =               0.0000000000000000
    EFP Energy =                            0.0000000000000000
    Total Energy =                       -343.4232371029912656
    Molecular point group: c1
  Basis Set: 6-31G*
  Basis Set:

  -Total Gradient:
     Atom            X                  Y                   Z
    ------   -----------------  -----------------  -----------------
       1        0.000001137589    -0.000005120762    -0.000002066744
       2       -0.000001345581     0.000010594832     0.000018139800
       3       -0.000008622229     0.000007294769    -0.000006699541
       4        0.000029727095    -0.000015777321    -0.000010776470
       5        0.000005446266     0.000000553204     0.000004659856
       6        0.000022624490     0.000012212539    -0.000007690731
       7        0.000000932176    -0.000000764220    -0.000002687111
       8       -0.000708544120    -0.005369245209     0.002848310702
       9        0.000000716234     0.000013792041    -0.000003557789
      10        0.000961669648     0.007933443218    -0.006595149110
      11       -0.000000488564     0.000009681276    -0.000006992392
      12       -0.000192464453    -0.002925989734     0.011262636194
      13       -0.000001706067     0.000033468626     0.000003834815
      14       -0.000109082484     0.000295856744    -0.007501961480

  **** Optimization is complete! (in 6 steps) ****
    Final optimized geometry and variables:
    Molecular point group: c1

    Geometry (in Angstrom), charge = 0, multiplicity = 1:

    H            3.295050674444    -0.446989036833     0.028004068295
    C            2.237858291299    -0.250883239344     0.022065654775
    C            1.452609151830    -0.719940760799    -1.020339522072
    C            1.661200782992     0.463775779590     1.059479851382
    H            1.899489157296    -1.281830826655    -1.820523689355
    C            0.089733254601    -0.480019691016    -1.023336292840
    H            2.266447297880     0.814514648639     1.875734594849
    C            0.301046689093     0.725184536566     1.044797491023
    H           -0.529454183501    -0.865986359305    -1.812297645335
    C           -0.485725334370     0.266877480623    -0.003116720908
    H           -0.145217090902     1.286200669595     1.848059441195
    C           -1.966362549433     0.467758590658     0.024422324844
    O           -2.750549039960    -0.418385170257    -0.089950422064
    H           -2.310862799967     1.505181806849     0.070615550830

  Mulliken Charges: (a.u.)
   Center  Symbol    Alpha    Beta     Spin     Total
       1     H     0.39537  0.39537  0.00000  0.20927
       2     C     3.09557  3.09557  0.00000 -0.19114
       3     C     3.10120  3.10120  0.00000 -0.20241
       4     C     3.10023  3.10023  0.00000 -0.20047
       5     H     0.39480  0.39480  0.00000  0.21041
       6     C     3.09451  3.09451  0.00000 -0.18903
       7     H     0.39531  0.39531  0.00000  0.20938
       8     C     3.10358  3.10358  0.00000 -0.20716
       9     H     0.38600  0.38600  0.00000  0.22801
      10     C     3.03793  3.03793  0.00000 -0.07586
      11     H     0.39407  0.39407  0.00000  0.21187
      12     C     2.84936  2.84936  0.00000  0.30128
      13     O     4.22888  4.22888  0.00000 -0.45775
      14     H     0.42320  0.42320  0.00000  0.15361

   Total alpha = 28.00000, Total beta = 28.00000, Total charge = -0.00000
