  ==> Input File <==

--------------------------------------------------------------------------
set {
	reference rhf
	basis 6-31G*
}

set_num_threads( 4 )
memory 2 gb

molecule MOL {
0 1

H	 -2.098997	 -0.674324	 -0.616650
O	 -2.035884	 -0.060112	 0.102722
C	 -0.955155	 0.788182	 -0.092531
C	 0.353668	 0.040312	 -0.004810
H	 -0.985057	 1.290372	 -1.054184
H	 -0.974469	 1.533190	 0.688632
F	 0.649583	 -0.522444	 -1.171135
F	 1.339533	 0.867421	 0.303672
F	 0.328625	 -0.916070	 0.900869

	symmetry c1
}
set optking {
	frozen_dihedral = ("
		7 4 3 5
	")
}

ee = optimize('scf')
oeprop('DIPOLE', 'QUADRUPOLE', 'MULLIKEN_CHARGES')
f=open( 'psi4out.xyz', 'w' )
f.write( "9  " )
f.write( str(ee) + "\n" )
f.write( MOL.save_string_xyz() )
f.close()
--------------------------------------------------------------------------

    Molecular point group: c1
  Charge       = 0
  Multiplicity = 1
  Basis Set: 6-31G*
  Basis Set:
  @DF-RHF Final Energy:  -450.65963039003475
    Total Energy =                       -450.6596303900344083
    Molecular point group: c1
  Basis Set: 6-31G*
  Basis Set:
  Basis Set: 6-31G*
  Basis Set:
  @DF-RHF Final Energy:  -450.65989854645932
    Total Energy =                       -450.6598985464592033
  Basis Set: 6-31G*
  Basis Set:
  Basis Set: 6-31G*
  Basis Set:
  @DF-RHF Final Energy:  -450.66000068692500
    Total Energy =                       -450.6600006869248887
  Basis Set: 6-31G*
  Basis Set:
  Basis Set: 6-31G*
  Basis Set:
  @DF-RHF Final Energy:  -450.66000685550745
    Total Energy =                       -450.6600068555074472
  Basis Set: 6-31G*
  Basis Set:
  Basis Set: 6-31G*
  Basis Set:
  @DF-RHF Final Energy:  -450.66000795756952
    Total Energy =                       -450.6600079575694622
  Basis Set: 6-31G*
  Basis Set:
  Charge       = 0
  Multiplicity = 1
  Basis Set: 6-31G*
  Basis Set:

    Orbital Energies (a.u.)
    -----------------------

    Doubly Occupied:

       1A    -26.340904     2A    -26.340204     3A    -26.339517
       4A    -20.589914     5A    -11.499223     6A    -11.310026
       7A     -1.738756     8A     -1.637313     9A     -1.634792
      10A     -1.401227    11A     -1.046074    12A     -0.922868
      13A     -0.829395    14A     -0.826288    15A     -0.802476
      16A     -0.729221    17A     -0.710271    18A     -0.696427
      19A     -0.661930    20A     -0.657752    21A     -0.640840
      22A     -0.628017    23A     -0.611197    24A     -0.530794
      25A     -0.480070

  @DF-RHF Final Energy:  -450.66000798966400

   => Energetics <=

    Nuclear Repulsion Energy =            276.4787645474855253
    One-Electron Energy =               -1175.0665541033288264
    Two-Electron Energy =                 447.9277815661791919
    DFT Exchange-Correlation Energy =       0.0000000000000000
    Empirical Dispersion Energy =           0.0000000000000000
    PCM Polarization Energy =               0.0000000000000000
    EFP Energy =                            0.0000000000000000
    Total Energy =                       -450.6600079896641091
    Molecular point group: c1
  Basis Set: 6-31G*
  Basis Set:

  -Total Gradient:
     Atom            X                  Y                   Z
    ------   -----------------  -----------------  -----------------
       1        0.000010411893     0.000007624627    -0.000003326555
       2       -0.000015865534     0.000002347732     0.000013587006
       3        0.003680767560     0.006682770065     0.002221583934
       4       -0.003487584549    -0.006014266622     0.001319886557
       5       -0.002434736944    -0.004520706273    -0.002193800762
       6       -0.000013955384    -0.000006668914     0.000003846548
       7        0.002255582964     0.003835901400    -0.001340416605
       8        0.000015525994     0.000015023967    -0.000005869196
       9       -0.000010145995    -0.000002025982    -0.000015490926

  **** Optimization is complete! (in 6 steps) ****
    Final optimized geometry and variables:
    Molecular point group: c1

    Geometry (in Angstrom), charge = 0, multiplicity = 1:

    H           -2.152813207745    -0.631920751755    -0.669349207701
    O           -2.053383206468    -0.071232610010     0.088442173812
    C           -0.965711284267     0.778624604334    -0.081194103323
    C            0.351518431883     0.031665984352     0.000060668815
    H           -1.000792683343     1.267931026602    -1.048271364264
    H           -0.996445002227     1.512510854805     0.708589586950
    F            0.644493049492    -0.545801928592    -1.160387042978
    F            1.336445850651     0.879249966519     0.263117701972
    F            0.355916884445    -0.899256690299     0.927582566451

  Mulliken Charges: (a.u.)
   Center  Symbol    Alpha    Beta     Spin     Total
       1     H     0.27394  0.27394  0.00000  0.45213
       2     O     4.36069  4.36069  0.00000 -0.72139
       3     C     3.05712  3.05712  0.00000 -0.11425
       4     C     2.46487  2.46487  0.00000  1.07027
       5     H     0.40778  0.40778  0.00000  0.18443
       6     H     0.39423  0.39423  0.00000  0.21154
       7     F     4.68535  4.68535  0.00000 -0.37070
       8     F     4.68362  4.68362  0.00000 -0.36724
       9     F     4.67239  4.67239  0.00000 -0.34478

   Total alpha = 25.00000, Total beta = 25.00000, Total charge =  0.00000
