  ==> Input File <==

--------------------------------------------------------------------------
set {
	reference rhf
	basis cc-pvtz
}

set_num_threads( 4 )
memory 2 gb

molecule MOL {
0 1

H	 -0.000342	 -0.223902	 -3.352295
C	 -0.027146	 0.371068	 -2.446756
C	 0.024493	 -0.518541	 -1.216015
H	 -0.932586	 0.964979	 -2.449855
H	 0.819708	 1.049865	 -2.473332
N	 -0.042516	 0.263377	 -0.000000
H	 -0.822211	 -1.197105	 -1.225584
H	 0.921114	 -1.142847	 -1.255206
C	 0.024493	 -0.518541	 1.216015
H	 0.682568	 0.950412	 -0.000000
C	 1.456791	 -0.905274	 1.544274
H	 -0.381205	 0.081886	 2.023694
H	 -0.592497	 -1.419373	 1.160803
H	 2.075286	 -0.022638	 1.649051
H	 1.500130	 -1.470002	 2.468348
H	 1.883562	 -1.523142	 0.760221

	symmetry c1
}
set optking {
	frozen_dihedral = ("
		12 9 6 3
	")
}

ee = optimize('scf')
oeprop('DIPOLE', 'QUADRUPOLE', 'MULLIKEN_CHARGES')
f=open( 'psi4out.xyz', 'w' )
f.write( "16  " )
f.write( str(ee) + "\n" )
f.write( MOL.save_string_xyz() )
f.close()
--------------------------------------------------------------------------

    Molecular point group: c1
  Charge       = 0
  Multiplicity = 1
  Basis Set: CC-PVTZ
  Basis Set:
  @DF-RHF Final Energy:  -212.38969537476117
    Total Energy =                       -212.3896953747611747
    Molecular point group: c1
  Basis Set: CC-PVTZ
  Basis Set:
  Basis Set: CC-PVTZ
  Basis Set:
  @DF-RHF Final Energy:  -212.39148914926051
    Total Energy =                       -212.3914891492605079
  Basis Set: CC-PVTZ
  Basis Set:
  Basis Set: CC-PVTZ
  Basis Set:
  @DF-RHF Final Energy:  -212.39175914195951
    Total Energy =                       -212.3917591419594260
  Basis Set: CC-PVTZ
  Basis Set:
  Basis Set: CC-PVTZ
  Basis Set:
  @DF-RHF Final Energy:  -212.39177002734510
    Total Energy =                       -212.3917700273449327
  Basis Set: CC-PVTZ
  Basis Set:
  Basis Set: CC-PVTZ
  Basis Set:
  @DF-RHF Final Energy:  -212.39177140456925
    Total Energy =                       -212.3917714045692833
  Basis Set: CC-PVTZ
  Basis Set:
  Charge       = 0
  Multiplicity = 1
  Basis Set: CC-PVTZ
  Basis Set:

    Orbital Energies (a.u.)
    -----------------------

    Doubly Occupied:

       1A    -15.526634     2A    -11.238930     3A    -11.238703
       4A    -11.206895     5A    -11.205744     6A     -1.203998
       7A     -1.025978     8A     -0.965489     9A     -0.845381
      10A     -0.814694    11A     -0.652492    12A     -0.627762
      13A     -0.617166    14A     -0.566756    15A     -0.558067
      16A     -0.530951    17A     -0.510402    18A     -0.490118
      19A     -0.486565    20A     -0.474491    21A     -0.355490

  @DF-RHF Final Energy:  -212.39177147728833

   => Energetics <=

    Nuclear Repulsion Energy =            190.9379108751746799
    One-Electron Energy =                -664.3739509400138559
    Two-Electron Energy =                 261.0442685875508460
    DFT Exchange-Correlation Energy =       0.0000000000000000
    Empirical Dispersion Energy =           0.0000000000000000
    PCM Polarization Energy =               0.0000000000000000
    EFP Energy =                            0.0000000000000000
    Total Energy =                       -212.3917714772883301
    Molecular point group: c1
  Basis Set: CC-PVTZ
  Basis Set:

  -Total Gradient:
     Atom            X                  Y                   Z
    ------   -----------------  -----------------  -----------------
       1       -0.000000900051     0.000000259412     0.000002736358
       2        0.000002364566     0.000003063057     0.000002228433
       3       -0.001181279640    -0.000130858272    -0.000006075876
       4       -0.000000891520     0.000000109407    -0.000000943115
       5        0.000000046816     0.000000226642    -0.000001700264
       6        0.001393958234     0.000047989050    -0.000059932914
       7       -0.000000425855     0.000001120475     0.000001469248
       8       -0.000001157412     0.000000134213     0.000001343133
       9        0.001161151325     0.000669277924     0.000315656686
      10        0.000002027210     0.000006282048    -0.000008940201
      11       -0.000015989029     0.000002340625    -0.000006276464
      12       -0.001366330255    -0.000586564036    -0.000254256498
      13       -0.000007199173    -0.000009869031     0.000012583991
      14        0.000004436159    -0.000001681523     0.000001752692
      15        0.000002661332     0.000000332967    -0.000002010731
      16        0.000007527293    -0.000002162960     0.000002365524

  **** Optimization is complete! (in 6 steps) ****
    Final optimized geometry and variables:
    Molecular point group: c1

    Geometry (in Angstrom), charge = 0, multiplicity = 1:

    H           -0.365902892539     0.057042974010    -3.192642280364
    C           -0.394555596112     0.642944606842    -2.281152120877
    C           -0.252042742445    -0.251833372841    -1.060865227050
    H           -1.330387896554     1.186620150317    -2.247350975618
    H            0.412937520749     1.366990935573    -2.329815291939
    N           -0.330645167436     0.523734059024     0.159340882762
    H           -1.062107808527    -0.973373308142    -1.048199583365
    H            0.673042394342    -0.825015364681    -1.146293501266
    C           -0.248821168841    -0.222320236540     1.399209995171
    H            0.339082180974     1.263684105601     0.148964942020
    C            1.146789807266    -0.692334835085     1.804801747955
    H           -0.665811480029     0.390506849581     2.191241860259
    H           -0.907130484345    -1.080039983933     1.310775032592
    H            1.816915485433     0.152577208773     1.930097963942
    H            1.110659007226    -1.227326655161     2.747836581138
    H            1.579780647470    -1.354864592466     1.064656309199

  Mulliken Charges: (a.u.)
   Center  Symbol    Alpha    Beta     Spin     Total
       1     H     0.45442  0.45442  0.00000  0.09117
       2     C     3.14161  3.14161  0.00000 -0.28322
       3     C     3.02030  3.02030  0.00000 -0.04059
       4     H     0.44948  0.44948  0.00000  0.10104
       5     H     0.45933  0.45933  0.00000  0.08133
       6     N     3.63872  3.63872  0.00000 -0.27743
       7     H     0.45874  0.45874  0.00000  0.08253
       8     H     0.47467  0.47467  0.00000  0.05066
       9     C     3.03911  3.03911  0.00000 -0.07822
      10     H     0.44617  0.44617  0.00000  0.10767
      11     C     3.14663  3.14663  0.00000 -0.29327
      12     H     0.44915  0.44915  0.00000  0.10170
      13     H     0.45802  0.45802  0.00000  0.08395
      14     H     0.45862  0.45862  0.00000  0.08276
      15     H     0.45135  0.45135  0.00000  0.09730
      16     H     0.45369  0.45369  0.00000  0.09262

   Total alpha = 21.00000, Total beta = 21.00000, Total charge = -0.00000
