  ==> Input File <==

--------------------------------------------------------------------------
set {
	reference rhf
	basis 6-31G*
}

set_num_threads( 1 )
memory 2 gb

molecule MOL {
0 1

H	 -2.798360	 -0.862255	 -0.071053
N	 -1.863561	 -0.715187	 0.256814
C	 -1.344686	 0.554728	 -0.219830
H	 -1.300452	 -1.461917	 -0.101532
C	 0.081427	 0.741154	 0.254071
H	 -1.362155	 0.656231	 -1.305829
H	 -1.952773	 1.354456	 0.191809
O	 0.874168	 -0.245412	 -0.342030
H	 0.444037	 1.730782	 -0.023037
H	 0.121165	 0.653424	 1.337565
C	 0.233768	 -0.968834	 -1.344088
H	 0.938259	 -1.695430	 -1.725464
H	 -0.639103	 -1.493836	 -0.960095
H	 -0.083424	 -0.322772	 -2.160055

	symmetry c1
}
set optking {
	frozen_dihedral = ("
		8 5 3 6,
		6 3 2 4,
		5 8 11 13
	")
}

ee = energy('scf')
oeprop('DIPOLE', 'QUADRUPOLE', 'MULLIKEN_CHARGES')
f=open( 'psi4out.xyz', 'w' )
f.write( "14  " )
f.write( str(ee) + "\n" )
f.write( MOL.save_string_xyz() )
f.close()
--------------------------------------------------------------------------

    Molecular point group: c1

    Geometry (in Angstrom), charge = 0, multiplicity = 1:

       Center              X                  Y                   Z               Mass
    ------------   -----------------  -----------------  -----------------  -----------------
           H         -2.383379339451    -0.709485289960     0.227982341448     1.007825032070
           N         -1.448580339451    -0.562417289960     0.555849341448    14.003074004780
           C         -0.929705339451     0.707497710040     0.079205341448    12.000000000000
           H         -0.885471339451    -1.309147289960     0.197503341448     1.007825032070
           C          0.496407660549     0.893923710040     0.553106341448    12.000000000000
           H         -0.947174339451     0.809000710040    -1.006793658552     1.007825032070
           H         -1.537792339451     1.507225710040     0.490844341448     1.007825032070
           O          1.289148660549    -0.092642289960    -0.042994658552    15.994914619560
           H          0.859017660549     1.883551710040     0.275998341448     1.007825032070
           H          0.536145660549     0.806193710040     1.636600341448     1.007825032070
           C          0.648748660549    -0.816064289960    -1.045052658552    12.000000000000
           H          1.353239660549    -1.542660289960    -1.426428658552     1.007825032070
           H         -0.224122339451    -1.341066289960    -0.661059658552     1.007825032070
           H          0.331556660549    -0.170002289960    -1.861019658552     1.007825032070

  Charge       = 0
  Multiplicity = 1
  Basis Set: 6-31G*
  Basis Set:

    Orbital Energies (a.u.)
    -----------------------

    Doubly Occupied:

       1A    -20.556047     2A    -15.536338     3A    -11.267273
       4A    -11.263286     5A    -11.247275     6A     -1.386036
       7A     -1.194230     8A     -1.007153     9A     -0.928477
      10A     -0.820678    11A     -0.721223    12A     -0.690655
      13A     -0.631823    14A     -0.628419    15A     -0.595510
      16A     -0.547008    17A     -0.538482    18A     -0.527840
      19A     -0.447604    20A     -0.421258    21A     -0.378259

  @DF-RHF Final Energy:  -248.05337876769133

   => Energetics <=

    Nuclear Repulsion Energy =            205.5812109594682227
    One-Electron Energy =                -744.5994223236519929
    Two-Electron Energy =                 290.9648325964925561
    DFT Exchange-Correlation Energy =       0.0000000000000000
    Empirical Dispersion Energy =           0.0000000000000000
    PCM Polarization Energy =               0.0000000000000000
    EFP Energy =                            0.0000000000000000
    Total Energy =                       -248.0533787676912425

  Mulliken Charges: (a.u.)
   Center  Symbol    Alpha    Beta     Spin     Total
       1     H     0.33157  0.33157  0.00000  0.33686
       2     N     3.91992  3.91992  0.00000 -0.83984
       3     C     3.11177  3.11177  0.00000 -0.22354
       4     H     0.30787  0.30787  0.00000  0.38427
       5     C     2.97367  2.97367  0.00000  0.05266
       6     H     0.42356  0.42356  0.00000  0.15288
       7     H     0.40870  0.40870  0.00000  0.18261
       8     O     4.30933  4.30933  0.00000 -0.61867
       9     H     0.42556  0.42556  0.00000  0.14887
      10     H     0.41278  0.41278  0.00000  0.17443
      11     C     3.08382  3.08382  0.00000 -0.16763
      12     H     0.40654  0.40654  0.00000  0.18692
      13     H     0.46172  0.46172  0.00000  0.07655
      14     H     0.42319  0.42319  0.00000  0.15363

   Total alpha = 21.00000, Total beta = 21.00000, Total charge = -0.00000
