  ==> Input File <==

--------------------------------------------------------------------------
set {
	reference rhf
	basis 6-31G*
}

set_num_threads( 1 )
memory 2 gb

molecule MOL {
0 1

H	 2.409642	 0.182841	 5.896944
C	 1.984642	 -0.647859	 5.342117
C	 0.938150	 -0.164325	 4.339010
H	 2.798956	 -1.160385	 4.838577
H	 1.552100	 -1.338836	 6.060628
C	 0.313165	 -1.312599	 3.543601
H	 1.397107	 0.541936	 3.654791
H	 0.154290	 0.374606	 4.868924
C	 -0.751531	 -0.860938	 2.543755
H	 1.089433	 -1.851627	 3.012093
H	 -0.144294	 -2.016279	 4.235415
C	 -0.201952	 -0.113076	 1.337974
H	 -1.281951	 -1.728751	 2.154748
H	 -1.507260	 -0.248690	 3.030790
C	 -1.181045	 0.701995	 0.511084
O	 0.951916	 -0.174825	 1.036009
C	 -2.285934	 -0.139295	 -0.145128
H	 -0.603273	 1.217732	 -0.246485
H	 -1.634785	 1.453848	 1.154140
C	 -3.651768	 0.085446	 0.506485
H	 -2.346596	 0.110469	 -1.202272
H	 -2.034737	 -1.195320	 -0.088721
C	 -4.759797	 -0.746382	 -0.137905
H	 -3.908762	 1.140117	 0.445781
H	 -3.588286	 -0.154158	 1.565709
H	 -4.868882	 -0.505166	 -1.191300
H	 -4.548009	 -1.809175	 -0.062213
H	 -5.715422	 -0.564821	 0.343442

	symmetry c1
}
set optking {
	frozen_dihedral = ("
		10 6 3 2,
		16 12 15 17
	")
}

ee = energy('scf')
oeprop('DIPOLE', 'QUADRUPOLE', 'MULLIKEN_CHARGES')
f=open( 'psi4out.xyz', 'w' )
f.write( "28  " )
f.write( str(ee) + "\n" )
f.write( MOL.save_string_xyz() )
f.close()
--------------------------------------------------------------------------

    Molecular point group: c1

    Geometry (in Angstrom), charge = 0, multiplicity = 1:

       Center              X                  Y                   Z               Mass
    ------------   -----------------  -----------------  -----------------  -----------------
           H          3.274209856091     0.525973904338     4.001328080493     1.007825032070
           C          2.849209856091    -0.304726095662     3.446501080493    12.000000000000
           C          1.802717856091     0.178807904338     2.443394080493    12.000000000000
           H          3.663523856091    -0.817252095662     2.942961080493     1.007825032070
           H          2.416667856091    -0.995703095662     4.165012080493     1.007825032070
           C          1.177732856091    -0.969466095662     1.647985080493    12.000000000000
           H          2.261674856091     0.885068904338     1.759175080493     1.007825032070
           H          1.018857856091     0.717738904338     2.973308080493     1.007825032070
           C          0.113036856091    -0.517805095662     0.648139080493    12.000000000000
           H          1.954000856091    -1.508494095662     1.116477080493     1.007825032070
           H          0.720273856091    -1.673146095662     2.339799080493     1.007825032070
           C          0.662615856091     0.230056904338    -0.557641919507    12.000000000000
           H         -0.417383143909    -1.385618095662     0.259132080493     1.007825032070
           H         -0.642692143909     0.094442904338     1.135174080493     1.007825032070
           C         -0.316477143909     1.045127904338    -1.384531919507    12.000000000000
           O          1.816483856091     0.168307904338    -0.859606919507    15.994914619560
           C         -1.421366143909     0.203837904338    -2.040743919507    12.000000000000
           H          0.261294856091     1.560864904338    -2.142100919507     1.007825032070
           H         -0.770217143909     1.796980904338    -0.741475919507     1.007825032070
           C         -2.787200143909     0.428578904338    -1.389130919507    12.000000000000
           H         -1.482028143909     0.453601904338    -3.097887919507     1.007825032070
           H         -1.170169143909    -0.852187095662    -1.984336919507     1.007825032070
           C         -3.895229143909    -0.403249095662    -2.033520919507    12.000000000000
           H         -3.044194143909     1.483249904338    -1.449834919507     1.007825032070
           H         -2.723718143909     0.188974904338    -0.329906919507     1.007825032070
           H         -4.004314143909    -0.162033095662    -3.086915919507     1.007825032070
           H         -3.683441143909    -1.466042095662    -1.957828919507     1.007825032070
           H         -4.850854143909    -0.221688095662    -1.552173919507     1.007825032070

  Charge       = 0
  Multiplicity = 1
  Basis Set: 6-31G*
  Basis Set:

    Orbital Energies (a.u.)
    -----------------------

    Doubly Occupied:

       1A    -20.547911     2A    -11.322125     3A    -11.231693
       4A    -11.230428     5A    -11.227333     6A    -11.227238
       7A    -11.216923     8A    -11.216878     9A    -11.212598
      10A    -11.205925    11A     -1.393093    12A     -1.096967
      13A     -1.077371    14A     -1.021540    15A     -0.991704
      16A     -0.907021    17A     -0.874965    18A     -0.813022
      19A     -0.798237    20A     -0.724054    21A     -0.669640
      22A     -0.651933    23A     -0.626426    24A     -0.613551
      25A     -0.611300    26A     -0.592638    27A     -0.577660
      28A     -0.574044    29A     -0.545026    30A     -0.535127
      31A     -0.523493    32A     -0.515031    33A     -0.496879
      34A     -0.482055    35A     -0.479618    36A     -0.477420
      37A     -0.465420    38A     -0.463524    39A     -0.455568
      40A     -0.392786

  @DF-RHF Final Energy:  -426.16365590671671

   => Energetics <=

    Nuclear Repulsion Energy =            538.8492750423856705
    One-Electron Energy =               -1645.8535432317735285
    Two-Electron Energy =                 680.8406122826692126
    DFT Exchange-Correlation Energy =       0.0000000000000000
    Empirical Dispersion Energy =           0.0000000000000000
    PCM Polarization Energy =               0.0000000000000000
    EFP Energy =                            0.0000000000000000
    Total Energy =                       -426.1636559067186454

  Mulliken Charges: (a.u.)
   Center  Symbol    Alpha    Beta     Spin     Total
       1     H     0.41928  0.41928  0.00000  0.16144
       2     C     3.24014  3.24014  0.00000 -0.48029
       3     C     3.15644  3.15644  0.00000 -0.31288
       4     H     0.41825  0.41825  0.00000  0.16350
       5     H     0.42360  0.42360  0.00000  0.15279
       6     C     3.14874  3.14874  0.00000 -0.29747
       7     H     0.41038  0.41038  0.00000  0.17924
       8     H     0.42767  0.42767  0.00000  0.14467
       9     C     3.21172  3.21172  0.00000 -0.42344
      10     H     0.40654  0.40654  0.00000  0.18692
      11     H     0.42197  0.42197  0.00000  0.15605
      12     C     2.73499  2.73499  0.00000  0.53001
      13     H     0.40350  0.40350  0.00000  0.19300
      14     H     0.41270  0.41270  0.00000  0.17460
      15     C     3.20319  3.20319  0.00000 -0.40639
      16     O     4.26664  4.26664  0.00000 -0.53328
      17     C     3.16334  3.16334  0.00000 -0.32668
      18     H     0.39752  0.39752  0.00000  0.20497
      19     H     0.41027  0.41027  0.00000  0.17946
      20     C     3.15663  3.15663  0.00000 -0.31326
      21     H     0.41122  0.41122  0.00000  0.17755
      22     H     0.41617  0.41617  0.00000  0.16767
      23     C     3.24045  3.24045  0.00000 -0.48089
      24     H     0.41958  0.41958  0.00000  0.16085
      25     H     0.42120  0.42120  0.00000  0.15759
      26     H     0.41970  0.41970  0.00000  0.16060
      27     H     0.42078  0.42078  0.00000  0.15844
      28     H     0.41738  0.41738  0.00000  0.16524

   Total alpha = 40.00000, Total beta = 40.00000, Total charge =  0.00000
