  ==> Input File <==

--------------------------------------------------------------------------
set {
	reference rhf
	basis cc-pvtz
}

set_num_threads( 4 )
memory 2 gb

molecule MOL {
0 1

H	 -2.816458	 -0.841657	 -0.064679
N	 -1.878861	 -0.711874	 0.250184
C	 -1.341419	 0.551458	 -0.220231
H	 -1.333674	 -1.468530	 -0.105118
C	 0.082190	 0.731516	 0.254705
H	 -1.357065	 0.652078	 -1.304747
H	 -1.939897	 1.357530	 0.189797
O	 0.131438	 1.819731	 1.127099
H	 0.419143	 -0.170874	 0.762964
H	 0.733120	 0.905104	 -0.599159
C	 1.404744	 2.134729	 1.583923
H	 1.319379	 2.982895	 2.247785
H	 1.847036	 1.305504	 2.132063
H	 2.068218	 2.397242	 0.763282

	symmetry c1
}
set optking {
	frozen_dihedral = ("
		8 5 3 6
	")
}

ee = optimize('scf')
oeprop('DIPOLE', 'QUADRUPOLE', 'MULLIKEN_CHARGES')
f=open( 'psi4out.xyz', 'w' )
f.write( "14  " )
f.write( str(ee) + "\n" )
f.write( MOL.save_string_xyz() )
f.close()
--------------------------------------------------------------------------

    Molecular point group: c1
  Charge       = 0
  Multiplicity = 1
  Basis Set: CC-PVTZ
  Basis Set:
  @DF-RHF Final Energy:  -248.21711295327634
    Total Energy =                       -248.2171129532761142
    Molecular point group: c1
  Basis Set: CC-PVTZ
  Basis Set:
  Basis Set: CC-PVTZ
  Basis Set:
  @DF-RHF Final Energy:  -248.21771749956483
    Total Energy =                       -248.2177174995646283
  Basis Set: CC-PVTZ
  Basis Set:
  Basis Set: CC-PVTZ
  Basis Set:
  @DF-RHF Final Energy:  -248.21792086929946
    Total Energy =                       -248.2179208692995189
  Basis Set: CC-PVTZ
  Basis Set:
  Basis Set: CC-PVTZ
  Basis Set:
  @DF-RHF Final Energy:  -248.21794297153664
    Total Energy =                       -248.2179429715365586
  Basis Set: CC-PVTZ
  Basis Set:
  Charge       = 0
  Multiplicity = 1
  Basis Set: CC-PVTZ
  Basis Set:

    Orbital Energies (a.u.)
    -----------------------

    Doubly Occupied:

       1A    -20.546860     2A    -15.530476     3A    -11.263124
       4A    -11.260246     5A    -11.240121     6A     -1.380766
       7A     -1.179514     8A     -0.997564     9A     -0.900296
      10A     -0.824021    11A     -0.678342    12A     -0.673793
      13A     -0.645195    14A     -0.619275    15A     -0.609919
      16A     -0.533949    17A     -0.528054    18A     -0.501371
      19A     -0.468897    20A     -0.415129    21A     -0.388158

  @DF-RHF Final Energy:  -248.21794516446923

   => Energetics <=

    Nuclear Repulsion Energy =            191.3844778513138465
    One-Electron Energy =                -716.8346996952608379
    Two-Electron Energy =                 277.2322766794779909
    DFT Exchange-Correlation Energy =       0.0000000000000000
    Empirical Dispersion Energy =           0.0000000000000000
    PCM Polarization Energy =               0.0000000000000000
    EFP Energy =                            0.0000000000000000
    Total Energy =                       -248.2179451644690289
    Molecular point group: c1
  Basis Set: CC-PVTZ
  Basis Set:

  -Total Gradient:
     Atom            X                  Y                   Z
    ------   -----------------  -----------------  -----------------
       1       -0.000062766793    -0.000030424017    -0.000025042612
       2        0.000032497107    -0.000021626014     0.000071568254
       3        0.000156515788    -0.000654204913    -0.000231430267
       4        0.000004641113    -0.000065962409    -0.000033166328
       5       -0.000099634006    -0.000193982752     0.000625821909
       6       -0.000103743517     0.000674453523     0.000089479185
       7        0.000019406940     0.000023247935    -0.000000915125
       8        0.000082451369     0.000322821099    -0.000433012125
       9       -0.000020769473     0.000001202669    -0.000007049759
      10        0.000003726534    -0.000010940388    -0.000030067416
      11        0.000012321761    -0.000065777049     0.000001520665
      12       -0.000036498872    -0.000002938755    -0.000028744052
      13        0.000007790785     0.000004967114     0.000009425936
      14        0.000004061267     0.000019163962    -0.000008388264

  **** Optimization is complete! (in 5 steps) ****
    Final optimized geometry and variables:
    Molecular point group: c1

    Geometry (in Angstrom), charge = 0, multiplicity = 1:

    H           -2.532798452764    -1.710455423897    -0.514845151279
    N           -1.553699749064    -1.639377651108    -0.335546076298
    C           -1.029166786820    -0.373714423497    -0.827178442272
    H           -1.117284188942    -2.412620216311    -0.792871007835
    C            0.408804421518    -0.138829469441    -0.361607875587
    H           -1.080743144933    -0.287016564491    -1.910971719193
    H           -1.632694815707     0.423475396696    -0.417158282485
    O            0.445350604513     0.955052754141     0.502947464527
    H            0.773899514702    -1.028007316484     0.146628711655
    H            1.063328184686     0.050391837106    -1.211138063196
    C            1.705313494572     1.236354338926     1.013070661847
    H            1.615633567996     2.096002575110     1.661306670453
    H            2.097388964057     0.401946432068     1.590474223308
    H            2.414554393230     1.468703334015     0.220844304971

  Mulliken Charges: (a.u.)
   Center  Symbol    Alpha    Beta     Spin     Total
       1     H     0.42855  0.42855  0.00000  0.14290
       2     N     3.68846  3.68846  0.00000 -0.37693
       3     C     3.03449  3.03449  0.00000 -0.06897
       4     H     0.43194  0.43194  0.00000  0.13612
       5     C     2.95886  2.95886  0.00000  0.08227
       6     H     0.46467  0.46467  0.00000  0.07065
       7     H     0.44850  0.44850  0.00000  0.10299
       8     O     4.17205  4.17205  0.00000 -0.34409
       9     H     0.47366  0.47366  0.00000  0.05268
      10     H     0.47760  0.47760  0.00000  0.04480
      11     C     3.02959  3.02959  0.00000 -0.05917
      12     H     0.44696  0.44696  0.00000  0.10608
      13     H     0.47134  0.47134  0.00000  0.05733
      14     H     0.47333  0.47333  0.00000  0.05334

   Total alpha = 21.00000, Total beta = 21.00000, Total charge =  0.00000
