                              Psi4 1.0.54 Driver

  ==> Input File <==

--------------------------------------------------------------------------
set {
	reference rhf
	basis cc-pvtz
}

set_num_threads( 4 )
memory 2 gb

molecule MOL {
0 1

O	 1.120635	 1.349648	 0.847321
C	 -0.039027	 1.271684	 0.623247
C	 -1.010945	 2.412921	 0.730034
O	 -0.637375	 0.157174	 0.243149
H	 -1.781636	 2.167842	 1.449542
H	 -0.488610	 3.304878	 1.035346
H	 -1.492585	 2.571261	 -0.226272
C	 0.162530	 -1.009518	 0.097799
C	 1.587210	 -0.664190	 0.477086
H	 0.096803	 -1.356267	 -0.924704
H	 -0.233803	 -1.785900	 0.736810
C	 2.256770	 0.342732	 -0.454344
H	 2.154716	 -1.590834	 0.479041
H	 1.598751	 -0.289614	 1.496104
C	 3.698146	 0.643205	 -0.057145
H	 2.235038	 -0.042575	 -1.470299
H	 1.683491	 1.262594	 -0.461300
H	 4.150202	 1.356548	 -0.736242
H	 4.305463	 -0.255904	 -0.069842
H	 3.749130	 1.061068	 0.942759

	symmetry c1
}
set optking {
	frozen_dihedral = ("
		2 4 8 10
	")
}

ee,wfn = optimize('scf', return_wfn=True)
oeprop( wfn, 'DIPOLE', 'QUADRUPOLE', 'MULLIKEN_CHARGES')
f=open( 'psi4out.xyz', 'w' )
f.write( "20  " )
f.write( str(ee) + "\n" )
f.write( MOL.save_string_xyz() )
f.close()
--------------------------------------------------------------------------

    Molecular point group: c1
  Charge       = 0
  Multiplicity = 1
  Basis Set: CC-PVTZ
  Basis Set:
  @DF-RHF Final Energy:  -383.93770626565231
    Total Energy =                       -383.9377062656525368
    Molecular point group: c1
  Basis Set: CC-PVTZ
  Basis Set:
  Basis Set: CC-PVTZ
  Basis Set:
  @DF-RHF Final Energy:  -383.99513160224666
    Total Energy =                       -383.9951316022464880
  Basis Set: CC-PVTZ
  Basis Set:
  Basis Set: CC-PVTZ
  Basis Set:
  @DF-RHF Final Energy:  -383.94278254898734
    Total Energy =                       -383.9427825489873385
  Basis Set: CC-PVTZ
  Basis Set:
  Basis Set: CC-PVTZ
  Basis Set:
  @DF-RHF Final Energy:  -384.02847973704303
    Total Energy =                       -384.0284797370431988
  Basis Set: CC-PVTZ
  Basis Set:
  @DF-RHF Final Energy:  -384.06251957355585
    Total Energy =                       -384.0625195735560737
  @DF-RHF Final Energy:  -384.06701376377583
    Total Energy =                       -384.0670137637756625
  @DF-RHF Final Energy:  -384.06949502299523
    Total Energy =                       -384.0694950229951701
  @DF-RHF Final Energy:  -384.06755989642198
    Total Energy =                       -384.0675598964222672
  @DF-RHF Final Energy:  -384.07175138416665
    Total Energy =                       -384.0717513841671007
  @DF-RHF Final Energy:  -384.07238779641153
    Total Energy =                       -384.0723877964114763
  @DF-RHF Final Energy:  -384.07270286639596
    Total Energy =                       -384.0727028663956162
  @DF-RHF Final Energy:  -384.07282499045527
    Total Energy =                       -384.0728249904550466
  @DF-RHF Final Energy:  -384.07289573205014
    Total Energy =                       -384.0728957320503696
  @DF-RHF Final Energy:  -384.07293631543104
    Total Energy =                       -384.0729363154302973
  Basis Set: CC-PVTZ
  Basis Set:
  @DF-RHF Final Energy:  -384.07295527169947
    Total Energy =                       -384.0729552716996977
  Basis Set: CC-PVTZ
  Basis Set:
  Basis Set: CC-PVTZ
  Basis Set:
  @DF-RHF Final Energy:  -384.07296257243280
    Total Energy =                       -384.0729625724326297
  Basis Set: CC-PVTZ
  Basis Set:
  Basis Set: CC-PVTZ
  Basis Set:
  @DF-RHF Final Energy:  -384.07296630033676
    Total Energy =                       -384.0729663003362475
  Basis Set: CC-PVTZ
  Basis Set:
  Charge       = 0
  Multiplicity = 1
  Basis Set: CC-PVTZ
  Basis Set:

    Orbital Energies (a.u.)
    -----------------------

    Doubly Occupied:

       1A    -20.591140     2A    -20.528929     3A    -11.369127
       4A    -11.288208     5A    -11.228615     6A    -11.217926
       7A    -11.208893     8A    -11.202522     9A     -1.462996
      10A     -1.365264    11A     -1.081343    12A     -1.025993
      13A     -0.978423    14A     -0.895416    15A     -0.811628
      16A     -0.744263    17A     -0.688125    18A     -0.681231
      19A     -0.675118    20A     -0.627736    21A     -0.604823
      22A     -0.589563    23A     -0.566493    24A     -0.559664
      25A     -0.540539    26A     -0.525254    27A     -0.516758
      28A     -0.476514    29A     -0.469708    30A     -0.465055
      31A     -0.441810    32A     -0.432481

  @DF-RHF Final Energy:  -384.07296720570702

   => Energetics <=

    Nuclear Repulsion Energy =            395.1228865565697674
    One-Electron Energy =               -1306.6685927389246444
    Two-Electron Energy =                 527.4727389766475198
    DFT Exchange-Correlation Energy =       0.0000000000000000
    Empirical Dispersion Energy =           0.0000000000000000
    PCM Polarization Energy =               0.0000000000000000
    EFP Energy =                            0.0000000000000000
    Total Energy =                       -384.0729672057074140
    Molecular point group: c1
  Basis Set: CC-PVTZ
  Basis Set:

  -Total Gradient:
     Atom            X                  Y                   Z
    ------   -----------------  -----------------  -----------------
       1       -0.000046244520    -0.000065898347    -0.000047480356
       2       -0.000182235172     0.001079590723    -0.001055817427
       3       -0.000015147578    -0.000015852947    -0.000003885573
       4        0.000519251467    -0.001309735409     0.001760744186
       5        0.000007106520     0.000004090372    -0.000006464399
       6       -0.000006838525     0.000003158629     0.000000658113
       7        0.000008596461     0.000001087990     0.000002576014
       8       -0.000978559616    -0.001046912973    -0.000603508586
       9       -0.000019686233     0.000012095254     0.000015949895
      10        0.000713338296     0.001317690641    -0.000052844594
      11       -0.000001185952     0.000011606999     0.000002198663
      12       -0.000012425319     0.000015151032     0.000005833102
      13        0.000002350577     0.000008163286    -0.000001396095
      14       -0.000002962180    -0.000001386085    -0.000006783764
      15        0.000013095523    -0.000015122985     0.000009543647
      16       -0.000003395992     0.000002211319     0.000008402837
      17        0.000023140585    -0.000011029536    -0.000022628441
      18       -0.000002095914    -0.000001978911     0.000005833464
      19       -0.000014119750     0.000016967129     0.000004768984
      20       -0.000001982675    -0.000003896181    -0.000015699669

  **** Optimization is complete! (in 18 steps) ****
    Final optimized geometry and variables:
    Molecular point group: c1

    Geometry (in Angstrom), charge = 0, multiplicity = 1:

    O           -0.282131066761     0.860340829616     1.196672853327
    C           -1.256537518545     0.271195338589     0.875056007674
    C           -2.635863965405     0.596190225613     1.384303983996
    O           -1.306963829745    -0.750188203135     0.044650324308
    H           -3.061280525108    -0.274341721864     1.866156252164
    H           -2.578870525207     1.417092302288     2.080538456728
    H           -3.277285783576     0.857133113964     0.552385473015
    C           -0.240571611244    -1.355943860358    -0.695673022606
    C            1.194665471383    -0.876591469758    -0.518946121762
    H           -0.525518354731    -1.249023218368    -1.734130186353
    H           -0.304046676904    -2.402801036573    -0.436873189750
    C            1.552251279365     0.403363182438    -1.270543608294
    H            1.803511025942    -1.686203909542    -0.916377634249
    H            1.441531028868    -0.786300607061     0.528203656114
    C            3.007375922807     0.808519044288    -1.062163608283
    H            1.369516420732     0.250638503979    -2.331782965287
    H            0.908979963810     1.210712408192    -0.950445925827
    H            3.248132769205     1.702526518067    -1.625582025268
    H            3.686162359993     0.023786559620    -1.381280222674
    H            3.204483021209     1.013509301111    -0.015916414404

  Mulliken Charges: (a.u.)
   Center  Symbol    Alpha    Beta     Spin     Total
       1     O     4.20028  4.20028  0.00000 -0.40055
       2     C     2.80740  2.80740  0.00000  0.38519
       3     C     3.13268  3.13268  0.00000 -0.26536
       4     O     4.15848  4.15848  0.00000 -0.31697
       5     H     0.44614  0.44614  0.00000  0.10771
       6     H     0.43919  0.43919  0.00000  0.12161
       7     H     0.44702  0.44702  0.00000  0.10597
       8     C     2.97926  2.97926  0.00000  0.04148
       9     C     3.11283  3.11283  0.00000 -0.22566
      10     H     0.45649  0.45649  0.00000  0.08701
      11     H     0.44725  0.44725  0.00000  0.10551
      12     C     3.07889  3.07889  0.00000 -0.15778
      13     H     0.44651  0.44651  0.00000  0.10698
      14     H     0.43632  0.43632  0.00000  0.12737
      15     C     3.15242  3.15242  0.00000 -0.30483
      16     H     0.45749  0.45749  0.00000  0.08501
      17     H     0.44478  0.44478  0.00000  0.11045
      18     H     0.44900  0.44900  0.00000  0.10200
      19     H     0.45809  0.45809  0.00000  0.08381
      20     H     0.44947  0.44947  0.00000  0.10105

   Total alpha = 32.00000, Total beta = 32.00000, Total charge =  0.00000

*** Psi4 exiting successfully. Buy a developer a beer!
