  ==> Input File <==

--------------------------------------------------------------------------
set {
	reference rhf
	basis 6-31G*
}

set_num_threads( 4 )
memory 2 gb

molecule MOL {
0 1

O	 3.225979	 0.970355	 -0.599647
C	 2.701189	 0.057885	 -0.047330
C	 1.245376	 -0.013843	 0.345420
O	 3.347903	 -1.046386	 0.304773
C	 0.455112	 1.231400	 -0.050772
H	 0.838542	 -0.913825	 -0.103701
H	 1.208210	 -0.175333	 1.419774
C	 -0.998893	 1.219485	 0.433193
H	 0.482531	 1.345121	 -1.130325
H	 0.957290	 2.103070	 0.354729
C	 -1.358899	 0.060077	 1.366617
H	 -1.644432	 1.174998	 -0.440893
H	 -1.224507	 2.163735	 0.926649
C	 -2.844190	 0.030174	 1.732697
H	 -1.087148	 -0.880522	 0.889916
H	 -0.773095	 0.119531	 2.281095
C	 -3.214541	 -1.121227	 2.669313
H	 -3.437559	 -0.042790	 0.822849
H	 -3.119040	 0.974650	 2.199733
C	 -4.700198	 -1.146204	 3.026943
H	 -2.939642	 -2.065737	 2.204583
H	 -2.625590	 -1.047522	 3.581171
H	 -4.931382	 -1.972903	 3.691569
H	 -5.315572	 -1.254395	 2.138233
H	 -4.999126	 -0.228056	 3.524860
C	 4.728119	 -1.109107	 -0.004993
H	 4.882018	 -1.033965	 -1.071845
H	 5.068212	 -2.067527	 0.355250
H	 5.265056	 -0.311663	 0.488280

	symmetry c1
}
set optking {
	frozen_dihedral = ("
		11 8 5 9
	")
}

ee = optimize('scf')
oeprop('DIPOLE', 'QUADRUPOLE', 'MULLIKEN_CHARGES')
f=open( 'psi4out.xyz', 'w' )
f.write( "29  " )
f.write( str(ee) + "\n" )
f.write( MOL.save_string_xyz() )
f.close()
--------------------------------------------------------------------------

    Molecular point group: c1
  Charge       = 0
  Multiplicity = 1
  Basis Set: 6-31G*
  Basis Set:
  @DF-RHF Final Energy:  -501.03357319930228
    Total Energy =                       -501.0335731993025092
    Molecular point group: c1
  Basis Set: 6-31G*
  Basis Set:
  Basis Set: 6-31G*
  Basis Set:
  @DF-RHF Final Energy:  -501.03373256604107
    Total Energy =                       -501.0337325660406123
  Basis Set: 6-31G*
  Basis Set:
  Basis Set: 6-31G*
  Basis Set:
  @DF-RHF Final Energy:  -501.03575705532228
    Total Energy =                       -501.0357570553220512
  Basis Set: 6-31G*
  Basis Set:
  Basis Set: 6-31G*
  Basis Set:
  @DF-RHF Final Energy:  -501.03591665355896
    Total Energy =                       -501.0359166535585018
  Basis Set: 6-31G*
  Basis Set:
  Basis Set: 6-31G*
  Basis Set:
  @DF-RHF Final Energy:  -501.03572153966581
    Total Energy =                       -501.0357215396669517
  Basis Set: 6-31G*
  Basis Set:
  Basis Set: 6-31G*
  Basis Set:
  @DF-RHF Final Energy:  -501.03589482085806
    Total Energy =                       -501.0358948208584025
  Basis Set: 6-31G*
  Basis Set:
  Basis Set: 6-31G*
  Basis Set:
  @DF-RHF Final Energy:  -501.03593073099569
    Total Energy =                       -501.0359307309953465
  Basis Set: 6-31G*
  Basis Set:
  Charge       = 0
  Multiplicity = 1
  Basis Set: 6-31G*
  Basis Set:

    Orbital Energies (a.u.)
    -----------------------

    Doubly Occupied:

       1A    -20.603061     2A    -20.545034     3A    -11.371692
       4A    -11.280488     5A    -11.234546     6A    -11.219214
       7A    -11.217762     8A    -11.216977     9A    -11.216268
      10A    -11.214800    11A    -11.209359    12A     -1.468822
      13A     -1.362270    14A     -1.095898    15A     -1.065824
      16A     -1.018380    17A     -0.976792    18A     -0.928270
      19A     -0.864774    20A     -0.799033    21A     -0.791344
      22A     -0.758814    23A     -0.698405    24A     -0.683393
      25A     -0.670222    26A     -0.657552    27A     -0.629188
      28A     -0.602543    29A     -0.590836    30A     -0.579896
      31A     -0.566125    32A     -0.553375    33A     -0.531057
      34A     -0.523644    35A     -0.521171    36A     -0.512120
      37A     -0.501007    38A     -0.479914    39A     -0.467498
      40A     -0.459887    41A     -0.457471    42A     -0.449635
      43A     -0.439995    44A     -0.437149

  @DF-RHF Final Energy:  -501.03593022926020

   => Energetics <=

    Nuclear Repulsion Energy =            612.1722466212484051
    One-Electron Energy =               -1895.4733361513613090
    Two-Electron Energy =                 782.2651593008530426
    DFT Exchange-Correlation Energy =       0.0000000000000000
    Empirical Dispersion Energy =           0.0000000000000000
    PCM Polarization Energy =               0.0000000000000000
    EFP Energy =                            0.0000000000000000
    Total Energy =                       -501.0359302292598613
    Molecular point group: c1
  Basis Set: 6-31G*
  Basis Set:

  -Total Gradient:
     Atom            X                  Y                   Z
    ------   -----------------  -----------------  -----------------
       1        0.000046192398    -0.000000338927     0.000024473521
       2       -0.000044006587    -0.000022666126    -0.000070847455
       3        0.000072533831     0.000084869720     0.000036629790
       4        0.000004891807     0.000024732346    -0.000015148655
       5       -0.000161636601     0.002851855878    -0.000313465820
       6       -0.000029666954     0.000004847798     0.000011585405
       7        0.000027199417     0.000014928752    -0.000029981961
       8        0.000602194584     0.001031929507     0.002327251166
       9        0.000033479942    -0.002770130478    -0.000291326630
      10        0.000048402946    -0.000055928859    -0.000031992153
      11       -0.000521850043    -0.001188811979    -0.001705714694
      12       -0.000068325707    -0.000000477183     0.000039099202
      13        0.000002843337    -0.000021340840     0.000016012892
      14       -0.000002404493     0.000016943957    -0.000007097790
      15        0.000026607065     0.000016390431    -0.000015641918
      16       -0.000035183121     0.000019885916    -0.000002503583
      17        0.000001408947     0.000017309483     0.000010315443
      18       -0.000010629265    -0.000002366507     0.000012020148
      19       -0.000000013867     0.000007882027    -0.000005103481
      20       -0.000004904084    -0.000016632632    -0.000001397037
      21        0.000004974926     0.000001573233     0.000005334297
      22       -0.000007289756     0.000001404192     0.000007646913
      23       -0.000008708343    -0.000003446273    -0.000000831027
      24       -0.000000970766     0.000002696156    -0.000000203166
      25        0.000005936219    -0.000004668670    -0.000001288112
      26        0.000009439873    -0.000011302751     0.000003838110
      27       -0.000000815875     0.000000701226     0.000001589772
      28        0.000009787485     0.000000586946    -0.000002138896
      29        0.000000512685    -0.000000426343    -0.000001114277

  **** Optimization is complete! (in 8 steps) ****
    Final optimized geometry and variables:
    Molecular point group: c1

    Geometry (in Angstrom), charge = 0, multiplicity = 1:

    O            2.945522955121     1.097041112929    -1.490950253852
    C            2.494763006022     0.169843088253    -0.899083073951
    C            1.068043807893     0.034060508615    -0.422642326185
    O            3.211591211983    -0.897952908639    -0.570144756807
    C            0.208321592417     1.242978650788    -0.796280639266
    H            0.678978879962    -0.886050347925    -0.846925448374
    H            1.106540403980    -0.126261881549     0.649608642620
    C           -1.281287413467     1.184331809775    -0.358167453046
    H            0.256708245368     1.346758720302    -1.873875621881
    H            0.678626163027     2.129586746455    -0.388530792650
    C           -1.706825785219     0.045949248232     0.576689687061
    H           -1.901304237813     1.124662209104    -1.248897385455
    H           -1.540337329355     2.128081670447     0.113106621223
    C           -3.194849856793     0.113760915016     0.927564261590
    H           -1.497737096984    -0.915848776860     0.115387123364
    H           -1.127243226953     0.078693357890     1.496958018173
    C           -3.648866423851    -1.011724163326     1.859003535696
    H           -3.782824433885     0.080085516500     0.011816052761
    H           -3.412221571918     1.073716360000     1.392866950662
    C           -5.136565289430    -0.939735126982     2.201606307995
    H           -3.431836523794    -1.972108589470     1.396093775640
    H           -3.065671589837    -0.977167315448     2.776804024471
    H           -5.428118605548    -1.750197111075     2.862487819513
    H           -5.748677169828    -1.006422910477     1.306572996526
    H           -5.379701139296    -0.004510933983     2.698025230156
    C            4.573765471055    -0.901387424082    -0.956397655638
    H            4.664376104290    -0.835373903472    -2.031095532934
    H            4.978196296730    -1.837456719520    -0.603921351492
    H            5.099267292128    -0.072559843469    -0.504250822030

  Mulliken Charges: (a.u.)
   Center  Symbol    Alpha    Beta     Spin     Total
       1     O     4.28602  4.28602  0.00000 -0.57204
       2     C     2.60442  2.60442  0.00000  0.79115
       3     C     3.21152  3.21152  0.00000 -0.42303
       4     O     4.30770  4.30770  0.00000 -0.61539
       5     C     3.15676  3.15676  0.00000 -0.31352
       6     H     0.40022  0.40022  0.00000  0.19956
       7     H     0.39933  0.39933  0.00000  0.20135
       8     C     3.15760  3.15760  0.00000 -0.31520
       9     H     0.40945  0.40945  0.00000  0.18110
      10     H     0.40915  0.40915  0.00000  0.18170
      11     C     3.15703  3.15703  0.00000 -0.31406
      12     H     0.41993  0.41993  0.00000  0.16013
      13     H     0.41839  0.41839  0.00000  0.16321
      14     C     3.15017  3.15017  0.00000 -0.30035
      15     H     0.42310  0.42310  0.00000  0.15381
      16     H     0.42359  0.42359  0.00000  0.15282
      17     C     3.15134  3.15134  0.00000 -0.30268
      18     H     0.42353  0.42353  0.00000  0.15294
      19     H     0.42334  0.42334  0.00000  0.15331
      20     C     3.23934  3.23934  0.00000 -0.47869
      21     H     0.42326  0.42326  0.00000  0.15347
      22     H     0.42316  0.42316  0.00000  0.15368
      23     H     0.41921  0.41921  0.00000  0.16158
      24     H     0.42164  0.42164  0.00000  0.15671
      25     H     0.42158  0.42158  0.00000  0.15683
      26     C     3.09230  3.09230  0.00000 -0.18459
      27     H     0.40918  0.40918  0.00000  0.18164
      28     H     0.40854  0.40854  0.00000  0.18293
      29     H     0.40918  0.40918  0.00000  0.18163

   Total alpha = 44.00000, Total beta = 44.00000, Total charge =  0.00000
