  ==> Input File <==

--------------------------------------------------------------------------
set {
	reference rhf
	basis 6-31G*
}

set_num_threads( 4 )
memory 2 gb

molecule MOL {
0 1

O	 2.814081	 1.432345	 -0.269054
C	 2.691951	 0.400274	 -0.854436
C	 1.399250	 -0.395545	 -0.831298
C	 3.829437	 -0.186470	 -1.664999
C	 0.291004	 0.242674	 0.000989
H	 1.075200	 -0.534726	 -1.861836
H	 1.629600	 -1.394811	 -0.464133
C	 -0.994322	 -0.586602	 0.000262
H	 0.088198	 1.238415	 -0.380454
H	 0.643074	 0.377176	 1.018880
C	 -2.259874	 0.272531	 0.000494
H	 -1.004862	 -1.240012	 -0.870939
H	 -1.005220	 -1.241071	 0.870675
C	 -3.549786	 -0.549746	 -0.000374
H	 -2.250389	 0.926680	 -0.869574
H	 -2.250838	 0.925513	 0.871430
C	 -4.809590	 0.315458	 -0.000369
H	 -3.560515	 -1.202009	 -0.871156
H	 -3.561123	 -1.202955	 0.869711
H	 -4.844746	 0.956611	 -0.876632
H	 -5.706986	 -0.295590	 -0.001609
H	 -4.845960	 0.954827	 0.877144
H	 3.532736	 -0.306474	 -2.702874
H	 4.691004	 0.464205	 -1.608798
H	 4.093538	 -1.170816	 -1.289567

	symmetry c1
}
set optking {
	frozen_dihedral = ("
		9 5 8 12
	")
}

ee = optimize('scf')
oeprop('DIPOLE', 'QUADRUPOLE', 'MULLIKEN_CHARGES')
f=open( 'psi4out.xyz', 'w' )
f.write( "25  " )
f.write( str(ee) + "\n" )
f.write( MOL.save_string_xyz() )
f.close()
--------------------------------------------------------------------------

    Molecular point group: c1
  Charge       = 0
  Multiplicity = 1
  Basis Set: 6-31G*
  Basis Set:
  @DF-RHF Final Energy:  -387.13275115726839
    Total Energy =                       -387.1327511572683306
    Molecular point group: c1
  Basis Set: 6-31G*
  Basis Set:
  Basis Set: 6-31G*
  Basis Set:
  @DF-RHF Final Energy:  -387.13305088882839
    Total Energy =                       -387.1330508888285067
  Basis Set: 6-31G*
  Basis Set:
  Basis Set: 6-31G*
  Basis Set:
  @DF-RHF Final Energy:  -387.13277808834766
    Total Energy =                       -387.1327780883478908
  Basis Set: 6-31G*
  Basis Set:
  Basis Set: 6-31G*
  Basis Set:
  @DF-RHF Final Energy:  -387.13311842131350
    Total Energy =                       -387.1331184213132701
  Basis Set: 6-31G*
  Basis Set:
  Basis Set: 6-31G*
  Basis Set:
  @DF-RHF Final Energy:  -387.13310851584669
    Total Energy =                       -387.1331085158465157
  Basis Set: 6-31G*
  Basis Set:
  Basis Set: 6-31G*
  Basis Set:
  @DF-RHF Final Energy:  -387.13312555513397
    Total Energy =                       -387.1331255551344839
  Basis Set: 6-31G*
  Basis Set:
  Charge       = 0
  Multiplicity = 1
  Basis Set: 6-31G*
  Basis Set:

    Orbital Energies (a.u.)
    -----------------------

    Doubly Occupied:

       1A    -20.550603     2A    -11.326298     3A    -11.232395
       4A    -11.228405     5A    -11.216689     6A    -11.216111
       7A    -11.215494     8A    -11.214212     9A    -11.208576
      10A     -1.395842    11A     -1.092472    12A     -1.056431
      13A     -1.014017    14A     -0.969427    15A     -0.890810
      16A     -0.814964    17A     -0.791414    18A     -0.731059
      19A     -0.658609    20A     -0.649803    21A     -0.634333
      22A     -0.623279    23A     -0.596038    24A     -0.582264
      25A     -0.566702    26A     -0.562122    27A     -0.540110
      28A     -0.525380    29A     -0.514390    30A     -0.491655
      31A     -0.486171    32A     -0.473589    33A     -0.464727
      34A     -0.459328    35A     -0.448851    36A     -0.399484

  @DF-RHF Final Energy:  -387.13312557637744

   => Energetics <=

    Nuclear Repulsion Energy =            438.4298972170972775
    One-Electron Energy =               -1393.4419384936127244
    Two-Electron Energy =                 567.8789157001372132
    DFT Exchange-Correlation Energy =       0.0000000000000000
    Empirical Dispersion Energy =           0.0000000000000000
    PCM Polarization Energy =               0.0000000000000000
    EFP Energy =                            0.0000000000000000
    Total Energy =                       -387.1331255763782337
    Molecular point group: c1
  Basis Set: 6-31G*
  Basis Set:

  -Total Gradient:
     Atom            X                  Y                   Z
    ------   -----------------  -----------------  -----------------
       1        0.000000868090    -0.000008474093     0.000002660198
       2        0.000000500935     0.000006894096    -0.000014143860
       3       -0.000010808531     0.000012067259     0.000011898975
       4        0.000006488682     0.000002551338     0.000002669701
       5        0.001547074426    -0.002394300490    -0.004382664370
       6       -0.000000166283     0.000004979520     0.000007108714
       7       -0.000004734277     0.000001997780     0.000002158172
       8       -0.002619276505     0.004098157059    -0.001785171335
       9       -0.000861460931     0.001321044268     0.003924720735
      10        0.000006006456    -0.000000289431     0.000009646977
      11        0.000014299075    -0.000013506167     0.000007865192
      12        0.001925314046    -0.003016568770     0.002221869736
      13       -0.000004272596    -0.000009299397     0.000012206320
      14       -0.000005215351     0.000002714584    -0.000029923989
      15        0.000011002425    -0.000009720614     0.000001454759
      16       -0.000001563976     0.000001573669    -0.000003268122
      17       -0.000006666442    -0.000003662872     0.000021916097
      18        0.000000916987     0.000005963142    -0.000006735835
      19        0.000002161951    -0.000001385429    -0.000008936721
      20       -0.000000379682    -0.000009674728    -0.000002963870
      21       -0.000002594704     0.000001863481     0.000009696295
      22        0.000000492875     0.000009278429    -0.000003018184
      23       -0.000000920544    -0.000000247371     0.000001063492
      24        0.000002275262    -0.000001396607    -0.000000457207
      25        0.000000658607    -0.000000558655     0.000000348130

  **** Optimization is complete! (in 7 steps) ****
    Final optimized geometry and variables:
    Molecular point group: c1

    Geometry (in Angstrom), charge = 0, multiplicity = 1:

    O            2.900492564032     1.307064213945     0.172258599711
    C            2.788390356827     0.281359672266    -0.426230737345
    C            1.483781207999    -0.493850074738    -0.466917987731
    C            3.951147624711    -0.316933929754    -1.191224845583
    C            0.350031238573     0.153249931579     0.320399456310
    H            1.202699299345    -0.619670442404    -1.511555344124
    H            1.680852698707    -1.499904317017    -0.098280742358
    C           -0.943948410533    -0.679859086769     0.314742881862
    H            0.158512828781     1.152844159455    -0.056507266344
    H            0.677286800420     0.305871743142     1.343639772680
    C           -2.215096779101     0.167143223557     0.367173160916
    H           -0.966973663636    -1.335442213354    -0.554368303498
    H           -0.932363003965    -1.354464189871     1.169069230145
    C           -3.496636642662    -0.664565782949     0.435728510159
    H           -2.250918311958     0.813246794918    -0.508291382003
    H           -2.168521900715     0.828873110024     1.230564358121
    C           -4.762269217680     0.190963412189     0.481007672184
    H           -3.541000412598    -1.329101644399    -0.424795863794
    H           -3.463220743504    -1.305543757629     1.314157484560
    H           -4.844125981104     0.817177272996    -0.402931887663
    H           -5.653541164940    -0.426828165144     0.532057244310
    H           -4.762631743020     0.844480876787     1.348777160784
    H            3.698479211080    -0.424198659676    -2.242071249505
    H            4.819254774219     0.319738878064    -1.091970802696
    H            4.183461764203    -1.308170651131    -0.812901978296

  Mulliken Charges: (a.u.)
   Center  Symbol    Alpha    Beta     Spin     Total
       1     O     4.26105  4.26105  0.00000 -0.52210
       2     C     2.73607  2.73607  0.00000  0.52786
       3     C     3.21172  3.21172  0.00000 -0.42343
       4     C     3.28668  3.28668  0.00000 -0.57336
       5     C     3.15082  3.15082  0.00000 -0.30163
       6     H     0.40962  0.40962  0.00000  0.18075
       7     H     0.40959  0.40959  0.00000  0.18082
       8     C     3.15607  3.15607  0.00000 -0.31215
       9     H     0.41099  0.41099  0.00000  0.17801
      10     H     0.41032  0.41032  0.00000  0.17937
      11     C     3.15185  3.15185  0.00000 -0.30370
      12     H     0.42476  0.42476  0.00000  0.15048
      13     H     0.42175  0.42175  0.00000  0.15650
      14     C     3.15209  3.15209  0.00000 -0.30419
      15     H     0.42319  0.42319  0.00000  0.15362
      16     H     0.42136  0.42136  0.00000  0.15727
      17     C     3.23932  3.23932  0.00000 -0.47863
      18     H     0.42368  0.42368  0.00000  0.15265
      19     H     0.42295  0.42295  0.00000  0.15410
      20     H     0.42169  0.42169  0.00000  0.15663
      21     H     0.41945  0.41945  0.00000  0.16110
      22     H     0.42114  0.42114  0.00000  0.15772
      23     H     0.40872  0.40872  0.00000  0.18256
      24     H     0.39643  0.39643  0.00000  0.20714
      25     H     0.40870  0.40870  0.00000  0.18260

   Total alpha = 36.00000, Total beta = 36.00000, Total charge =  0.00000
