  ==> Input File <==

--------------------------------------------------------------------------
set {
	reference rhf
	basis 6-31G*
}

set_num_threads( 4 )
memory 2 gb

molecule MOL {
0 1

H	 2.652209	 0.763231	 0.000000
O	 2.263154	 -0.100023	 0.000000
C	 0.912879	 -0.015685	 0.000000
C	 0.236157	 -0.590971	 -1.067555
C	 0.207533	 0.614039	 1.012433
H	 0.802029	 -1.074371	 -1.842102
C	 -1.143110	 -0.530615	 -1.112142
H	 0.733197	 1.060069	 1.840235
C	 -1.177520	 0.667261	 0.954888
H	 -1.662546	 -0.977653	 -1.941014
C	 -1.861479	 0.097874	 -0.103250
H	 -1.717557	 1.158024	 1.744952
H	 -2.934415	 0.140851	 -0.144805

	symmetry c1
}
set optking {
	frozen_dihedral = ("
		4 3 2 1
	")
}

ee = optimize('scf')
oeprop('DIPOLE', 'QUADRUPOLE', 'MULLIKEN_CHARGES')
f=open( 'psi4out.xyz', 'w' )
f.write( "13  " )
f.write( str(ee) + "\n" )
f.write( MOL.save_string_xyz() )
f.close()
--------------------------------------------------------------------------

    Molecular point group: c1
  Charge       = 0
  Multiplicity = 1
  Basis Set: 6-31G*
  Basis Set:
  @DF-RHF Final Energy:  -305.55391120444250
    Total Energy =                       -305.5539112044424428
    Molecular point group: c1
  Basis Set: 6-31G*
  Basis Set:
  Basis Set: 6-31G*
  Basis Set:
  @DF-RHF Final Energy:  -305.55426085829572
    Total Energy =                       -305.5542608582954927
  Basis Set: 6-31G*
  Basis Set:
  Basis Set: 6-31G*
  Basis Set:
  @DF-RHF Final Energy:  -305.55429978540906
    Total Energy =                       -305.5542997854091141
  Basis Set: 6-31G*
  Basis Set:
  Basis Set: 6-31G*
  Basis Set:
  @DF-RHF Final Energy:  -305.55430365506646
    Total Energy =                       -305.5543036550661213
  Basis Set: 6-31G*
  Basis Set:
  Charge       = 0
  Multiplicity = 1
  Basis Set: 6-31G*
  Basis Set:

    Orbital Energies (a.u.)
    -----------------------

    Doubly Occupied:

       1A    -20.579380     2A    -11.290746     3A    -11.235493
       4A    -11.234351     5A    -11.227787     6A    -11.226487
       7A    -11.224837     8A     -1.395069     9A     -1.147545
      10A     -1.018115    11A     -1.003639    12A     -0.837696
      13A     -0.822828    14A     -0.732918    15A     -0.680863
      16A     -0.646160    17A     -0.624372    18A     -0.592041
      19A     -0.588524    20A     -0.527617    21A     -0.513549
      22A     -0.491733    23A     -0.469729    24A     -0.336928
      25A     -0.320489

  @DF-RHF Final Energy:  -305.55430443102318

   => Energetics <=

    Nuclear Repulsion Energy =            272.7435422061439567
    One-Electron Energy =                -955.0579028009199192
    Two-Electron Energy =                 376.7600561637526084
    DFT Exchange-Correlation Energy =       0.0000000000000000
    Empirical Dispersion Energy =           0.0000000000000000
    PCM Polarization Energy =               0.0000000000000000
    EFP Energy =                            0.0000000000000000
    Total Energy =                       -305.5543044310233540
    Molecular point group: c1
  Basis Set: 6-31G*
  Basis Set:

  -Total Gradient:
     Atom            X                  Y                   Z
    ------   -----------------  -----------------  -----------------
       1        0.000060754600    -0.000002074355    -0.001970878810
       2        0.000115745070     0.000598317964     0.002058545305
       3       -0.000346046072    -0.001777766060     0.000757690083
       4        0.000099489943     0.001201969836    -0.000812356810
       5        0.000134273919    -0.000011888551    -0.000035537614
       6       -0.000010568188     0.000000213174     0.000018285015
       7        0.000058737631    -0.000001551148    -0.000023174210
       8        0.000014366029    -0.000003470438     0.000012706813
       9       -0.000105213978    -0.000015788535    -0.000068326688
      10       -0.000023854796     0.000006640096     0.000010911929
      11        0.000000282768     0.000027999196     0.000085811637
      12        0.000008786740    -0.000012957676    -0.000008259583
      13       -0.000006753666    -0.000009643504    -0.000025417067

  **** Optimization is complete! (in 5 steps) ****
    Final optimized geometry and variables:
    Molecular point group: c1

    Geometry (in Angstrom), charge = 0, multiplicity = 1:

    H            2.654122351322     0.742123191558     0.067505917974
    O            2.271228154051    -0.124481229864     0.066489750103
    C            0.906990781753    -0.038958565159     0.032346179244
    C            0.230626102463    -0.613408463121    -1.030670051181
    C            0.206678548797     0.590654499024     1.048791504607
    H            0.794752182433    -1.095678048101    -1.807316186967
    C           -1.153106162711    -0.563589963078    -1.069251595318
    H            0.744299279810     1.021037460953     1.875202291271
    C           -1.176660030744     0.646726176362     0.996116224459
    H           -1.676959445796    -1.014021699037    -1.893451641037
    C           -1.862356958709     0.068950431351    -0.060236329704
    H           -1.717680298680     1.136466796730     1.786069041473
    H           -2.935976290922     0.109610640382    -0.096125473690

  Mulliken Charges: (a.u.)
   Center  Symbol    Alpha    Beta     Spin     Total
       1     H     0.27183  0.27183  0.00000  0.45635
       2     O     4.38647  4.38647  0.00000 -0.77294
       3     C     2.81286  2.81286  0.00000  0.37429
       4     C     3.11803  3.11803  0.00000 -0.23606
       5     C     3.12663  3.12663  0.00000 -0.25326
       6     H     0.39242  0.39242  0.00000  0.21515
       7     C     3.09564  3.09564  0.00000 -0.19128
       8     H     0.39789  0.39789  0.00000  0.20423
       9     C     3.09526  3.09526  0.00000 -0.19052
      10     H     0.39798  0.39798  0.00000  0.20404
      11     C     3.10710  3.10710  0.00000 -0.21419
      12     H     0.39817  0.39817  0.00000  0.20366
      13     H     0.39973  0.39973  0.00000  0.20053

   Total alpha = 25.00000, Total beta = 25.00000, Total charge = -0.00000
