                              Psi4 1.0.54 Driver

  ==> Input File <==

--------------------------------------------------------------------------
set {
	reference rhf
	basis cc-pvtz
}

set_num_threads( 4 )
memory 2 gb

molecule MOL {
0 1

H	 -1.778339	 1.131654	 0.149444
N	 -1.851927	 0.161443	 -0.071573
C	 -0.561396	 -0.500007	 0.035200
H	 -2.209435	 0.097405	 -1.001854
C	 0.575129	 0.507849	 -0.048832
H	 -0.478089	 -1.200753	 -0.788956
H	 -0.456191	 -1.081816	 0.952176
C	 1.951750	 -0.141983	 0.035101
H	 0.478254	 1.061643	 -0.975981
H	 0.467676	 1.231891	 0.755499
H	 2.101550	 -0.848142	 -0.774949
H	 2.738260	 0.600794	 -0.026526
H	 2.078939	 -0.679792	 0.968824

	symmetry c1
}
set optking {
	frozen_dihedral = ("
		1 2 3 6
	")
}

ee,wfn = optimize('scf', return_wfn=True)
oeprop( wfn, 'DIPOLE', 'QUADRUPOLE', 'MULLIKEN_CHARGES')
f=open( 'psi4out.xyz', 'w' )
f.write( "13  " )
f.write( str(ee) + "\n" )
f.write( MOL.save_string_xyz() )
f.close()
--------------------------------------------------------------------------

    Molecular point group: c1
  Charge       = 0
  Multiplicity = 1
  Basis Set: CC-PVTZ
  Basis Set:
  @DF-RHF Final Energy:  -173.34855954149407
    Total Energy =                       -173.3485595414942395
    Molecular point group: c1
  Basis Set: CC-PVTZ
  Basis Set:
  Basis Set: CC-PVTZ
  Basis Set:
  @DF-RHF Final Energy:  -173.34951382146133
    Total Energy =                       -173.3495138214612723
  Basis Set: CC-PVTZ
  Basis Set:
  Basis Set: CC-PVTZ
  Basis Set:
  @DF-RHF Final Energy:  -173.34967161760872
    Total Energy =                       -173.3496716176086636
  Basis Set: CC-PVTZ
  Basis Set:
  Basis Set: CC-PVTZ
  Basis Set:
  @DF-RHF Final Energy:  -173.34967385550789
    Total Energy =                       -173.3496738555078593
  Basis Set: CC-PVTZ
  Basis Set:
  Charge       = 0
  Multiplicity = 1
  Basis Set: CC-PVTZ
  Basis Set:

    Orbital Energies (a.u.)
    -----------------------

    Doubly Occupied:

       1A    -15.525297     2A    -11.238603     3A    -11.215744
       4A    -11.210239     5A     -1.177097     6A     -1.038797
       7A     -0.900574     8A     -0.807715     9A     -0.670596
      10A     -0.616764    11A     -0.606752    12A     -0.558119
      13A     -0.538897    14A     -0.504288    15A     -0.485283
      16A     -0.471229    17A     -0.380230

  @DF-RHF Final Energy:  -173.34967407004410

   => Energetics <=

    Nuclear Repulsion Energy =            131.8577406362024931
    One-Electron Energy =                -494.5223813295407922
    Two-Electron Energy =                 189.3149666232942252
    DFT Exchange-Correlation Energy =       0.0000000000000000
    Empirical Dispersion Energy =           0.0000000000000000
    PCM Polarization Energy =               0.0000000000000000
    EFP Energy =                            0.0000000000000000
    Total Energy =                       -173.3496740700440739
    Molecular point group: c1
  Basis Set: CC-PVTZ
  Basis Set:

  -Total Gradient:
     Atom            X                  Y                   Z
    ------   -----------------  -----------------  -----------------
       1        0.000387722616     0.000579417416    -0.002646252182
       2       -0.000232002571    -0.000284176327     0.002956937787
       3       -0.001064984727    -0.002085006754     0.001111913489
       4        0.000008459420    -0.000008811407     0.000012550457
       5       -0.000039779704    -0.000018156035    -0.000006118884
       6        0.000904980006     0.001803642261    -0.001450561191
       7        0.000008364275    -0.000002840732     0.000006931518
       8        0.000005369508     0.000011243572     0.000017297813
       9       -0.000003957446    -0.000001559323     0.000003005111
      10        0.000009209996     0.000008301531    -0.000006940794
      11       -0.000006335613     0.000006901957     0.000004078089
      12        0.000016830759    -0.000004346943     0.000002562239
      13        0.000006123484    -0.000004609218    -0.000005403452

  **** Optimization is complete! (in 5 steps) ****
    Final optimized geometry and variables:
    Molecular point group: c1

    Geometry (in Angstrom), charge = 0, multiplicity = 1:

    H           -1.849501665082     1.095485747992     0.194155197867
    N           -1.891760295243     0.122457577312    -0.023221919578
    C           -0.569157391374    -0.491455493069     0.038300830383
    H           -2.274471714832     0.055420721176    -0.941154862298
    C            0.586450623281     0.501765130685    -0.036799047353
    H           -0.473362445244    -1.193866060384    -0.782937116233
    H           -0.483610662295    -1.065390363494     0.955786123650
    C            1.952842258414    -0.166619777021     0.067281453220
    H            0.518025973602     1.056549590517    -0.968760661210
    H            0.478713778467     1.228924429544     0.764657970567
    H            2.104831849017    -0.875377833049    -0.740032061868
    H            2.751548461245     0.564069534315     0.019141298584
    H            2.054540824040    -0.706126187374     1.002807385128

  Mulliken Charges: (a.u.)
   Center  Symbol    Alpha    Beta     Spin     Total
       1     H     0.42966  0.42966  0.00000  0.14068
       2     N     3.69291  3.69291  0.00000 -0.38581
       3     C     3.01746  3.01746  0.00000 -0.03492
       4     H     0.42934  0.42934  0.00000  0.14131
       5     C     3.08485  3.08485  0.00000 -0.16970
       6     H     0.46089  0.46089  0.00000  0.07822
       7     H     0.45980  0.45980  0.00000  0.08039
       8     C     3.15286  3.15286  0.00000 -0.30572
       9     H     0.45760  0.45760  0.00000  0.08481
      10     H     0.45728  0.45728  0.00000  0.08545
      11     H     0.45531  0.45531  0.00000  0.08938
      12     H     0.44793  0.44793  0.00000  0.10414
      13     H     0.45411  0.45411  0.00000  0.09178

   Total alpha = 17.00000, Total beta = 17.00000, Total charge =  0.00000

*** Psi4 exiting successfully. Buy a developer a beer!
