                              Psi4 1.0.54 Driver

  ==> Input File <==

--------------------------------------------------------------------------
set {
	reference rhf
	basis cc-pvtz
}

set_num_threads( 4 )
memory 2 gb

molecule MOL {
0 1

H	 3.721907	 -0.933076	 -0.066039
O	 2.824271	 -1.154299	 0.131461
C	 2.076458	 -0.067370	 -0.038225
C	 0.626018	 -0.337582	 0.258241
O	 2.538288	 0.965419	 -0.381593
C	 -0.267326	 0.883135	 0.076490
H	 0.325620	 -1.161483	 -0.378003
H	 0.574537	 -0.713685	 1.275261
C	 -1.726822	 0.642622	 0.463839
H	 -0.210803	 1.217591	 -0.953497
H	 0.129920	 1.693110	 0.675679
C	 -1.972341	 -0.591175	 1.330733
H	 -2.305100	 0.542946	 -0.449896
H	 -2.116698	 1.522013	 0.971889
C	 -3.453697	 -0.838562	 1.596928
H	 -1.544335	 -1.461754	 0.840899
H	 -1.456930	 -0.490474	 2.280557
H	 -3.600400	 -1.719329	 2.211266
H	 -3.998118	 -0.986515	 0.670422
H	 -3.904123	 0.003001	 2.112723

	symmetry c1
}
set optking {
	frozen_dihedral = ("
		12 9 6 10
	")
}

ee,wfn = optimize('scf', return_wfn=True)
oeprop( wfn, 'DIPOLE', 'QUADRUPOLE', 'MULLIKEN_CHARGES')
f=open( 'psi4out.xyz', 'w' )
f.write( "20  " )
f.write( str(ee) + "\n" )
f.write( MOL.save_string_xyz() )
f.close()
--------------------------------------------------------------------------

    Molecular point group: c1
  Charge       = 0
  Multiplicity = 1
  Basis Set: CC-PVTZ
  Basis Set:
  @DF-RHF Final Energy:  -384.08613312661737
    Total Energy =                       -384.0861331266175966
    Molecular point group: c1
  Basis Set: CC-PVTZ
  Basis Set:
  Basis Set: CC-PVTZ
  Basis Set:
  @DF-RHF Final Energy:  -383.66769242032285
    Total Energy =                       -383.6676924203227941
  Basis Set: CC-PVTZ
  Basis Set:
  Basis Set: CC-PVTZ
  Basis Set:
  @DF-RHF Final Energy:  -383.84795908854915
    Total Energy =                       -383.8479590885490325
  Basis Set: CC-PVTZ
  Basis Set:
  Basis Set: CC-PVTZ
  Basis Set:
  @DF-RHF Final Energy:  -384.04220371277984
    Total Energy =                       -384.0422037127800650
  Basis Set: CC-PVTZ
  Basis Set:
  @DF-RHF Final Energy:  -384.08293035218770
    Total Energy =                       -384.0829303521873044
  @DF-RHF Final Energy:  -384.04936222660496
    Total Energy =                       -384.0493622266043872
  @DF-RHF Final Energy:  -384.08655847864253
    Total Energy =                       -384.0865584786422460
  @DF-RHF Final Energy:  -384.08818566594869
    Total Energy =                       -384.0881856659480604
  @DF-RHF Final Energy:  -384.08757019893039
    Total Energy =                       -384.0875701989307913
  @DF-RHF Final Energy:  -384.08821340939232
    Total Energy =                       -384.0882134093920399
  Basis Set: CC-PVTZ
  Basis Set:
  @DF-RHF Final Energy:  -384.08821856623535
    Total Energy =                       -384.0882185662349002
  Basis Set: CC-PVTZ
  Basis Set:
  Basis Set: CC-PVTZ
  Basis Set:
  @DF-RHF Final Energy:  -384.08822571438975
    Total Energy =                       -384.0882257143896936
  Basis Set: CC-PVTZ
  Basis Set:
  Basis Set: CC-PVTZ
  Basis Set:
  @DF-RHF Final Energy:  -384.08822688545894
    Total Energy =                       -384.0882268854594486
  Basis Set: CC-PVTZ
  Basis Set:
  Charge       = 0
  Multiplicity = 1
  Basis Set: CC-PVTZ
  Basis Set:

    Orbital Energies (a.u.)
    -----------------------

    Doubly Occupied:

       1A    -20.603453     2A    -20.540225     3A    -11.372955
       4A    -11.238302     5A    -11.221263     6A    -11.219662
       7A    -11.218466     8A    -11.210860     9A     -1.477088
      10A     -1.368594    11A     -1.095105    12A     -1.041773
      13A     -0.961144    14A     -0.871657    15A     -0.823107
      16A     -0.769022    17A     -0.703377    18A     -0.691139
      19A     -0.671682    20A     -0.639458    21A     -0.598499
      22A     -0.595865    23A     -0.581797    24A     -0.550692
      25A     -0.540923    26A     -0.518629    27A     -0.499763
      28A     -0.483987    29A     -0.471228    30A     -0.461422
      31A     -0.455461    32A     -0.446605

  @DF-RHF Final Energy:  -384.08822690618194

   => Energetics <=

    Nuclear Repulsion Energy =            377.6231433089644725
    One-Electron Energy =               -1271.5363357747833106
    Two-Electron Energy =                 509.8249655596363823
    DFT Exchange-Correlation Energy =       0.0000000000000000
    Empirical Dispersion Energy =           0.0000000000000000
    PCM Polarization Energy =               0.0000000000000000
    EFP Energy =                            0.0000000000000000
    Total Energy =                       -384.0882269061824559
    Molecular point group: c1
  Basis Set: CC-PVTZ
  Basis Set:

  -Total Gradient:
     Atom            X                  Y                   Z
    ------   -----------------  -----------------  -----------------
       1       -0.000007542066     0.000003132654     0.000005454166
       2        0.000011024686    -0.000008812952     0.000000872275
       3       -0.000007062475     0.000029526446    -0.000038938275
       4        0.000010531035     0.000008871697     0.000015076429
       5        0.000001490714    -0.000023988835     0.000028307483
       6       -0.001519289716     0.004972065534    -0.001421989468
       7       -0.000005223573    -0.000002264979     0.000000879033
       8        0.000001156234    -0.000003907577    -0.000003159200
       9        0.002761150370     0.003964059119     0.001737928954
      10        0.000564121916    -0.005381117726     0.000754166038
      11       -0.000001907950    -0.000001850313     0.000000048656
      12       -0.001810132366    -0.003561637679    -0.001083489859
      13       -0.000007291864     0.000001501069    -0.000002959626
      14        0.000004945933    -0.000001643443    -0.000002043247
      15        0.000003821552     0.000009685269     0.000011039673
      16        0.000002712294    -0.000001280708    -0.000004396469
      17        0.000002214283     0.000001924747     0.000005899674
      18       -0.000001180578     0.000002702346    -0.000000618230
      19       -0.000002960794    -0.000003058833    -0.000003154669
      20       -0.000000577644    -0.000003905839     0.000001076661

  **** Optimization is complete! (in 14 steps) ****
    Final optimized geometry and variables:
    Molecular point group: c1

    Geometry (in Angstrom), charge = 0, multiplicity = 1:

    H            2.628187137578    -1.384982009755    -2.344969445393
    O            2.145312591235    -1.390712824368    -1.532265003010
    C            1.232565022597    -0.423782449015    -1.579105506741
    C            0.417698822157    -0.368552198212    -0.314407143869
    O            1.113048909870     0.281191230857    -2.520784646271
    C           -0.635632898095     0.736349345501    -0.334871205673
    H           -0.029719871347    -1.348709967197    -0.189919246553
    H            1.118646205808    -0.256492295344     0.503625778446
    C           -1.537251958793     0.817828365851     0.918954469226
    H           -1.257696316069     0.549078996541    -1.200145489888
    H           -0.137258002041     1.681675550710    -0.503059280902
    C           -1.022780855174     0.168201421602     2.204102238652
    H           -2.492724573447     0.356421649164     0.685915986644
    H           -1.757999657992     1.861159574671     1.116937983347
    C           -1.993363870737     0.351296006961     3.366663898919
    H           -0.859045758549    -0.891950924986     2.045712025920
    H           -0.059924811591     0.590585555980     2.478860249766
    H           -1.619680823172    -0.122221073349     4.267136247262
    H           -2.960795763822    -0.084636347782     3.140497594694
    H           -2.149071927940     1.402282408429     3.585240104512

  Mulliken Charges: (a.u.)
   Center  Symbol    Alpha    Beta     Spin     Total
       1     H     0.38248  0.38248  0.00000  0.23504
       2     O     4.15959  4.15959  0.00000 -0.31918
       3     C     2.80949  2.80949  0.00000  0.38101
       4     C     3.11508  3.11508  0.00000 -0.23016
       5     O     4.19095  4.19095  0.00000 -0.38190
       6     C     3.08938  3.08938  0.00000 -0.17875
       7     H     0.43667  0.43667  0.00000  0.12666
       8     H     0.43438  0.43438  0.00000  0.13123
       9     C     3.09414  3.09414  0.00000 -0.18828
      10     H     0.44240  0.44240  0.00000  0.11521
      11     H     0.44321  0.44321  0.00000  0.11357
      12     C     3.09156  3.09156  0.00000 -0.18313
      13     H     0.45223  0.45223  0.00000  0.09554
      14     H     0.44793  0.44793  0.00000  0.10414
      15     C     3.15097  3.15097  0.00000 -0.30194
      16     H     0.45133  0.45133  0.00000  0.09735
      17     H     0.45254  0.45254  0.00000  0.09493
      18     H     0.44747  0.44747  0.00000  0.10507
      19     H     0.45459  0.45459  0.00000  0.09083
      20     H     0.45362  0.45362  0.00000  0.09276

   Total alpha = 32.00000, Total beta = 32.00000, Total charge =  0.00000

*** Psi4 exiting successfully. Buy a developer a beer!
