  ==> Input File <==

--------------------------------------------------------------------------
set {
	reference rhf
	basis cc-pvtz
}

set_num_threads( 4 )
memory 2 gb

molecule MOL {
0 1

O	 -2.374409	 1.338660	 -0.336961
C	 -2.104891	 0.204655	 -0.107126
C	 -0.881910	 -0.448129	 -0.720509
C	 -2.949910	 -0.638219	 0.818225
C	 -0.122155	 0.538399	 -1.616264
H	 -1.221272	 -1.288843	 -1.312239
H	 -0.224536	 -0.821475	 0.057525
C	 1.108783	 -0.094402	 -2.261911
H	 -0.803584	 0.902426	 -2.374794
H	 0.186003	 1.401830	 -1.031606
C	 1.938449	 0.861236	 -3.121165
H	 0.797889	 -0.942566	 -2.866841
H	 1.745768	 -0.496569	 -1.478894
C	 1.233660	 1.361951	 -4.379512
H	 2.851405	 0.351544	 -3.412768
H	 2.246688	 1.710737	 -2.517286
H	 0.909180	 0.532744	 -4.999767
H	 1.900587	 1.976282	 -4.973293
H	 0.361732	 1.960874	 -4.146461
H	 -3.440322	 -1.417144	 0.243099
H	 -3.694377	 -0.025850	 1.303346
H	 -2.331085	 -1.129829	 1.560495

	symmetry c1
}
set optking {
	frozen_dihedral = ("
		6 3 2 1
	")
}

ee = optimize('scf')
oeprop('DIPOLE', 'QUADRUPOLE', 'MULLIKEN_CHARGES')
f=open( 'psi4out.xyz', 'w' )
f.write( "22  " )
f.write( str(ee) + "\n" )
f.write( MOL.save_string_xyz() )
f.close()
--------------------------------------------------------------------------

    Molecular point group: c1
  Charge       = 0
  Multiplicity = 1
  Basis Set: CC-PVTZ
  Basis Set:
  @DF-RHF Final Energy:  -348.22399822453730
    Total Energy =                       -348.2239982245376382
    Molecular point group: c1
  Basis Set: CC-PVTZ
  Basis Set:
  Basis Set: CC-PVTZ
  Basis Set:
  @DF-RHF Final Energy:  -348.22402759820062
    Total Energy =                       -348.2240275982006210
  Basis Set: CC-PVTZ
  Basis Set:
  Basis Set: CC-PVTZ
  Basis Set:
  @DF-RHF Final Energy:  -348.22484560604767
    Total Energy =                       -348.2248456060480635
  Basis Set: CC-PVTZ
  Basis Set:
  Basis Set: CC-PVTZ
  Basis Set:
  @DF-RHF Final Energy:  -348.22514087720680
    Total Energy =                       -348.2251408772070818
  Basis Set: CC-PVTZ
  Basis Set:
  @DF-RHF Final Energy:  -348.22517424259621
    Total Energy =                       -348.2251742425958128
  @DF-RHF Final Energy:  -348.22519485774183
    Total Energy =                       -348.2251948577415988
  @DF-RHF Final Energy:  -348.22521204718618
    Total Energy =                       -348.2252120471865169
  @DF-RHF Final Energy:  -348.22522215523156
    Total Energy =                       -348.2252221552319043
  @DF-RHF Final Energy:  -348.22522697745239
    Total Energy =                       -348.2252269774522802
  @DF-RHF Final Energy:  -348.22523042849934
    Total Energy =                       -348.2252304284987190
  Basis Set: CC-PVTZ
  Basis Set:
  @DF-RHF Final Energy:  -348.22523338608420
    Total Energy =                       -348.2252333860841418
  Basis Set: CC-PVTZ
  Basis Set:
  Basis Set: CC-PVTZ
  Basis Set:
  @DF-RHF Final Energy:  -348.22523935587424
    Total Energy =                       -348.2252393558740664
  Basis Set: CC-PVTZ
  Basis Set:
  Basis Set: CC-PVTZ
  Basis Set:
  @DF-RHF Final Energy:  -348.22524086805936
    Total Energy =                       -348.2252408680590179
  Basis Set: CC-PVTZ
  Basis Set:
  Charge       = 0
  Multiplicity = 1
  Basis Set: CC-PVTZ
  Basis Set:

    Orbital Energies (a.u.)
    -----------------------

    Doubly Occupied:

       1A    -20.538970     2A    -11.320645     3A    -11.230302
       4A    -11.226678     5A    -11.215648     6A    -11.214560
       7A    -11.214324     8A    -11.205720     9A     -1.399024
      10A     -1.091960    11A     -1.044051    12A     -1.001817
      13A     -0.935687    14A     -0.854897    15A     -0.781947
      16A     -0.732008    17A     -0.658069    18A     -0.651236
      19A     -0.632374    20A     -0.614655    21A     -0.602297
      22A     -0.580265    23A     -0.560719    24A     -0.547620
      25A     -0.524029    26A     -0.512376    27A     -0.499324
      28A     -0.487013    29A     -0.465497    30A     -0.462814
      31A     -0.458183    32A     -0.401977

  @DF-RHF Final Energy:  -348.22524066414132

   => Energetics <=

    Nuclear Repulsion Energy =            372.9798056193690172
    One-Electron Energy =               -1211.0767237246027435
    Two-Electron Energy =                 489.8716774410922881
    DFT Exchange-Correlation Energy =       0.0000000000000000
    Empirical Dispersion Energy =           0.0000000000000000
    PCM Polarization Energy =               0.0000000000000000
    EFP Energy =                            0.0000000000000000
    Total Energy =                       -348.2252406641414382
    Molecular point group: c1
  Basis Set: CC-PVTZ
  Basis Set:

  -Total Gradient:
     Atom            X                  Y                   Z
    ------   -----------------  -----------------  -----------------
       1       -0.000018480467    -0.000010032560     0.000003514152
       2        0.000009241564     0.000019375776     0.000011794301
       3        0.000018610545    -0.000008126642     0.000006852266
       4       -0.000002591980     0.000008893683    -0.000006841028
       5       -0.000011324291    -0.000002059057    -0.000002743664
       6        0.000007879748     0.000007218020    -0.000012246782
       7       -0.000001051817     0.000001127027    -0.000003546849
       8        0.000000787508    -0.000003314795    -0.000002126851
       9       -0.000013860522    -0.000013314439     0.000025943401
      10       -0.000002933681    -0.000005391706    -0.000001007443
      11       -0.000013107448     0.000010773724     0.000009596550
      12       -0.000008198098     0.000012495082    -0.000008220846
      13        0.000016743554    -0.000017370956    -0.000011252681
      14        0.000004068867     0.000000299819    -0.000008127383
      15        0.000008162907    -0.000000381589     0.000013725417
      16       -0.000014746129     0.000004709405     0.000000566446
      17       -0.000006440097    -0.000002159269    -0.000000085935
      18        0.000004290402    -0.000008631223    -0.000001475782
      19        0.000020836432     0.000004011836    -0.000012571130
      20       -0.000000078567    -0.000001374277    -0.000000483790
      21        0.000000138722    -0.000001543720     0.000002199675
      22        0.000002052844     0.000004795867    -0.000003462036

  **** Optimization is complete! (in 14 steps) ****
    Final optimized geometry and variables:
    Molecular point group: c1

    Geometry (in Angstrom), charge = 0, multiplicity = 1:

    O           -1.934119985414     0.941044503641     1.171288183787
    C           -1.598020750011    -0.179060752259     1.377380748933
    C           -0.381083163230    -0.794983053773     0.717280101506
    C           -2.369440288587    -1.071863945503     2.322914529029
    C            0.408957221031     0.161430971925    -0.165083669790
    H           -0.724822684239    -1.652277946730     0.142387611923
    H            0.248308916709    -1.208033397447     1.501973954712
    C            1.615612908178    -0.513427189764    -0.814462799603
    H           -0.252858475187     0.567117787389    -0.918852011019
    H            0.738554309406     1.005307731880     0.431444806103
    C            2.492201368867     0.420903861416    -1.650139391097
    H            1.277341734631    -1.337697491136    -1.439028768831
    H            2.231595639536    -0.957186289021    -0.036447935783
    C            1.818799302800     0.974672972382    -2.903404365954
    H            3.385657071134    -0.120774564857    -1.945135012639
    H            2.829547475635     1.245494829688    -1.028021811008
    H            1.463081746428     0.171723070992    -3.541334803817
    H            2.516005287626     1.569909285546    -3.481806166371
    H            0.972678313362     1.606795456821    -2.663750843767
    H           -2.652782896634    -1.994291475382     1.828692423313
    H           -3.251232761706    -0.558613154681     2.674364278542
    H           -1.744371256706    -1.337995526686     3.168564996124

  Mulliken Charges: (a.u.)
   Center  Symbol    Alpha    Beta     Spin     Total
       1     O     4.17091  4.17091  0.00000 -0.34182
       2     C     2.86180  2.86180  0.00000  0.27639
       3     C     3.11341  3.11341  0.00000 -0.22681
       4     C     3.15129  3.15129  0.00000 -0.30258
       5     C     3.08569  3.08569  0.00000 -0.17138
       6     H     0.44492  0.44492  0.00000  0.11015
       7     H     0.44517  0.44517  0.00000  0.10967
       8     C     3.09619  3.09619  0.00000 -0.19239
       9     H     0.44353  0.44353  0.00000  0.11294
      10     H     0.44682  0.44682  0.00000  0.10636
      11     C     3.09001  3.09001  0.00000 -0.18002
      12     H     0.45513  0.45513  0.00000  0.08974
      13     H     0.45084  0.45084  0.00000  0.09831
      14     C     3.15274  3.15274  0.00000 -0.30548
      15     H     0.44865  0.44865  0.00000  0.10271
      16     H     0.45382  0.45382  0.00000  0.09236
      17     H     0.45581  0.45581  0.00000  0.08839
      18     H     0.44650  0.44650  0.00000  0.10700
      19     H     0.45076  0.45076  0.00000  0.09847
      20     H     0.45091  0.45091  0.00000  0.09818
      21     H     0.43540  0.43540  0.00000  0.12920
      22     H     0.44970  0.44970  0.00000  0.10061

   Total alpha = 32.00000, Total beta = 32.00000, Total charge = -0.00000
