  ==> Input File <==

--------------------------------------------------------------------------
set {
	reference rhf
	basis 6-31G*
}

set_num_threads( 1 )
memory 2 gb

molecule MOL {
0 1

H	 -3.197807	 0.428630	 -2.087725
C	 -2.510907	 -0.249780	 -1.620190
C	 -2.076860	 -0.007332	 -0.404944
H	 -2.194711	 -1.118140	 -2.166892
O	 -1.180634	 -0.819263	 0.215062
H	 -2.386836	 0.852653	 0.162097
C	 0.051604	 -1.018856	 -0.387932
C	 1.043764	 0.054862	 -0.001873
H	 -0.017620	 -1.041351	 -1.469781
H	 0.437898	 -1.966374	 -0.042284
F	 2.212596	 -0.199467	 -0.571921
F	 0.652529	 1.252447	 -0.405055
F	 1.230877	 0.110694	 1.300533

	symmetry c1
}
set optking {
	frozen_dihedral = ("
		11 8 7 9,
		3 5 7 9,
		6 3 2 1
	")
}

ee = energy('scf')
oeprop('DIPOLE', 'QUADRUPOLE', 'MULLIKEN_CHARGES')
f=open( 'psi4out.xyz', 'w' )
f.write( "13  " )
f.write( str(ee) + "\n" )
f.write( MOL.save_string_xyz() )
f.close()
--------------------------------------------------------------------------

    Molecular point group: c1

    Geometry (in Angstrom), charge = 0, multiplicity = 1:

       Center              X                  Y                   Z               Mass
    ------------   -----------------  -----------------  -----------------  -----------------
           H         -3.274042545411     0.496203256566    -1.889035057099     1.007825032070
           C         -2.587142545411    -0.182206743434    -1.421500057099    12.000000000000
           C         -2.153095545411     0.060241256566    -0.206254057099    12.000000000000
           H         -2.270946545411    -1.050566743434    -1.968202057099     1.007825032070
           O         -1.256869545411    -0.751689743434     0.413751942901    15.994914619560
           H         -2.463071545411     0.920226256566     0.360786942901     1.007825032070
           C         -0.024631545411    -0.951282743434    -0.189242057099    12.000000000000
           C          0.967528454589     0.122435256566     0.196816942901    12.000000000000
           H         -0.093855545411    -0.973777743434    -1.271091057099     1.007825032070
           H          0.361662454589    -1.898800743434     0.156405942901     1.007825032070
           F          2.136360454589    -0.131893743434    -0.373231057099    18.998403224000
           F          0.576293454589     1.320020256566    -0.206365057099    18.998403224000
           F          1.154641454589     0.178267256566     1.499222942901    18.998403224000

  Charge       = 0
  Multiplicity = 1
  Basis Set: 6-31G*
  Basis Set:

    Orbital Energies (a.u.)
    -----------------------

    Doubly Occupied:

       1A    -26.341843     2A    -26.340319     3A    -26.338640
       4A    -20.600691     5A    -11.499832     6A    -11.313755
       7A    -11.298591     8A    -11.225747     9A     -1.739060
      10A     -1.637008    11A     -1.635824    12A     -1.433932
      13A     -1.078388    14A     -1.021492    15A     -0.928123
      16A     -0.835678    17A     -0.828573    18A     -0.826974
      19A     -0.761200    20A     -0.724534    21A     -0.711520
      22A     -0.701477    23A     -0.672357    24A     -0.658114
      25A     -0.653839    26A     -0.644485    27A     -0.640627
      28A     -0.590477    29A     -0.560740    30A     -0.531966
      31A     -0.479125    32A     -0.368575

  @DF-RHF Final Energy:  -527.53127848490351

   => Energetics <=

    Nuclear Repulsion Energy =            416.9290014285586494
    One-Electron Energy =               -1557.6733468826196258
    Two-Electron Energy =                 613.2130669691568983
    DFT Exchange-Correlation Energy =       0.0000000000000000
    Empirical Dispersion Energy =           0.0000000000000000
    PCM Polarization Energy =               0.0000000000000000
    EFP Energy =                            0.0000000000000000
    Total Energy =                       -527.5312784849040781

  Mulliken Charges: (a.u.)
   Center  Symbol    Alpha    Beta     Spin     Total
       1     H     0.40426  0.40426  0.00000  0.19148
       2     C     3.22731  3.22731  0.00000 -0.45462
       3     C     2.90616  2.90616  0.00000  0.18768
       4     H     0.40697  0.40697  0.00000  0.18607
       5     O     4.30758  4.30758  0.00000 -0.61516
       6     H     0.39797  0.39797  0.00000  0.20406
       7     C     3.05514  3.05514  0.00000 -0.11028
       8     C     2.45746  2.45746  0.00000  1.08509
       9     H     0.40434  0.40434  0.00000  0.19132
      10     H     0.39443  0.39443  0.00000  0.21115
      11     F     4.68323  4.68323  0.00000 -0.36645
      12     F     4.67944  4.67944  0.00000 -0.35888
      13     F     4.67572  4.67572  0.00000 -0.35143

   Total alpha = 32.00000, Total beta = 32.00000, Total charge =  0.00000
