  ==> Input File <==

--------------------------------------------------------------------------
set {
	reference rhf
	basis 6-31G*
}

set_num_threads( 4 )
memory 2 gb

molecule MOL {
0 1

O	 -2.042549	 -1.228399	 -0.269030
C	 -1.653912	 -0.146171	 0.050137
C	 -0.332303	 0.024011	 0.778412
C	 -2.438579	 1.106236	 -0.272369
C	 0.845713	 -0.001731	 -0.208243
H	 -0.323783	 0.953829	 1.340327
H	 -0.235459	 -0.796807	 1.480410
C	 2.169266	 -0.368939	 0.464361
H	 0.945128	 0.970351	 -0.688093
H	 0.622511	 -0.715825	 -0.995257
C	 3.340866	 -0.404052	 -0.516112
H	 2.382102	 0.344656	 1.257399
H	 2.069476	 -1.339776	 0.944033
H	 3.487647	 0.563546	 -0.987560
H	 3.171034	 -1.132808	 -1.303204
H	 4.264811	 -0.669863	 -0.012428
H	 -3.277823	 0.863061	 -0.908988
H	 -1.806773	 1.843019	 -0.759671
H	 -2.802853	 1.554979	 0.648059

	symmetry c1
}
set optking {
	frozen_dihedral = ("
		9 5 3 2
	")
}

ee = optimize('scf')
oeprop('DIPOLE', 'QUADRUPOLE', 'MULLIKEN_CHARGES')
f=open( 'psi4out.xyz', 'w' )
f.write( "19  " )
f.write( str(ee) + "\n" )
f.write( MOL.save_string_xyz() )
f.close()
--------------------------------------------------------------------------

    Molecular point group: c1
  Charge       = 0
  Multiplicity = 1
  Basis Set: 6-31G*
  Basis Set:
  @DF-RHF Final Energy:  -309.06359885455799
    Total Energy =                       -309.0635988545578243
    Molecular point group: c1
  Basis Set: 6-31G*
  Basis Set:
  Basis Set: 6-31G*
  Basis Set:
  @DF-RHF Final Energy:  -309.06374549340165
    Total Energy =                       -309.0637454934017114
  Basis Set: 6-31G*
  Basis Set:
  Basis Set: 6-31G*
  Basis Set:
  @DF-RHF Final Energy:  -309.06357105080502
    Total Energy =                       -309.0635710508051943
  Basis Set: 6-31G*
  Basis Set:
  Basis Set: 6-31G*
  Basis Set:
  @DF-RHF Final Energy:  -309.06381535776342
    Total Energy =                       -309.0638153577634739
  Basis Set: 6-31G*
  Basis Set:
  @DF-RHF Final Energy:  -309.06381201227009
    Total Energy =                       -309.0638120122699775
  @DF-RHF Final Energy:  -309.06382278915726
    Total Energy =                       -309.0638227891570295
  @DF-RHF Final Energy:  -309.06382401153780
    Total Energy =                       -309.0638240115375766
  @DF-RHF Final Energy:  -309.06307484126415
    Total Energy =                       -309.0630748412640969
  @DF-RHF Final Energy:  -309.06312949346642
    Total Energy =                       -309.0631294934663629
  @DF-RHF Final Energy:  -309.06341397422699
    Total Energy =                       -309.0634139742269326
  @DF-RHF Final Energy:  -309.06377336892177
    Total Energy =                       -309.0637733689221704
  @DF-RHF Final Energy:  -309.06327590216625
    Total Energy =                       -309.0632759021667653
  Basis Set: 6-31G*
  Basis Set:
  @DF-RHF Final Energy:  -309.06381856690615
    Total Energy =                       -309.0638185669062068
  Basis Set: 6-31G*
  Basis Set:
  Basis Set: 6-31G*
  Basis Set:
  @DF-RHF Final Energy:  -309.06382339876899
    Total Energy =                       -309.0638233987690455
  Basis Set: 6-31G*
  Basis Set:
  Basis Set: 6-31G*
  Basis Set:
  @DF-RHF Final Energy:  -309.06382475773853
    Total Energy =                       -309.0638247577386437
  Basis Set: 6-31G*
  Basis Set:
  Charge       = 0
  Multiplicity = 1
  Basis Set: 6-31G*
  Basis Set:

    Orbital Energies (a.u.)
    -----------------------

    Doubly Occupied:

       1A    -20.547381     2A    -11.324641     3A    -11.230779
       4A    -11.229201     5A    -11.228072     6A    -11.224141
       7A    -11.214448     8A     -1.393330     9A     -1.090538
      10A     -1.028747    11A     -0.983239    12A     -0.890039
      13A     -0.806396    14A     -0.733170    15A     -0.665015
      16A     -0.641747    17A     -0.623927    18A     -0.612773
      19A     -0.581332    20A     -0.573839    21A     -0.553584
      22A     -0.533699    23A     -0.517633    24A     -0.497576
      25A     -0.480041    26A     -0.474432    27A     -0.467870
      28A     -0.396855

  @DF-RHF Final Energy:  -309.06382490369259

   => Energetics <=

    Nuclear Repulsion Energy =            301.2052304260897131
    One-Electron Energy =               -1015.4492127563080430
    Two-Electron Energy =                 405.1801574265259660
    DFT Exchange-Correlation Energy =       0.0000000000000000
    Empirical Dispersion Energy =           0.0000000000000000
    PCM Polarization Energy =               0.0000000000000000
    EFP Energy =                            0.0000000000000000
    Total Energy =                       -309.0638249036924208
    Molecular point group: c1
  Basis Set: 6-31G*
  Basis Set:

  -Total Gradient:
     Atom            X                  Y                   Z
    ------   -----------------  -----------------  -----------------
       1        0.000013617448    -0.000003741465    -0.000026866577
       2        0.000149017494    -0.002527800633     0.000263369477
       3        0.000320875994     0.003661669762     0.000266484454
       4       -0.000024094381    -0.000003183235     0.000035325313
       5       -0.002727294620    -0.002136622822    -0.003078799997
       6        0.000019557585     0.000011466454    -0.000014502587
       7       -0.000012627035     0.000013501196     0.000006117926
       8        0.000000170748    -0.000000906333     0.000000983161
       9        0.002230613337     0.001004000174     0.002547313996
      10        0.000009262608    -0.000016412470     0.000011116307
      11        0.000005014378    -0.000004645456     0.000001860214
      12       -0.000003600521     0.000001617431    -0.000004033817
      13        0.000005745172    -0.000000499443     0.000000495439
      14        0.000003904884     0.000000094687     0.000003572937
      15       -0.000004391478     0.000007076071     0.000000210818
      16        0.000005474785    -0.000004294969    -0.000002209083
      17        0.000001969100     0.000000409987    -0.000002467155
      18        0.000002986660    -0.000003176918    -0.000003636273
      19        0.000003797842     0.000001447980    -0.000004334552

  **** Optimization is complete! (in 16 steps) ****
    Final optimized geometry and variables:
    Molecular point group: c1

    Geometry (in Angstrom), charge = 0, multiplicity = 1:

    O           -2.079709370884    -1.076944039102    -0.202640227138
    C           -1.653140438785     0.003085962475     0.072075471934
    C           -0.316031051433     0.153336020432     0.776790919507
    C           -2.401257288941     1.267593463541    -0.287441512008
    C            0.854889866837     0.112838948984    -0.223697149743
    H           -0.279469278210     1.070937957648     1.356067580053
    H           -0.231339219013    -0.682527013794     1.462410545914
    C            2.183029212484    -0.233331919191     0.455096980513
    H            0.960874750902     1.084289487793    -0.701439094806
    H            0.645097293703    -0.616834604740    -0.999517103636
    C            3.363541287564    -0.221823325818    -0.514908495748
    H            2.370374472763     0.471789468327     1.262289955578
    H            2.102378431184    -1.214309916019     0.916518244703
    H            3.495044775395     0.758976474567    -0.963136326130
    H            3.215705385227    -0.936002340618    -1.319756597257
    H            4.288266413057    -0.480443092013    -0.008894359101
    H           -3.266915661548     1.027692670239    -0.889010318517
    H           -1.755753230837     1.954179373683    -0.827750530827
    H           -2.720912375012     1.774528483121     0.619164707154

  Mulliken Charges: (a.u.)
   Center  Symbol    Alpha    Beta     Spin     Total
       1     O     4.26175  4.26175  0.00000 -0.52351
       2     C     2.73882  2.73882  0.00000  0.52236
       3     C     3.20090  3.20090  0.00000 -0.40180
       4     C     3.28933  3.28933  0.00000 -0.57865
       5     C     3.16099  3.16099  0.00000 -0.32199
       6     H     0.41545  0.41545  0.00000  0.16909
       7     H     0.40084  0.40084  0.00000  0.19832
       8     C     3.15240  3.15240  0.00000 -0.30480
       9     H     0.42069  0.42069  0.00000  0.15863
      10     H     0.40653  0.40653  0.00000  0.18693
      11     C     3.24070  3.24070  0.00000 -0.48140
      12     H     0.42229  0.42229  0.00000  0.15541
      13     H     0.41776  0.41776  0.00000  0.16449
      14     H     0.42158  0.42158  0.00000  0.15683
      15     H     0.41898  0.41898  0.00000  0.16203
      16     H     0.41726  0.41726  0.00000  0.16549
      17     H     0.39711  0.39711  0.00000  0.20578
      18     H     0.40948  0.40948  0.00000  0.18105
      19     H     0.40713  0.40713  0.00000  0.18574

   Total alpha = 28.00000, Total beta = 28.00000, Total charge =  0.00000
