                              Psi4 1.0.54 Driver

  ==> Input File <==

--------------------------------------------------------------------------
set {
	reference rhf
	basis cc-pvtz
}

set_num_threads( 4 )
memory 2 gb

molecule MOL {
0 1

H	 -3.436473	 1.252944	 -1.023892
O	 -3.458596	 0.315260	 -0.960865
C	 -3.176635	 -0.080824	 0.355601
C	 -1.763371	 0.265266	 0.799691
H	 -3.321825	 -1.153438	 0.379502
H	 -3.895468	 0.357385	 1.043382
C	 -0.673390	 -0.426948	 -0.013392
H	 -1.631049	 1.344913	 0.747560
H	 -1.664587	 -0.001624	 1.849167
C	 0.737842	 -0.043159	 0.423759
H	 -0.806103	 -0.190518	 -1.063345
H	 -0.797221	 -1.503753	 0.074146
C	 1.824000	 -0.743224	 -0.390623
H	 0.850588	 1.033777	 0.343840
H	 0.868587	 -0.286314	 1.476203
C	 3.255957	 -0.453067	 0.062319
H	 1.718250	 -0.470599	 -1.438164
H	 1.658105	 -1.815850	 -0.339904
C	 4.151955	 0.163248	 -1.009355
H	 3.704803	 -1.383296	 0.396963
H	 3.231799	 0.200166	 0.930721
H	 4.190619	 -0.465771	 -1.893050
H	 5.165694	 0.278779	 -0.642984
H	 3.803918	 1.142374	 -1.315603

	symmetry c1
}
set optking {
	frozen_dihedral = ("
		20 16 13 17
	")
}

ee,wfn = optimize('scf', return_wfn=True)
oeprop( wfn, 'DIPOLE', 'QUADRUPOLE', 'MULLIKEN_CHARGES')
f=open( 'psi4out.xyz', 'w' )
f.write( "24  " )
f.write( str(ee) + "\n" )
f.write( MOL.save_string_xyz() )
f.close()
--------------------------------------------------------------------------

    Molecular point group: c1
  Charge       = 0
  Multiplicity = 1
  Basis Set: CC-PVTZ
  Basis Set:
  @DF-RHF Final Energy:  -349.37602518983891
    Total Energy =                       -349.3760251898382876
    Molecular point group: c1
  Basis Set: CC-PVTZ
  Basis Set:
  Basis Set: CC-PVTZ
  Basis Set:
  @DF-RHF Final Energy:  -349.37650968730838
    Total Energy =                       -349.3765096873083849
  Basis Set: CC-PVTZ
  Basis Set:
  Basis Set: CC-PVTZ
  Basis Set:
  @DF-RHF Final Energy:  -349.37656707303148
    Total Energy =                       -349.3765670730317083
  Basis Set: CC-PVTZ
  Basis Set:
  Charge       = 0
  Multiplicity = 1
  Basis Set: CC-PVTZ
  Basis Set:

    Orbital Energies (a.u.)
    -----------------------

    Doubly Occupied:

       1A    -20.546351     2A    -11.265580     3A    -11.215295
       4A    -11.211392     5A    -11.211101     6A    -11.208933
       7A    -11.208833     8A    -11.205844     9A     -1.364197
      10A     -1.088803    11A     -1.048660    12A     -0.988693
      13A     -0.914453    14A     -0.844267    15A     -0.799292
      16A     -0.787420    17A     -0.681851    18A     -0.655162
      19A     -0.627285    20A     -0.617197    21A     -0.598390
      22A     -0.584910    23A     -0.554955    24A     -0.537720
      25A     -0.529097    26A     -0.506411    27A     -0.494195
      28A     -0.472570    29A     -0.468851    30A     -0.459763
      31A     -0.456839    32A     -0.452337    33A     -0.420272

  @DF-RHF Final Energy:  -349.37656748855170

   => Energetics <=

    Nuclear Repulsion Energy =            382.0432101044254978
    One-Electron Energy =               -1230.7857000724020509
    Two-Electron Energy =                 499.3659224794250804
    DFT Exchange-Correlation Energy =       0.0000000000000000
    Empirical Dispersion Energy =           0.0000000000000000
    PCM Polarization Energy =               0.0000000000000000
    EFP Energy =                            0.0000000000000000
    Total Energy =                       -349.3765674885514727
    Molecular point group: c1
  Basis Set: CC-PVTZ
  Basis Set:

  -Total Gradient:
     Atom            X                  Y                   Z
    ------   -----------------  -----------------  -----------------
       1       -0.000000141450     0.000001869908    -0.000000036602
       2       -0.000010678382    -0.000004129876    -0.000005109469
       3        0.000008847262     0.000013109464    -0.000006759560
       4       -0.000000598742     0.000043572436    -0.000036704222
       5        0.000001137569    -0.000002436114    -0.000004184586
       6       -0.000001563025     0.000001002754     0.000003561731
       7       -0.000035262584     0.000017168779    -0.000022482690
       8       -0.000001914215     0.000016489386     0.000019982483
       9        0.000007936711    -0.000010388163    -0.000019540444
      10        0.000026697901    -0.000086209296     0.000136914657
      11       -0.000008383997    -0.000028636034    -0.000006219878
      12        0.000028564346     0.000012628056     0.000020173096
      13        0.000063782593     0.000063982898    -0.000029202453
      14        0.000030565177     0.000018588388     0.000050023908
      15       -0.000033076972    -0.000011915922     0.000001195802
      16       -0.000215378034     0.000090960550     0.000201540481
      17        0.000089603804    -0.000116968362    -0.000059055673
      18        0.000025016424     0.000000584546     0.000037821980
      19        0.000084349944    -0.000022707365    -0.000108435228
      20       -0.000016575083    -0.000023336684    -0.000087305940
      21       -0.000073909590    -0.000019132857    -0.000004892935
      22        0.000010577118     0.000073209855    -0.000038174076
      23        0.000015200303    -0.000022540909    -0.000053842513
      24        0.000005202923    -0.000004765436     0.000010732132

  **** Optimization is complete! (in 4 steps) ****
    Final optimized geometry and variables:
    Molecular point group: c1

    Geometry (in Angstrom), charge = 0, multiplicity = 1:

    H           -3.395239007290     1.479354279163    -0.982466977986
    O           -3.461852790705     0.543813286988    -0.919156123477
    C           -3.231843631249     0.138184122961     0.404400154639
    C           -1.815615434790     0.419308380203     0.883595461302
    H           -3.427250929948    -0.926494931423     0.425478139172
    H           -3.946733120536     0.610675077463     1.073349226369
    C           -0.738657162276    -0.323239622885     0.097887906808
    H           -1.632337381331     1.491659675434     0.834867628918
    H           -1.755365838390     0.149332914111     1.935155150420
    C            0.676830443224    -0.003437219093     0.568340039509
    H           -0.835319886588    -0.083877197554    -0.955334319283
    H           -0.912753273344    -1.393307555387     0.183935068458
    C            1.758042085226    -0.746005365393    -0.213948103437
    H            0.850478574953     1.067473347464     0.485893159732
    H            0.771215293172    -0.244144004241     1.624853170592
    C            3.193238997854    -0.403266360618     0.235861784001
    H            1.644211043136    -0.518722777930    -1.269833867221
    H            1.586870160343    -1.813847126882    -0.121301939376
    C            4.050577616803     0.202826426898    -0.872171376302
    H            3.684309612026    -1.294012523239     0.612413964539
    H            3.156081913882     0.290492204291     1.069780850481
    H            4.147144016506    -0.480297621931    -1.709399803154
    H            5.048469368061     0.434849239451    -0.517114478727
    H            3.610136613280     1.121035000898    -1.247332723475

  Mulliken Charges: (a.u.)
   Center  Symbol    Alpha    Beta     Spin     Total
       1     H     0.39530  0.39530  0.00000  0.20939
       2     O     4.20363  4.20363  0.00000 -0.40727
       3     C     2.97780  2.97780  0.00000  0.04440
       4     C     3.10201  3.10201  0.00000 -0.20402
       5     H     0.45890  0.45890  0.00000  0.08220
       6     H     0.46022  0.46022  0.00000  0.07956
       7     C     3.08899  3.08899  0.00000 -0.17798
       8     H     0.45909  0.45909  0.00000  0.08182
       9     H     0.45332  0.45332  0.00000  0.09335
      10     C     3.08953  3.08953  0.00000 -0.17907
      11     H     0.44605  0.44605  0.00000  0.10790
      12     H     0.45541  0.45541  0.00000  0.08918
      13     C     3.09397  3.09397  0.00000 -0.18795
      14     H     0.45506  0.45506  0.00000  0.08988
      15     H     0.45477  0.45477  0.00000  0.09047
      16     C     3.08948  3.08948  0.00000 -0.17896
      17     H     0.45413  0.45413  0.00000  0.09173
      18     H     0.44978  0.44978  0.00000  0.10043
      19     C     3.14716  3.14716  0.00000 -0.29432
      20     H     0.45014  0.45014  0.00000  0.09972
      21     H     0.45494  0.45494  0.00000  0.09011
      22     H     0.45440  0.45440  0.00000  0.09120
      23     H     0.45006  0.45006  0.00000  0.09989
      24     H     0.45584  0.45584  0.00000  0.08832

   Total alpha = 33.00000, Total beta = 33.00000, Total charge = -0.00000

*** Psi4 exiting successfully. Buy a developer a beer!
