  ==> Input File <==

--------------------------------------------------------------------------
set {
	reference rhf
	basis cc-pvtz
}

set_num_threads( 4 )
memory 2 gb

molecule MOL {
0 1

H	 -1.255247	 2.003493	 -0.892552
C	 -1.684467	 1.045061	 -0.619014
O	 -0.775228	 0.000056	 -0.739966
H	 -2.495389	 0.832909	 -1.301325
H	 -2.097061	 1.123425	 0.381615
C	 0.406133	 -0.000384	 0.036994
C	 1.526415	 -0.003194	 -0.997339
C	 0.498772	 1.259027	 0.900673
C	 0.495883	 -1.257378	 0.904465
H	 1.452279	 0.872071	 -1.630204
H	 1.451276	 -0.881020	 -1.626529
H	 2.497919	 -0.002741	 -0.517601
H	 0.368981	 2.144239	 0.289753
H	 1.470064	 1.313479	 1.377660
H	 -0.248448	 1.271586	 1.684297
H	 0.363971	 -2.144195	 0.296316
H	 1.467114	 -1.312636	 1.381470
H	 -0.251246	 -1.265768	 1.688235

	symmetry c1
}
set optking {
	frozen_dihedral = ("
		2 3 6 7
	")
}

ee = optimize('scf')
oeprop('DIPOLE', 'QUADRUPOLE', 'MULLIKEN_CHARGES')
f=open( 'psi4out.xyz', 'w' )
f.write( "18  " )
f.write( str(ee) + "\n" )
f.write( MOL.save_string_xyz() )
f.close()
--------------------------------------------------------------------------

    Molecular point group: c1
  Charge       = 0
  Multiplicity = 1
  Basis Set: CC-PVTZ
  Basis Set:
  @DF-RHF Final Energy:  -271.26849163123444
    Total Energy =                       -271.2684916312341556
    Molecular point group: c1
  Basis Set: CC-PVTZ
  Basis Set:
  Basis Set: CC-PVTZ
  Basis Set:
  @DF-RHF Final Energy:  -271.26922000957046
    Total Energy =                       -271.2692200095704038
  Basis Set: CC-PVTZ
  Basis Set:
  Basis Set: CC-PVTZ
  Basis Set:
  @DF-RHF Final Energy:  -271.27196762208342
    Total Energy =                       -271.2719676220834799
  Basis Set: CC-PVTZ
  Basis Set:
  Basis Set: CC-PVTZ
  Basis Set:
  @DF-RHF Final Energy:  -271.27226544878391
    Total Energy =                       -271.2722654487837417
  Basis Set: CC-PVTZ
  Basis Set:
  Basis Set: CC-PVTZ
  Basis Set:
  @DF-RHF Final Energy:  -271.27229049680602
    Total Energy =                       -271.2722904968061926
  Basis Set: CC-PVTZ
  Basis Set:
  Basis Set: CC-PVTZ
  Basis Set:
  @DF-RHF Final Energy:  -271.27229875643491
    Total Energy =                       -271.2722987564346795
  Basis Set: CC-PVTZ
  Basis Set:
  Basis Set: CC-PVTZ
  Basis Set:
  @DF-RHF Final Energy:  -271.27230091092957
    Total Energy =                       -271.2723009109296299
  Basis Set: CC-PVTZ
  Basis Set:
  Charge       = 0
  Multiplicity = 1
  Basis Set: CC-PVTZ
  Basis Set:

    Orbital Energies (a.u.)
    -----------------------

    Doubly Occupied:

       1A    -20.536989     2A    -11.280742     3A    -11.259534
       4A    -11.211740     5A    -11.202164     6A    -11.202069
       7A     -1.369162     8A     -1.075595     9A     -0.951537
      10A     -0.935429    11A     -0.912263    12A     -0.752151
      13A     -0.657576    14A     -0.648123    15A     -0.638407
      16A     -0.581886    17A     -0.578624    18A     -0.547509
      19A     -0.544474    20A     -0.527019    21A     -0.515300
      22A     -0.491401    23A     -0.483923    24A     -0.443357
      25A     -0.398515

  @DF-RHF Final Energy:  -271.27230120200625

   => Energetics <=

    Nuclear Repulsion Energy =            271.9858578312539521
    One-Electron Energy =                -907.0253504856185600
    Two-Electron Energy =                 363.7671914523582473
    DFT Exchange-Correlation Energy =       0.0000000000000000
    Empirical Dispersion Energy =           0.0000000000000000
    PCM Polarization Energy =               0.0000000000000000
    EFP Energy =                            0.0000000000000000
    Total Energy =                       -271.2723012020063607
    Molecular point group: c1
  Basis Set: CC-PVTZ
  Basis Set:

  -Total Gradient:
     Atom            X                  Y                   Z
    ------   -----------------  -----------------  -----------------
       1        0.000002924181     0.000006787547    -0.000001312772
       2       -0.000126830586    -0.000129907927     0.000207559107
       3        0.000185000160     0.000138313566    -0.000301069897
       4       -0.000004544858     0.000002300595     0.000003528854
       5        0.000003370219     0.000000573016    -0.000007920428
       6       -0.000074381263     0.000171973818     0.000087265770
       7        0.000014330053    -0.000200302604     0.000005618273
       8       -0.000002787389    -0.000004538503    -0.000000912939
       9        0.000004565075     0.000010486888     0.000008522054
      10        0.000009066262     0.000003728618    -0.000003907820
      11       -0.000008558962     0.000001573466     0.000006121668
      12        0.000003209028     0.000000291690    -0.000001632679
      13       -0.000006920418    -0.000000577077    -0.000003434090
      14        0.000000244406    -0.000000589364    -0.000003469327
      15        0.000003171099     0.000000271629     0.000003644571
      16        0.000002695846     0.000003070991     0.000002792105
      17        0.000001710140    -0.000003096883     0.000003189960
      18       -0.000006262994    -0.000000359470    -0.000004582410

  **** Optimization is complete! (in 8 steps) ****
    Final optimized geometry and variables:
    Molecular point group: c1

    Geometry (in Angstrom), charge = 0, multiplicity = 1:

    H           -1.435460670379     1.760871019826    -0.878531600758
    C           -1.806483608549     0.799819672057    -0.535757208740
    O           -0.849187595614    -0.204005362212    -0.614909140193
    H           -2.617203718638     0.502665502253    -1.186058030861
    H           -2.205848776131     0.920340507431     0.466351258911
    C            0.368366327167    -0.151990926133     0.115922625099
    C            1.491125009740    -0.174226752499    -0.918939171453
    C            0.509281877350     1.080791839126     1.009534311570
    C            0.405409718631    -1.416939081556     0.970421407464
    H            1.453737736218     0.714910679761    -1.537696832043
    H            1.382338388708    -1.036632098974    -1.564004502597
    H            2.464407015015    -0.218965555383    -0.443106784760
    H            0.491278445356     2.000426414677     0.439046844361
    H            1.461193698851     1.033150365983     1.523279493255
    H           -0.266864169074     1.126602534817     1.762579530711
    H            0.285670634507    -2.290950823691     0.343125497223
    H            1.343992959350    -1.502362774261     1.506569214757
    H           -0.402248233369    -1.408992802963     1.693056395524

  Mulliken Charges: (a.u.)
   Center  Symbol    Alpha    Beta     Spin     Total
       1     H     0.46959  0.46959  0.00000  0.06082
       2     C     3.04059  3.04059  0.00000 -0.08118
       3     O     4.20019  4.20019  0.00000 -0.40037
       4     H     0.44258  0.44258  0.00000  0.11484
       5     H     0.46946  0.46946  0.00000  0.06109
       6     C     2.86994  2.86994  0.00000  0.26013
       7     C     3.14151  3.14151  0.00000 -0.28303
       8     C     3.17705  3.17705  0.00000 -0.35410
       9     C     3.14120  3.14120  0.00000 -0.28240
      10     H     0.45221  0.45221  0.00000  0.09557
      11     H     0.44789  0.44789  0.00000  0.10423
      12     H     0.45787  0.45787  0.00000  0.08425
      13     H     0.44472  0.44472  0.00000  0.11057
      14     H     0.44218  0.44218  0.00000  0.11565
      15     H     0.44480  0.44480  0.00000  0.11041
      16     H     0.44787  0.44787  0.00000  0.10425
      17     H     0.45810  0.45810  0.00000  0.08380
      18     H     0.45226  0.45226  0.00000  0.09548

   Total alpha = 25.00000, Total beta = 25.00000, Total charge = -0.00000
