  ==> Input File <==

--------------------------------------------------------------------------
set {
	reference rhf
	basis 6-31G*
}

set_num_threads( 4 )
memory 2 gb

molecule MOL {
0 1

O	 -0.156818	 -0.756718	 -2.004562
C	 -0.268377	 0.059674	 -1.129484
C	 -1.414320	 1.053720	 -1.157307
N	 0.623947	 0.147590	 -0.102813
H	 -1.053205	 2.075883	 -1.186683
H	 -1.991071	 0.856200	 -2.048032
H	 -2.055243	 0.948038	 -0.288613
C	 1.665360	 -0.855771	 0.000151
C	 0.418288	 0.950543	 1.082605
H	 2.465253	 -0.618490	 -0.692587
H	 1.257730	 -1.821716	 -0.242189
H	 2.081488	 -0.891645	 1.004627
H	 1.378289	 1.295789	 1.447627
H	 -0.183096	 1.820853	 0.873242
H	 -0.059322	 0.383521	 1.879592

	symmetry c1
}
set optking {
	frozen_dihedral = ("
		2 4 8 10
	")
}

ee = optimize('scf')
oeprop('DIPOLE', 'QUADRUPOLE', 'MULLIKEN_CHARGES')
f=open( 'psi4out.xyz', 'w' )
f.write( "15  " )
f.write( str(ee) + "\n" )
f.write( MOL.save_string_xyz() )
f.close()
--------------------------------------------------------------------------

    Molecular point group: c1
  Charge       = 0
  Multiplicity = 1
  Basis Set: 6-31G*
  Basis Set:
  @DF-RHF Final Energy:  -286.02752146427031
    Total Energy =                       -286.0275214642704213
    Molecular point group: c1
  Basis Set: 6-31G*
  Basis Set:
  Basis Set: 6-31G*
  Basis Set:
  @DF-RHF Final Energy:  -286.02837308114147
    Total Energy =                       -286.0283730811414671
  Basis Set: 6-31G*
  Basis Set:
  Basis Set: 6-31G*
  Basis Set:
  @DF-RHF Final Energy:  -286.02855668131838
    Total Energy =                       -286.0285566813181504
  Basis Set: 6-31G*
  Basis Set:
  Basis Set: 6-31G*
  Basis Set:
  @DF-RHF Final Energy:  -286.02858700404738
    Total Energy =                       -286.0285870040473810
  Basis Set: 6-31G*
  Basis Set:
  @DF-RHF Final Energy:  -286.02861162887814
    Total Energy =                       -286.0286116288782523
  @DF-RHF Final Energy:  -286.02863446442461
    Total Energy =                       -286.0286344644248402
  @DF-RHF Final Energy:  -286.02869853744880
    Total Energy =                       -286.0286985374486335
  @DF-RHF Final Energy:  -286.02875698073007
    Total Energy =                       -286.0287569807300088
  @DF-RHF Final Energy:  -286.02890522129235
    Total Energy =                       -286.0289052212924616
  @DF-RHF Final Energy:  -286.02903042393370
    Total Energy =                       -286.0290304239333068
  @DF-RHF Final Energy:  -286.02915822900820
    Total Energy =                       -286.0291582290081465
  @DF-RHF Final Energy:  -286.02944805355514
    Total Energy =                       -286.0294480535550292
  @DF-RHF Final Energy:  -286.02957419726795
    Total Energy =                       -286.0295741972679480
  @DF-RHF Final Energy:  -286.02965343280050
    Total Energy =                       -286.0296534328005009
  Basis Set: 6-31G*
  Basis Set:
  @DF-RHF Final Energy:  -286.02966704063795
    Total Energy =                       -286.0296670406378325
  Basis Set: 6-31G*
  Basis Set:
  Basis Set: 6-31G*
  Basis Set:
  @DF-RHF Final Energy:  -286.02966468914076
    Total Energy =                       -286.0296646891405317
  Basis Set: 6-31G*
  Basis Set:
  Basis Set: 6-31G*
  Basis Set:
  @DF-RHF Final Energy:  -286.02966840224053
    Total Energy =                       -286.0296684022404179
  Basis Set: 6-31G*
  Basis Set:
  Charge       = 0
  Multiplicity = 1
  Basis Set: 6-31G*
  Basis Set:

    Orbital Energies (a.u.)
    -----------------------

    Doubly Occupied:

       1A    -20.515615     2A    -15.583227     3A    -11.340754
       4A    -11.266423     5A    -11.247999     6A    -11.228448
       7A     -1.385247     8A     -1.242833     9A     -1.014019
      10A     -0.972757    11A     -0.918039    12A     -0.737420
      13A     -0.680492    14A     -0.658557    15A     -0.651306
      16A     -0.588696    17A     -0.576313    18A     -0.568921
      19A     -0.562854    20A     -0.546008    21A     -0.529701
      22A     -0.501538    23A     -0.411188    24A     -0.367477

  @DF-RHF Final Energy:  -286.02966871395745

   => Energetics <=

    Nuclear Repulsion Energy =            252.5537649794472657
    One-Electron Energy =                -888.9751995271174110
    Two-Electron Energy =                 350.3917658337127250
    DFT Exchange-Correlation Energy =       0.0000000000000000
    Empirical Dispersion Energy =           0.0000000000000000
    PCM Polarization Energy =               0.0000000000000000
    EFP Energy =                            0.0000000000000000
    Total Energy =                       -286.0296687139574487
    Molecular point group: c1
  Basis Set: 6-31G*
  Basis Set:

  -Total Gradient:
     Atom            X                  Y                   Z
    ------   -----------------  -----------------  -----------------
       1       -0.000005770301     0.000007666478     0.000010098739
       2        0.000264255822     0.000341261192    -0.000163148125
       3        0.000000185855    -0.000002271775     0.000002424002
       4       -0.000406662459    -0.000534867463     0.000070407207
       5        0.000001947091    -0.000006315144     0.000000988405
       6       -0.000001171580    -0.000000558269    -0.000003043830
       7       -0.000001710547    -0.000000466003    -0.000000108941
       8        0.000310818023     0.000408922392     0.000573441666
       9       -0.000001798544    -0.000006592227     0.000002154270
      10       -0.000159810431    -0.000199680029    -0.000479098716
      11       -0.000001262783    -0.000011037973    -0.000006495486
      12        0.000002214185    -0.000000650317    -0.000006696035
      13        0.000002267333     0.000000109398    -0.000002626037
      14       -0.000004732078     0.000002596362    -0.000000420959
      15        0.000001230415     0.000001883379     0.000002123843

  **** Optimization is complete! (in 18 steps) ****
    Final optimized geometry and variables:
    Molecular point group: c1

    Geometry (in Angstrom), charge = 0, multiplicity = 1:

    O           -0.189807365205    -0.754108859284    -1.522144510766
    C           -0.405777443258    -0.028690824930    -0.588921784282
    C           -1.514748808468     1.003544356949    -0.661389731816
    N            0.307879244240    -0.121029638711     0.569984909815
    H           -1.121143731371     2.012619626456    -0.599043123296
    H           -2.012101904531     0.878240141505    -1.611231880253
    H           -2.234312443365     0.873130438324     0.139233678051
    C            1.439441436396    -1.030001293317     0.581586653624
    C            0.311334889641     0.908942190550     1.587128166234
    H            2.315507496906    -0.590447240100     0.110904312624
    H            1.185914331800    -1.931620260015     0.048863956453
    H            1.682215473288    -1.277645714149     1.607336077099
    H            1.069201577374     1.667998678120     1.400448911373
    H           -0.649221352422     1.394656875165     1.657337812521
    H            0.519722402366     0.456966487746     2.548847449302

  Mulliken Charges: (a.u.)
   Center  Symbol    Alpha    Beta     Spin     Total
       1     O     4.30307  4.30307  0.00000 -0.60613
       2     C     2.62547  2.62547  0.00000  0.74906
       3     C     3.29819  3.29819  0.00000 -0.59638
       4     N     3.82219  3.82219  0.00000 -0.64437
       5     H     0.40757  0.40757  0.00000  0.18485
       6     H     0.39066  0.39066  0.00000  0.21867
       7     H     0.40647  0.40647  0.00000  0.18706
       8     C     3.14076  3.14076  0.00000 -0.28152
       9     C     3.14274  3.14274  0.00000 -0.28547
      10     H     0.41754  0.41754  0.00000  0.16492
      11     H     0.39142  0.39142  0.00000  0.21715
      12     H     0.41934  0.41934  0.00000  0.16133
      13     H     0.41721  0.41721  0.00000  0.16558
      14     H     0.40742  0.40742  0.00000  0.18516
      15     H     0.40996  0.40996  0.00000  0.18008

   Total alpha = 24.00000, Total beta = 24.00000, Total charge =  0.00000
