                              Psi4 1.0.54 Driver

  ==> Input File <==

--------------------------------------------------------------------------
set {
	reference rhf
	basis cc-pvtz
}

set_num_threads( 4 )
memory 2 gb

molecule MOL {
0 1

H	 -4.340537	 -0.784487	 0.000000
O	 -3.958786	 0.074640	 0.000000
C	 -2.613554	 0.009900	 0.000000
C	 -2.031558	 -1.228648	 -0.213204
C	 -1.814846	 1.119000	 0.202108
H	 -2.660810	 -2.082269	 -0.368880
C	 -0.659939	 -1.352154	 -0.223330
H	 -2.259028	 2.083207	 0.368162
C	 -0.437606	 0.993227	 0.191630
H	 -0.211617	 -2.311070	 -0.388418
C	 0.134443	 -0.239722	 -0.020672
H	 0.177760	 1.855971	 0.348795
Br	 2.024637	 -0.415280	 -0.035571

	symmetry c1
}
set optking {
	frozen_dihedral = ("
		4 3 2 1
	")
}

ee,wfn = optimize('scf', return_wfn=True)
oeprop( wfn, 'DIPOLE', 'QUADRUPOLE', 'MULLIKEN_CHARGES')
f=open( 'psi4out.xyz', 'w' )
f.write( "13  " )
f.write( str(ee) + "\n" )
f.write( MOL.save_string_xyz() )
f.close()
--------------------------------------------------------------------------

    Molecular point group: c1
  Charge       = 0
  Multiplicity = 1
  Basis Set: CC-PVTZ
  Basis Set:
  @DF-RHF Final Energy: -2877.54480124692600
    Total Energy =                      -2877.5448012469250898
    Molecular point group: c1
  Basis Set: CC-PVTZ
  Basis Set:
  Basis Set: CC-PVTZ
  Basis Set:
  @DF-RHF Final Energy: -2877.54671338227081
    Total Energy =                      -2877.5467133822698997
  Basis Set: CC-PVTZ
  Basis Set:
  Basis Set: CC-PVTZ
  Basis Set:
  @DF-RHF Final Energy: -2877.54688110860707
    Total Energy =                      -2877.5468811086097958
  Basis Set: CC-PVTZ
  Basis Set:
  Basis Set: CC-PVTZ
  Basis Set:
  @DF-RHF Final Energy: -2877.54690544868481
    Total Energy =                      -2877.5469054486839013
  Basis Set: CC-PVTZ
  Basis Set:
  Basis Set: CC-PVTZ
  Basis Set:
  @DF-RHF Final Energy: -2877.54691029730930
    Total Energy =                      -2877.5469102973111148
  Basis Set: CC-PVTZ
  Basis Set:
  Charge       = 0
  Multiplicity = 1
  Basis Set: CC-PVTZ
  Basis Set:

    Orbital Energies (a.u.)
    -----------------------

    Doubly Occupied:

       1A   -490.018423     2A    -65.158744     3A    -58.513970
       4A    -58.512602     5A    -58.512598     6A    -20.596683
       7A    -11.311941     8A    -11.287712     9A    -11.254030
      10A    -11.252280    11A    -11.242802    12A    -11.237433
      13A     -9.832539    14A     -7.444158    15A     -7.437410
      16A     -7.437337    17A     -3.187847    18A     -3.184290
      19A     -3.184196    20A     -3.175543    21A     -3.175539
      22A     -1.428223    23A     -1.179876    24A     -1.066734
      25A     -1.042214    26A     -0.970517    27A     -0.869871
      28A     -0.828176    29A     -0.758365    30A     -0.689908
      31A     -0.653984    32A     -0.627563    33A     -0.610246
      34A     -0.608648    35A     -0.580900    36A     -0.522492
      37A     -0.513734    38A     -0.501441    39A     -0.427811
      40A     -0.413598    41A     -0.360410    42A     -0.317405

  @DF-RHF Final Energy: -2877.54691061760241

   => Energetics <=

    Nuclear Repulsion Energy =            525.5178293954304536
    One-Electron Energy =               -5042.2690927028561418
    Two-Electron Energy =                1639.2043526898248729
    DFT Exchange-Correlation Energy =       0.0000000000000000
    Empirical Dispersion Energy =           0.0000000000000000
    PCM Polarization Energy =               0.0000000000000000
    EFP Energy =                            0.0000000000000000
    Total Energy =                      -2877.5469106176005880
    Molecular point group: c1
  Basis Set: CC-PVTZ
  Basis Set:

  -Total Gradient:
     Atom            X                  Y                   Z
    ------   -----------------  -----------------  -----------------
       1       -0.000005057085    -0.000014133300     0.000905361729
       2        0.000014299706     0.000079110869    -0.001563405892
       3       -0.000087103855    -0.000202806864     0.001424927047
       4        0.000026727443     0.000108012570    -0.000722237044
       5        0.000087386530     0.000008323831    -0.000028795049
       6       -0.000003951223    -0.000000984391    -0.000003893086
       7       -0.000009440600    -0.000018493354    -0.000004424417
       8       -0.000008353941    -0.000000746684     0.000002044684
       9       -0.000018921165     0.000004858908    -0.000044476719
      10        0.000001177718     0.000006229602     0.000000538609
      11        0.000001440712     0.000030474965     0.000027033234
      12        0.000002885316     0.000002960848     0.000010252073
      13       -0.000001089427    -0.000002806965    -0.000002925173

  **** Optimization is complete! (in 6 steps) ****
    Final optimized geometry and variables:
    Molecular point group: c1

    Geometry (in Angstrom), charge = 0, multiplicity = 1:

    H           -4.388053436055    -0.450361459121     0.012821110150
    O           -3.941667799539     0.377060853050     0.021402350211
    C           -2.605117185364     0.209202198944     0.017416112915
    C           -2.010485700846    -1.019119357242    -0.199548679649
    C           -1.816982144413     1.329544782490     0.220403796151
    H           -2.615452560651    -1.891380606021    -0.366000113348
    C           -0.632225929171    -1.131318813999    -0.205127530729
    H           -2.288586043303     2.277985052211     0.384677056191
    C           -0.444179226056     1.217032061476     0.209977696338
    H           -0.175678408243    -2.086106024390    -0.371409749735
    C            0.145269679862    -0.014594737777    -0.001179904470
    H            0.163552839670     2.085080110424     0.367951039026
    BR           2.037401132979    -0.165420615590    -0.011073287074

  Mulliken Charges: (a.u.)
   Center  Symbol    Alpha    Beta     Spin     Total
       1     H     0.38636  0.38636  0.00000  0.22728
       2     O     4.17100  4.17100  0.00000 -0.34200
       3     C     2.85896  2.85896  0.00000  0.28208
       4     C     3.11846  3.11846  0.00000 -0.23691
       5     C     3.09363  3.09363  0.00000 -0.18726
       6     H     0.43041  0.43041  0.00000  0.13918
       7     C     3.08434  3.08434  0.00000 -0.16868
       8     H     0.41593  0.41593  0.00000  0.16814
       9     C     3.07682  3.07682  0.00000 -0.15365
      10     H     0.41057  0.41057  0.00000  0.17886
      11     C     2.97592  2.97592  0.00000  0.04816
      12     H     0.41066  0.41066  0.00000  0.17869
      13    BR    17.56694 17.56694  0.00000 -0.13388

   Total alpha = 42.00000, Total beta = 42.00000, Total charge =  0.00000

*** Psi4 exiting successfully. Buy a developer a beer!
