  ==> Input File <==

--------------------------------------------------------------------------
set {
	reference rhf
	basis 6-31G*
}

set_num_threads( 4 )
memory 2 gb

molecule MOL {
0 1

H	 -1.573661	 2.348850	 -0.243944
C	 -1.318494	 2.070650	 0.771359
C	 0.004610	 1.315510	 0.815123
H	 -2.126770	 1.460713	 1.156001
H	 -1.257134	 2.974283	 1.368819
C	 -0.000005	 0.033229	 -0.000001
H	 0.269611	 1.060328	 1.839356
H	 0.817925	 1.940702	 0.451737
C	 1.290528	 -0.768786	 0.000276
O	 -0.963295	 -0.324023	 -0.606324
C	 2.545731	 0.095645	 -0.000061
H	 1.275672	 -1.427874	 -0.865626
H	 1.275566	 -1.427086	 0.866768
H	 2.577157	 0.734767	 -0.874036
H	 3.433520	 -0.528139	 0.000137
H	 2.577172	 0.735117	 0.873581

	symmetry c1
}
set optking {
	frozen_dihedral = ("
		3 6 9 12
	")
}

ee = optimize('scf')
oeprop('DIPOLE', 'QUADRUPOLE', 'MULLIKEN_CHARGES')
f=open( 'psi4out.xyz', 'w' )
f.write( "16  " )
f.write( str(ee) + "\n" )
f.write( MOL.save_string_xyz() )
f.close()
--------------------------------------------------------------------------

    Molecular point group: c1
  Charge       = 0
  Multiplicity = 1
  Basis Set: 6-31G*
  Basis Set:
  @DF-RHF Final Energy:  -270.02838962574072
    Total Energy =                       -270.0283896257410561
    Molecular point group: c1
  Basis Set: 6-31G*
  Basis Set:
  Basis Set: 6-31G*
  Basis Set:
  @DF-RHF Final Energy:  -270.02918750090322
    Total Energy =                       -270.0291875009030491
  Basis Set: 6-31G*
  Basis Set:
  Basis Set: 6-31G*
  Basis Set:
  @DF-RHF Final Energy:  -270.02834163336695
    Total Energy =                       -270.0283416333668924
  Basis Set: 6-31G*
  Basis Set:
  Basis Set: 6-31G*
  Basis Set:
  @DF-RHF Final Energy:  -270.03001142877667
    Total Energy =                       -270.0300114287765609
  Basis Set: 6-31G*
  Basis Set:
  Basis Set: 6-31G*
  Basis Set:
  @DF-RHF Final Energy:  -270.03006469287180
    Total Energy =                       -270.0300646928718038
  Basis Set: 6-31G*
  Basis Set:
  Basis Set: 6-31G*
  Basis Set:
  @DF-RHF Final Energy:  -270.03007158863193
    Total Energy =                       -270.0300715886320404
  Basis Set: 6-31G*
  Basis Set:
  Charge       = 0
  Multiplicity = 1
  Basis Set: 6-31G*
  Basis Set:

    Orbital Energies (a.u.)
    -----------------------

    Doubly Occupied:

       1A    -20.548092     2A    -11.323316     3A    -11.233665
       4A    -11.233269     5A    -11.228694     6A    -11.212956
       7A     -1.394056     8A     -1.072910     9A     -1.034922
      10A     -0.907797    11A     -0.865463    12A     -0.722833
      13A     -0.658827    14A     -0.642515    15A     -0.630776
      16A     -0.609106    17A     -0.554451    18A     -0.542960
      19A     -0.534612    20A     -0.510348    21A     -0.505954
      22A     -0.498513    23A     -0.476503    24A     -0.396513

  @DF-RHF Final Energy:  -270.03007187172062

   => Energetics <=

    Nuclear Repulsion Energy =            240.5281482189819826
    One-Electron Energy =                -842.4383429447901790
    Two-Electron Energy =                 331.8801228540877446
    DFT Exchange-Correlation Energy =       0.0000000000000000
    Empirical Dispersion Energy =           0.0000000000000000
    PCM Polarization Energy =               0.0000000000000000
    EFP Energy =                            0.0000000000000000
    Total Energy =                       -270.0300718717204518
    Molecular point group: c1
  Basis Set: 6-31G*
  Basis Set:

  -Total Gradient:
     Atom            X                  Y                   Z
    ------   -----------------  -----------------  -----------------
       1        0.000006249372    -0.000003565135     0.000002489940
       2       -0.000008344886     0.000000679866     0.000010590389
       3        0.000361818151     0.000514168527    -0.000799571606
       4        0.000000179277     0.000002116491    -0.000000050710
       5        0.000001479524    -0.000001592847     0.000003301783
       6       -0.000392631252    -0.000554542346     0.001059647804
       7       -0.000005034164     0.000005888466    -0.000017506923
       8        0.000011617521     0.000014507544    -0.000001437000
       9       -0.000611017555    -0.000895647263     0.000456568941
      10        0.000003162075    -0.000022819806    -0.000011693146
      11        0.000004479626     0.000016064705     0.000001338695
      12        0.000635557059     0.000923620607    -0.000701410582
      13        0.000000353819     0.000004764452    -0.000001775352
      14        0.000002069740     0.000000447511    -0.000002892900
      15       -0.000005567168    -0.000004916229     0.000000350573
      16       -0.000004371137     0.000000825459     0.000002050092

  **** Optimization is complete! (in 7 steps) ****
    Final optimized geometry and variables:
    Molecular point group: c1

    Geometry (in Angstrom), charge = 0, multiplicity = 1:

    H           -2.001136718655     1.842660309034    -0.336377826292
    C           -1.650033697406     1.607845034810     0.660476531084
    C           -0.272365599291     0.957445450045     0.614154803323
    H           -2.377763592110     0.946878650767     1.116051722286
    H           -1.614032642112     2.526069917376     1.237513577784
    C           -0.243190065327    -0.331975183371    -0.187625127609
    H            0.091185009713     0.746315511192     1.618036007312
    H            0.455271799394     1.638583818019     0.178465612365
    C            1.022415455515    -1.177194638856    -0.155122428141
    O           -1.191143438958    -0.696943266670    -0.814574871204
    C            2.347523148036    -0.411450765121    -0.113678318577
    H            0.986649292332    -1.819681113675    -1.026277042710
    H            0.946651473095    -1.821312685873     0.719481094789
    H            2.447920890814     0.254096115758    -0.965522804756
    H            3.177349546338    -1.108881991723    -0.144538099450
    H            2.452235614757     0.180292843294     0.788829845869

  Mulliken Charges: (a.u.)
   Center  Symbol    Alpha    Beta     Spin     Total
       1     H     0.40865  0.40865  0.00000  0.18270
       2     C     3.23429  3.23429  0.00000 -0.46857
       3     C     3.21118  3.21118  0.00000 -0.42237
       4     H     0.41226  0.41226  0.00000  0.17547
       5     H     0.42045  0.42045  0.00000  0.15909
       6     C     2.73250  2.73250  0.00000  0.53500
       7     H     0.41066  0.41066  0.00000  0.17868
       8     H     0.40548  0.40548  0.00000  0.18905
       9     C     3.20187  3.20187  0.00000 -0.40375
      10     O     4.26514  4.26514  0.00000 -0.53029
      11     C     3.25079  3.25079  0.00000 -0.50157
      12     H     0.39818  0.39818  0.00000  0.20363
      13     H     0.40603  0.40603  0.00000  0.18795
      14     H     0.41496  0.41496  0.00000  0.17008
      15     H     0.41100  0.41100  0.00000  0.17800
      16     H     0.41655  0.41655  0.00000  0.16689

   Total alpha = 24.00000, Total beta = 24.00000, Total charge = -0.00000
