                              Psi4 1.0.54 Driver

  ==> Input File <==

--------------------------------------------------------------------------
set {
	reference rhf
	basis cc-pvtz
}

set_num_threads( 4 )
memory 2 gb

molecule MOL {
0 1

O	 2.692597	 -0.258351	 0.530356
C	 1.704209	 0.119472	 -0.000093
C	 0.380337	 -0.600947	 -0.000234
O	 1.634323	 1.253142	 -0.678566
C	 -0.824290	 0.329213	 -0.000115
H	 0.371455	 -1.255476	 -0.865660
H	 0.371410	 -1.255787	 0.864952
C	 -2.146151	 -0.432825	 -0.000068
H	 -0.773936	 0.979158	 -0.866319
H	 -0.773838	 0.979034	 0.866186
C	 -3.366283	 0.483552	 0.000557
H	 -2.189286	 -1.084450	 -0.869996
H	 -2.188867	 -1.085083	 0.869399
C	 -4.687436	 -0.278003	 0.000108
H	 -3.325150	 1.134819	 -0.867957
H	 -3.325087	 1.133730	 0.869885
H	 -4.773783	 -0.912098	 -0.876078
H	 -5.531922	 0.401392	 0.000363
H	 -4.773901	 -0.912898	 0.875703
C	 2.809405	 2.034068	 -0.760186
H	 3.138282	 2.332141	 0.224296
H	 2.550017	 2.901892	 -1.344519
H	 3.601344	 1.481875	 -1.244057

	symmetry c1
}
set optking {
	frozen_dihedral = ("
		1 2 3 6
	")
}

ee,wfn = optimize('scf', return_wfn=True)
oeprop( wfn, 'DIPOLE', 'QUADRUPOLE', 'MULLIKEN_CHARGES')
f=open( 'psi4out.xyz', 'w' )
f.write( "23  " )
f.write( str(ee) + "\n" )
f.write( MOL.save_string_xyz() )
f.close()
--------------------------------------------------------------------------

    Molecular point group: c1
  Charge       = 0
  Multiplicity = 1
  Basis Set: CC-PVTZ
  Basis Set:
  @DF-RHF Final Energy:  -423.12833799182425
    Total Energy =                       -423.1283379918234004
    Molecular point group: c1
  Basis Set: CC-PVTZ
  Basis Set:
  Basis Set: CC-PVTZ
  Basis Set:
  @DF-RHF Final Energy:  -421.30168322642629
    Total Energy =                       -421.3016832264260074
  Basis Set: CC-PVTZ
  Basis Set:
  Basis Set: CC-PVTZ
  Basis Set:
  @DF-RHF Final Energy:  -421.54285514420962
    Total Energy =                       -421.5428551442098524
  Basis Set: CC-PVTZ
  Basis Set:
  Basis Set: CC-PVTZ
  Basis Set:
  @DF-RHF Final Energy:  -422.04569129309652
    Total Energy =                       -422.0456912930960698
  Basis Set: CC-PVTZ
  Basis Set:
  @DF-RHF Final Energy:  -422.52698121043431
    Total Energy =                       -422.5269812104342009
  @DF-RHF Final Energy:  -422.83991570223623
    Total Energy =                       -422.8399157022363397
  @DF-RHF Final Energy:  -423.03867320986308
    Total Energy =                       -423.0386732098628499
  @DF-RHF Final Energy:  -423.11916145726303
    Total Energy =                       -423.1191614572627486
  @DF-RHF Final Energy:  -423.12580058481177
    Total Energy =                       -423.1258005848114863
  @DF-RHF Final Energy:  -423.12863095944408
    Total Energy =                       -423.1286309594440809
  @DF-RHF Final Energy:  -423.12853308833587
    Total Energy =                       -423.1285330883357574
  Basis Set: CC-PVTZ
  Basis Set:
  @DF-RHF Final Energy:  -423.12900239575470
    Total Energy =                       -423.1290023957550375
  Basis Set: CC-PVTZ
  Basis Set:
  Basis Set: CC-PVTZ
  Basis Set:
  @DF-RHF Final Energy:  -423.12912688335228
    Total Energy =                       -423.1291268833525692
  Basis Set: CC-PVTZ
  Basis Set:
  Basis Set: CC-PVTZ
  Basis Set:
  @DF-RHF Final Energy:  -423.12912979711706
    Total Energy =                       -423.1291297971176846
  Basis Set: CC-PVTZ
  Basis Set:
  Charge       = 0
  Multiplicity = 1
  Basis Set: CC-PVTZ
  Basis Set:

    Orbital Energies (a.u.)
    -----------------------

    Doubly Occupied:

       1A    -20.598040     2A    -20.531076     3A    -11.364187
       4A    -11.279014     5A    -11.233462     6A    -11.223144
       7A    -11.218664     8A    -11.217544     9A    -11.209914
      10A     -1.472663    11A     -1.364239    12A     -1.097646
      13A     -1.046195    14A     -0.984327    15A     -0.936594
      16A     -0.848983    17A     -0.798238    18A     -0.776122
      19A     -0.695101    20A     -0.685458    21A     -0.675367
      22A     -0.655019    23A     -0.610455    24A     -0.593890
      25A     -0.579316    26A     -0.566876    27A     -0.553229
      28A     -0.526405    29A     -0.524963    30A     -0.507497
      31A     -0.489442    32A     -0.480380    33A     -0.471110
      34A     -0.469279    35A     -0.457999    36A     -0.428984

  @DF-RHF Final Energy:  -423.12913057469387

   => Energetics <=

    Nuclear Repulsion Energy =            455.7368777837460243
    One-Electron Energy =               -1479.3903732075341395
    Two-Electron Energy =                 600.5243648490945816
    DFT Exchange-Correlation Energy =       0.0000000000000000
    Empirical Dispersion Energy =           0.0000000000000000
    PCM Polarization Energy =               0.0000000000000000
    EFP Energy =                            0.0000000000000000
    Total Energy =                       -423.1291305746935905
    Molecular point group: c1
  Basis Set: CC-PVTZ
  Basis Set:

  -Total Gradient:
     Atom            X                  Y                   Z
    ------   -----------------  -----------------  -----------------
       1        0.000578427635    -0.000674618121     0.000006612637
       2       -0.000899400058     0.000927209261     0.000176357749
       3        0.000418246486    -0.000259431889    -0.000981182374
       4        0.000024902950     0.000018033691    -0.000039753568
       5        0.000012889142     0.000004794526     0.000043950253
       6       -0.000136081029    -0.000000338791     0.000823486359
       7        0.000003218949    -0.000002135016    -0.000004100139
       8       -0.000007748804     0.000006749087    -0.000031381820
       9       -0.000008533042     0.000002447951     0.000001888185
      10        0.000003270162    -0.000017089652    -0.000003290692
      11        0.000015365081    -0.000005851482     0.000025591041
      12       -0.000003914712     0.000015816198     0.000001400147
      13        0.000010966354     0.000000658999    -0.000009148944
      14       -0.000008047037    -0.000009412925    -0.000008571141
      15       -0.000007266053     0.000002163347     0.000007444837
      16        0.000005393041    -0.000017042103    -0.000000401420
      17       -0.000002672634     0.000017072728    -0.000001419834
      18       -0.000002373468    -0.000003217798     0.000004849712
      19        0.000006399665     0.000001636926    -0.000005451804
      20       -0.000010560071    -0.000006892211    -0.000010029311
      21        0.000003252695    -0.000013936964    -0.000004031325
      22        0.000006885101     0.000007242869     0.000009607146
      23       -0.000002620351     0.000006141377    -0.000002425691

  **** Optimization is complete! (in 15 steps) ****
    Final optimized geometry and variables:
    Molecular point group: c1

    Geometry (in Angstrom), charge = 0, multiplicity = 1:

    O            1.657472934518     1.124541585384     2.180623308287
    C            1.330638378850     0.698736943655     1.124832569382
    C            0.225570723982    -0.310444052998     0.931283368824
    O            1.932259251912     1.031515524175    -0.003687641243
    C           -0.574111342181    -0.188788013064    -0.363163319047
    H            0.696464523485    -1.288064612140     0.991620456669
    H           -0.416740581808    -0.225932674146     1.797099467707
    C           -1.699314326659    -1.216554386261    -0.441491610879
    H            0.087721170046    -0.305499577874    -1.212129284789
    H           -0.992884752935     0.810835287417    -0.434830992431
    C           -2.516598195535    -1.115180189016    -1.726028855010
    H           -1.278989026678    -2.216562121214    -0.362688836602
    H           -2.359934818538    -1.096609657237     0.413681074964
    C           -3.639781087480    -2.143725110309    -1.803461881359
    H           -1.857139159896    -1.236501748796    -2.580856312903
    H           -2.936884048751    -0.116440803795    -1.805354729066
    H           -3.248368915030    -3.154708038877    -1.761730186602
    H           -4.199858012929    -2.044269197214    -2.726013117805
    H           -4.335929149208    -2.025899176405    -0.979757753566
    C            3.012071182439     1.939790898346     0.081292919831
    H            2.686611675039     2.879463895720     0.501829409042
    H            3.359756622495     2.083834806333    -0.928794931950
    H            3.803032334479     1.534466126640     0.694545777161

  Mulliken Charges: (a.u.)
   Center  Symbol    Alpha    Beta     Spin     Total
       1     O     4.20117  4.20117  0.00000 -0.40234
       2     C     2.81551  2.81551  0.00000  0.36899
       3     C     3.08284  3.08284  0.00000 -0.16567
       4     O     4.14474  4.14474  0.00000 -0.28948
       5     C     3.09234  3.09234  0.00000 -0.18467
       6     H     0.44537  0.44537  0.00000  0.10927
       7     H     0.43601  0.43601  0.00000  0.12799
       8     C     3.09128  3.09128  0.00000 -0.18256
       9     H     0.44367  0.44367  0.00000  0.11265
      10     H     0.45053  0.45053  0.00000  0.09894
      11     C     3.08385  3.08385  0.00000 -0.16770
      12     H     0.45443  0.45443  0.00000  0.09114
      13     H     0.45326  0.45326  0.00000  0.09347
      14     C     3.15037  3.15037  0.00000 -0.30074
      15     H     0.45388  0.45388  0.00000  0.09225
      16     H     0.45382  0.45382  0.00000  0.09237
      17     H     0.45491  0.45491  0.00000  0.09019
      18     H     0.44774  0.44774  0.00000  0.10452
      19     H     0.45465  0.45465  0.00000  0.09070
      20     C     3.03619  3.03619  0.00000 -0.07239
      21     H     0.45363  0.45363  0.00000  0.09274
      22     H     0.44642  0.44642  0.00000  0.10716
      23     H     0.45341  0.45341  0.00000  0.09318

   Total alpha = 36.00000, Total beta = 36.00000, Total charge =  0.00000

*** Psi4 exiting successfully. Buy a developer a beer!
