  ==> Input File <==

--------------------------------------------------------------------------
set {
	reference rhf
	basis cc-pvtz
}

set_num_threads( 4 )
memory 2 gb

molecule MOL {
0 1

O	 -2.071633	 -1.227563	 -0.223463
C	 -1.652164	 -0.152425	 0.058082
C	 -0.327811	 0.006324	 0.778296
C	 -2.402515	 1.108629	 -0.298924
C	 0.843231	 -0.001575	 -0.211665
H	 -0.319484	 0.928173	 1.350354
H	 -0.227804	 -0.823091	 1.466705
C	 2.197693	 0.138030	 0.476937
H	 0.722944	 0.805202	 -0.930230
H	 0.813976	 -0.926978	 -0.776588
C	 2.993629	 1.340861	 -0.017883
H	 2.049689	 0.219433	 1.550245
H	 2.774432	 -0.767998	 0.315612
H	 2.457239	 2.266647	 0.161673
H	 3.184643	 1.271575	 -1.083285
H	 3.950481	 1.410399	 0.486101
H	 -3.240910	 0.874416	 -0.936711
H	 -1.747554	 1.818823	 -0.790984
H	 -2.760419	 1.579708	 0.610998

	symmetry c1
}
set optking {
	frozen_dihedral = ("
		11 8 5 9
	")
}

ee = optimize('scf')
oeprop('DIPOLE', 'QUADRUPOLE', 'MULLIKEN_CHARGES')
f=open( 'psi4out.xyz', 'w' )
f.write( "19  " )
f.write( str(ee) + "\n" )
f.write( MOL.save_string_xyz() )
f.close()
--------------------------------------------------------------------------

    Molecular point group: c1
  Charge       = 0
  Multiplicity = 1
  Basis Set: CC-PVTZ
  Basis Set:
  @DF-RHF Final Energy:  -309.17130792584413
    Total Energy =                       -309.1713079258440189
    Molecular point group: c1
  Basis Set: CC-PVTZ
  Basis Set:
  Basis Set: CC-PVTZ
  Basis Set:
  @DF-RHF Final Energy:  -309.17155198908654
    Total Energy =                       -309.1715519890864243
  Basis Set: CC-PVTZ
  Basis Set:
  Basis Set: CC-PVTZ
  Basis Set:
  @DF-RHF Final Energy:  -309.17154215352360
    Total Energy =                       -309.1715421535236032
  Basis Set: CC-PVTZ
  Basis Set:
  Basis Set: CC-PVTZ
  Basis Set:
  @DF-RHF Final Energy:  -309.17161402014830
    Total Energy =                       -309.1716140201481267
  Basis Set: CC-PVTZ
  Basis Set:
  Basis Set: CC-PVTZ
  Basis Set:
  @DF-RHF Final Energy:  -309.17161401284812
    Total Energy =                       -309.1716140128478401
  Basis Set: CC-PVTZ
  Basis Set:
  Basis Set: CC-PVTZ
  Basis Set:
  @DF-RHF Final Energy:  -309.17161258741947
    Total Energy =                       -309.1716125874196450
  Basis Set: CC-PVTZ
  Basis Set:
  Charge       = 0
  Multiplicity = 1
  Basis Set: CC-PVTZ
  Basis Set:

    Orbital Energies (a.u.)
    -----------------------

    Doubly Occupied:

       1A    -20.537059     2A    -11.319323     3A    -11.228829
       4A    -11.228227     5A    -11.227035     6A    -11.222932
       7A    -11.214949     8A     -1.397101     9A     -1.090729
      10A     -1.029915    11A     -0.984879    12A     -0.891935
      13A     -0.807675    14A     -0.736126    15A     -0.662590
      16A     -0.646513    17A     -0.621424    18A     -0.614893
      19A     -0.592527    20A     -0.570954    21A     -0.557096
      22A     -0.533810    23A     -0.517778    24A     -0.504454
      25A     -0.483225    26A     -0.470217    27A     -0.468663
      28A     -0.398971

  @DF-RHF Final Energy:  -309.17162354148803

   => Energetics <=

    Nuclear Repulsion Energy =            302.4653069547434256
    One-Electron Energy =               -1018.1542080370329586
    Two-Electron Energy =                 406.5172775408014445
    DFT Exchange-Correlation Energy =       0.0000000000000000
    Empirical Dispersion Energy =           0.0000000000000000
    PCM Polarization Energy =               0.0000000000000000
    EFP Energy =                            0.0000000000000000
    Total Energy =                       -309.1716235414880316
    Molecular point group: c1
  Basis Set: CC-PVTZ
  Basis Set:

  -Total Gradient:
     Atom            X                  Y                   Z
    ------   -----------------  -----------------  -----------------
       1        0.000009907692    -0.000000278832    -0.000018152071
       2       -0.000024986298    -0.000003082866     0.000041765254
       3        0.000009959572     0.000004096832    -0.000010973752
       4       -0.000002985810    -0.000000054190    -0.000002869501
       5       -0.000359958841     0.000515686378     0.000649795746
       6       -0.000002253957    -0.000003172460    -0.000008672135
       7        0.000001798011     0.000003694813     0.000000520042
       8        0.000288408913    -0.000413524218    -0.000530692399
       9        0.000247705268    -0.000327059072    -0.000412536188
      10        0.000003706504    -0.000003672189    -0.000000231016
      11       -0.000182935511     0.000238639373     0.000304504740
      12       -0.000003749731     0.000002566946     0.000000168162
      13        0.000004138559    -0.000006585909    -0.000009999516
      14        0.000000939212    -0.000007149988    -0.000000575355
      15       -0.000002639234    -0.000002928660     0.000006441282
      16        0.000002954458     0.000003924286    -0.000000808208
      17        0.000004174928    -0.000000844589     0.000000138117
      18        0.000000200055     0.000001283659    -0.000002254040
      19        0.000005616203    -0.000001539314    -0.000005569162

  **** Optimization is complete! (in 7 steps) ****
    Final optimized geometry and variables:
    Molecular point group: c1

    Geometry (in Angstrom), charge = 0, multiplicity = 1:

    O           -2.023599108636    -1.412441267706    -0.296059574469
    C           -1.603448229721    -0.337443432854    -0.014774515362
    C           -0.278795375773    -0.179643949108     0.705042076617
    C           -2.353251508533     0.923969206529    -0.371736219585
    C            0.893304447662    -0.185129493247    -0.284970557055
    H           -0.269517330280     0.741649986652     1.278412118579
    H           -0.177142319282    -1.009839042860     1.392235330242
    C            2.266694415089    -0.041113546626     0.403097134877
    H            0.762315610494     0.617144598916    -1.004706893990
    H            0.852808212247    -1.106720251193    -0.851983196198
    C            3.070065265121     1.159073978457    -0.088934591791
    H            2.129628691902     0.045882839585     1.475900779940
    H            2.846009648814    -0.944399213017     0.249983181203
    H            2.534055295837     2.086158510284     0.087247452654
    H            3.265564322699     1.089075455054    -1.153657541273
    H            4.024935366249     1.226884682476     0.419464658956
    H           -3.189723932050     0.690394079066    -1.012275519974
    H           -1.697579671488     1.635796832913    -0.860380143510
    H           -2.714359097062     1.392709067779     0.538157973074

  Mulliken Charges: (a.u.)
   Center  Symbol    Alpha    Beta     Spin     Total
       1     O     4.17687  4.17687  0.00000 -0.35374
       2     C     2.85919  2.85919  0.00000  0.28162
       3     C     3.09957  3.09957  0.00000 -0.19915
       4     C     3.15541  3.15541  0.00000 -0.31082
       5     C     3.10381  3.10381  0.00000 -0.20763
       6     H     0.44895  0.44895  0.00000  0.10210
       7     H     0.43823  0.43823  0.00000  0.12355
       8     C     3.08901  3.08901  0.00000 -0.17803
       9     H     0.45201  0.45201  0.00000  0.09598
      10     H     0.43683  0.43683  0.00000  0.12635
      11     C     3.14799  3.14799  0.00000 -0.29599
      12     H     0.45326  0.45326  0.00000  0.09348
      13     H     0.44658  0.44658  0.00000  0.10683
      14     H     0.45628  0.45628  0.00000  0.08745
      15     H     0.45304  0.45304  0.00000  0.09393
      16     H     0.44770  0.44770  0.00000  0.10461
      17     H     0.43597  0.43597  0.00000  0.12806
      18     H     0.45092  0.45092  0.00000  0.09816
      19     H     0.44838  0.44838  0.00000  0.10323

   Total alpha = 28.00000, Total beta = 28.00000, Total charge = -0.00000
