  ==> Input File <==

--------------------------------------------------------------------------
set {
	reference rhf
	basis cc-pvtz
}

set_num_threads( 4 )
memory 2 gb

molecule MOL {
0 1

H	 2.614283	 2.028610	 0.296620
O	 3.358864	 1.662087	 -0.142800
C	 3.565468	 0.338079	 0.273842
C	 2.533667	 -0.637565	 -0.272227
H	 4.548038	 0.064914	 -0.086598
H	 3.593945	 0.282242	 1.360360
C	 1.114816	 -0.402372	 0.240993
H	 2.544552	 -0.580764	 -1.356576
H	 2.850574	 -1.642962	 -0.005497
C	 0.113298	 -1.420414	 -0.302504
H	 0.796373	 0.598427	 -0.031033
H	 1.113377	 -0.446476	 1.328807
C	 -0.541537	 -2.310883	 0.755093
H	 -0.660002	 -0.897653	 -0.860138
H	 0.623715	 -2.057630	 -1.019371
C	 -1.475686	 -1.585945	 1.722343
H	 -1.106541	 -3.086400	 0.245318
H	 0.232758	 -2.824899	 1.320256
C	 -2.180004	 -2.530236	 2.693252
H	 -2.222455	 -1.035758	 1.153925
H	 -0.922047	 -0.846464	 2.293005
C	 -3.110598	 -1.809310	 3.662866
H	 -2.747348	 -3.266072	 2.130009
H	 -1.435284	 -3.086826	 3.255979
H	 -3.886893	 -1.268756	 3.131446
H	 -3.595653	 -2.507900	 4.335026
H	 -2.566186	 -1.092195	 4.268434

	symmetry c1
}
set optking {
	frozen_dihedral = ("
		14 10 7 4
	")
}

ee = optimize('scf')
oeprop('DIPOLE', 'QUADRUPOLE', 'MULLIKEN_CHARGES')
f=open( 'psi4out.xyz', 'w' )
f.write( "27  " )
f.write( str(ee) + "\n" )
f.write( MOL.save_string_xyz() )
f.close()
--------------------------------------------------------------------------

    Molecular point group: c1
  Charge       = 0
  Multiplicity = 1
  Basis Set: CC-PVTZ
  Basis Set:
  @DF-RHF Final Energy:  -388.42224231227459
    Total Energy =                       -388.4222423122744203
    Molecular point group: c1
  Basis Set: CC-PVTZ
  Basis Set:
  Basis Set: CC-PVTZ
  Basis Set:
  @DF-RHF Final Energy:  -388.42250337938259
    Total Energy =                       -388.4225033793824196
  Basis Set: CC-PVTZ
  Basis Set:
  Basis Set: CC-PVTZ
  Basis Set:
  @DF-RHF Final Energy:  -388.42268287155571
    Total Energy =                       -388.4226828715562760
  Basis Set: CC-PVTZ
  Basis Set:
  Basis Set: CC-PVTZ
  Basis Set:
  @DF-RHF Final Energy:  -388.42268373596812
    Total Energy =                       -388.4226837359676665
  Basis Set: CC-PVTZ
  Basis Set:
  Basis Set: CC-PVTZ
  Basis Set:
  @DF-RHF Final Energy:  -388.42269258323091
    Total Energy =                       -388.4226925832302868
  Basis Set: CC-PVTZ
  Basis Set:
  Basis Set: CC-PVTZ
  Basis Set:
  @DF-RHF Final Energy:  -388.42269431544787
    Total Energy =                       -388.4226943154477567
  Basis Set: CC-PVTZ
  Basis Set:
  Charge       = 0
  Multiplicity = 1
  Basis Set: CC-PVTZ
  Basis Set:

    Orbital Energies (a.u.)
    -----------------------

    Doubly Occupied:

       1A    -20.545269     2A    -11.264854     3A    -11.217075
       4A    -11.214482     5A    -11.214261     6A    -11.213848
       7A    -11.213712     8A    -11.212179     9A    -11.207723
      10A     -1.363187    11A     -1.095490    12A     -1.061847
      13A     -1.012330    14A     -0.948672    15A     -0.888777
      16A     -0.823133    17A     -0.802818    18A     -0.776702
      19A     -0.695766    20A     -0.656930    21A     -0.632949
      22A     -0.616863    23A     -0.598732    24A     -0.588035
      25A     -0.580814    26A     -0.550989    27A     -0.546586
      28A     -0.529278    29A     -0.504641    30A     -0.502820
      31A     -0.483640    32A     -0.474938    33A     -0.465781
      34A     -0.457955    35A     -0.452964    36A     -0.443021
      37A     -0.425884

  @DF-RHF Final Energy:  -388.42269507107653

   => Energetics <=

    Nuclear Repulsion Energy =            459.7786848988711199
    One-Electron Energy =               -1437.8328668790932170
    Two-Electron Energy =                 589.6314869091454511
    DFT Exchange-Correlation Energy =       0.0000000000000000
    Empirical Dispersion Energy =           0.0000000000000000
    PCM Polarization Energy =               0.0000000000000000
    EFP Energy =                            0.0000000000000000
    Total Energy =                       -388.4226950710766459
    Molecular point group: c1
  Basis Set: CC-PVTZ
  Basis Set:

  -Total Gradient:
     Atom            X                  Y                   Z
    ------   -----------------  -----------------  -----------------
       1        0.000006112039     0.000002208650     0.000006782148
       2       -0.000008958049    -0.000002165537    -0.000007760022
       3        0.000001560554     0.000003256636    -0.000002111190
       4        0.000016711487    -0.000052903787     0.000064027048
       5        0.000001799502     0.000001530656     0.000001594664
       6       -0.000001775746    -0.000000900792    -0.000000969643
       7       -0.000051838567     0.000103748283    -0.000066713091
       8       -0.000002159487    -0.000007148742     0.000002038844
       9        0.000003109342    -0.000000056547     0.000006801255
      10        0.000074656278    -0.000022762873    -0.000103060258
      11        0.000002537478     0.000001124454     0.000004211686
      12        0.000001017517    -0.000009451468    -0.000003179735
      13        0.000019651772     0.000012051652     0.000017975678
      14       -0.000063180038    -0.000021599723     0.000078469151
      15        0.000034383029     0.000003510838     0.000018323196
      16        0.000013876193    -0.000004305085     0.000008666970
      17       -0.000036111442     0.000029035193    -0.000009898464
      18       -0.000005618533    -0.000042712912    -0.000029943251
      19       -0.000000592231     0.000005911761     0.000005930407
      20       -0.000010642034    -0.000001566169     0.000009542368
      21        0.000001464574     0.000000198251    -0.000007581060
      22       -0.000006237743    -0.000003545701    -0.000000447578
      23        0.000010326548    -0.000003117216    -0.000000061157
      24        0.000001326423     0.000009494301     0.000005611243
      25        0.000001419210     0.000001231200    -0.000000189557
      26       -0.000003116254     0.000000370954     0.000000643682
      27        0.000000278179    -0.000001436274     0.000001296663

  **** Optimization is complete! (in 7 steps) ****
    Final optimized geometry and variables:
    Molecular point group: c1

    Geometry (in Angstrom), charge = 0, multiplicity = 1:

    H            2.233179238937     2.924622260287    -0.578295804595
    O            2.972795035294     2.572283960143    -1.037056072231
    C            3.169577407726     1.228856462729    -0.682707007627
    C            2.119155310243     0.290444956193    -1.256738640894
    H            4.143891142704     0.961400630372    -1.068985754912
    H            3.212533326083     1.124204330271     0.399787850541
    C            0.709043674123     0.516129259503    -0.712845930487
    H            2.114747392339     0.394518469339    -2.337495463918
    H            2.426328795622    -0.730054299095    -1.039277870676
    C           -0.324914138306    -0.483382614473    -1.275325683397
    H            0.395728749439     1.529496583996    -0.939715227789
    H            0.739926098788     0.443453514107     0.370561878349
    C           -0.969935006403    -1.391416233084    -0.226035759189
    H           -1.108602598044     0.051431416719    -1.802325359771
    H            0.158024509007    -1.108265422656    -2.019032251582
    C           -1.935456813225    -0.675255989521     0.715916897104
    H           -1.508686722382    -2.185687223749    -0.735266844404
    H           -0.189776701502    -1.879061206048     0.354656436469
    C           -2.551268881858    -1.598187504252     1.764057924225
    H           -2.730160739198    -0.221021833979     0.128330270781
    H           -1.427503652812     0.142234707474     1.219987890420
    C           -3.531327743595    -0.885565211472     2.690051976069
    H           -3.059555630008    -2.418860850113     1.265254128051
    H           -1.758584275968    -2.047310618052     2.356325215985
    H           -4.355449578301    -0.454988121832     2.130963144033
    H           -3.949234229425    -1.568432683235     3.420839499583
    H           -3.044580015015    -0.080532989392     3.230732275692

  Mulliken Charges: (a.u.)
   Center  Symbol    Alpha    Beta     Spin     Total
       1     H     0.39249  0.39249  0.00000  0.21502
       2     O     4.20547  4.20547  0.00000 -0.41095
       3     C     2.98008  2.98008  0.00000  0.03985
       4     C     3.08668  3.08668  0.00000 -0.17335
       5     H     0.44882  0.44882  0.00000  0.10236
       6     H     0.46997  0.46997  0.00000  0.06006
       7     C     3.11189  3.11189  0.00000 -0.22378
       8     H     0.44972  0.44972  0.00000  0.10056
       9     H     0.45571  0.45571  0.00000  0.08857
      10     C     3.10730  3.10730  0.00000 -0.21460
      11     H     0.45008  0.45008  0.00000  0.09983
      12     H     0.45232  0.45232  0.00000  0.09537
      13     C     3.09618  3.09618  0.00000 -0.19236
      14     H     0.44654  0.44654  0.00000  0.10692
      15     H     0.44703  0.44703  0.00000  0.10594
      16     C     3.08814  3.08814  0.00000 -0.17627
      17     H     0.44781  0.44781  0.00000  0.10438
      18     H     0.45431  0.45431  0.00000  0.09138
      19     C     3.08440  3.08440  0.00000 -0.16880
      20     H     0.45417  0.45417  0.00000  0.09166
      21     H     0.45383  0.45383  0.00000  0.09233
      22     C     3.14980  3.14980  0.00000 -0.29959
      23     H     0.45379  0.45379  0.00000  0.09242
      24     H     0.45469  0.45469  0.00000  0.09062
      25     H     0.45500  0.45500  0.00000  0.08999
      26     H     0.44822  0.44822  0.00000  0.10355
      27     H     0.45556  0.45556  0.00000  0.08888

   Total alpha = 37.00000, Total beta = 37.00000, Total charge = -0.00000
