  ==> Input File <==

--------------------------------------------------------------------------
set {
	reference rhf
	basis 6-31G*
}

set_num_threads( 1 )
memory 2 gb

molecule MOL {
0 1

H	 -3.420663	 1.227371	 -1.044276
O	 -3.452007	 0.283848	 -0.965577
C	 -3.181085	 -0.079926	 0.364119
C	 -1.765924	 0.277073	 0.805136
H	 -3.327791	 -1.152017	 0.410903
H	 -3.905698	 0.375695	 1.036898
C	 -0.677594	 -0.417312	 -0.014550
H	 -1.637766	 1.358238	 0.744969
H	 -1.659588	 0.017670	 1.857098
C	 -1.231622	 -1.463524	 -0.983917
H	 0.034177	 -0.883187	 0.660025
H	 -0.121627	 0.333651	 -0.573432
C	 -0.136876	 -2.150061	 -1.805064
H	 -1.793694	 -2.204761	 -0.420835
H	 -1.942550	 -0.990217	 -1.660059
C	 -0.649456	 -3.143651	 -2.853965
H	 0.549823	 -2.661554	 -1.132371
H	 0.449017	 -1.385777	 -2.311441
C	 -1.340100	 -4.379810	 -2.274892
H	 0.192204	 -3.467735	 -3.461311
H	 -1.331641	 -2.632483	 -3.530377
H	 -0.685352	 -4.904739	 -1.584317
H	 -1.611811	 -5.074604	 -3.063734
H	 -2.248874	 -4.124596	 -1.739953

	symmetry c1
}
set optking {
	frozen_dihedral = ("
		20 16 13 17,
		17 13 10 7,
		13 10 7 11,
		1 2 3 5,
		7 4 3 2
	")
}

ee = energy('scf')
oeprop('DIPOLE', 'QUADRUPOLE', 'MULLIKEN_CHARGES')
f=open( 'psi4out.xyz', 'w' )
f.write( "24  " )
f.write( str(ee) + "\n" )
f.write( MOL.save_string_xyz() )
f.close()
--------------------------------------------------------------------------

    Molecular point group: c1

    Geometry (in Angstrom), charge = 0, multiplicity = 1:

       Center              X                  Y                   Z               Mass
    ------------   -----------------  -----------------  -----------------  -----------------
           H         -1.821938785936     2.589066395417    -0.075125550753     1.007825032070
           O         -1.853282785936     1.645543395417     0.003573449247    15.994914619560
           C         -1.582360785936     1.281769395417     1.333269449247    12.000000000000
           C         -0.167199785936     1.638768395417     1.774286449247    12.000000000000
           H         -1.729066785936     0.209678395417     1.380053449247     1.007825032070
           H         -2.306973785936     1.737390395417     2.006048449247     1.007825032070
           C          0.921130214064     0.944383395417     0.954600449247    12.000000000000
           H         -0.039041785936     2.719933395417     1.714119449247     1.007825032070
           H         -0.060863785936     1.379365395417     2.826248449247     1.007825032070
           C          0.367102214064    -0.101828604583    -0.014766550753    12.000000000000
           H          1.632901214064     0.478508395417     1.629175449247     1.007825032070
           H          1.477097214064     1.695346395417     0.395718449247     1.007825032070
           C          1.461848214064    -0.788365604583    -0.835913550753    12.000000000000
           H         -0.194969785936    -0.843065604583     0.548315449247     1.007825032070
           H         -0.343825785936     0.371478395417    -0.690908550753     1.007825032070
           C          0.949268214064    -1.781955604583    -1.884814550753    12.000000000000
           H          2.148547214064    -1.299858604583    -0.163220550753     1.007825032070
           H          2.047741214064    -0.024081604583    -1.342290550753     1.007825032070
           C          0.258624214064    -3.018114604583    -1.305741550753    12.000000000000
           H          1.790928214064    -2.106039604583    -2.492160550753     1.007825032070
           H          0.267083214064    -1.270787604583    -2.561226550753     1.007825032070
           H          0.913372214064    -3.543043604583    -0.615166550753     1.007825032070
           H         -0.013086785936    -3.712908604583    -2.094583550753     1.007825032070
           H         -0.650149785936    -2.762900604583    -0.770802550753     1.007825032070

  Charge       = 0
  Multiplicity = 1
  Basis Set: 6-31G*
  Basis Set:

    Orbital Energies (a.u.)
    -----------------------

    Doubly Occupied:

       1A    -20.556035     2A    -11.267816     3A    -11.216606
       4A    -11.209417     5A    -11.207230     6A    -11.203385
       7A    -11.201493     8A    -11.195946     9A     -1.364734
      10A     -1.083956    11A     -1.044770    12A     -0.976887
      13A     -0.911491    14A     -0.861036    15A     -0.789954
      16A     -0.764581    17A     -0.686001    18A     -0.652143
      19A     -0.623434    20A     -0.615522    21A     -0.592868
      22A     -0.583163    23A     -0.549275    24A     -0.538075
      25A     -0.512823    26A     -0.510026    27A     -0.494748
      28A     -0.483050    29A     -0.464814    30A     -0.455088
      31A     -0.439266    32A     -0.430545    33A     -0.416110

  @DF-RHF Final Energy:  -349.23191793837873

   => Energetics <=

    Nuclear Repulsion Energy =            402.0406928326710840
    One-Electron Energy =               -1270.7406444789116904
    Two-Electron Energy =                 519.4680337078616503
    DFT Exchange-Correlation Energy =       0.0000000000000000
    Empirical Dispersion Energy =           0.0000000000000000
    PCM Polarization Energy =               0.0000000000000000
    EFP Energy =                            0.0000000000000000
    Total Energy =                       -349.2319179383789560

  Mulliken Charges: (a.u.)
   Center  Symbol    Alpha    Beta     Spin     Total
       1     H     0.28292  0.28292  0.00000  0.43415
       2     O     4.36800  4.36800  0.00000 -0.73601
       3     C     3.00771  3.00771  0.00000 -0.01542
       4     C     3.16885  3.16885  0.00000 -0.33769
       5     H     0.41207  0.41207  0.00000  0.17585
       6     H     0.42442  0.42442  0.00000  0.15115
       7     C     3.15234  3.15234  0.00000 -0.30468
       8     H     0.42532  0.42532  0.00000  0.14936
       9     H     0.41981  0.41981  0.00000  0.16037
      10     C     3.17492  3.17492  0.00000 -0.34984
      11     H     0.42109  0.42109  0.00000  0.15781
      12     H     0.42228  0.42228  0.00000  0.15543
      13     C     3.14880  3.14880  0.00000 -0.29761
      14     H     0.42634  0.42634  0.00000  0.14733
      15     H     0.38957  0.38957  0.00000  0.22086
      16     C     3.15142  3.15142  0.00000 -0.30283
      17     H     0.42861  0.42861  0.00000  0.14277
      18     H     0.42514  0.42514  0.00000  0.14971
      19     C     3.24056  3.24056  0.00000 -0.48112
      20     H     0.42324  0.42324  0.00000  0.15352
      21     H     0.42231  0.42231  0.00000  0.15537
      22     H     0.42390  0.42390  0.00000  0.15219
      23     H     0.42064  0.42064  0.00000  0.15872
      24     H     0.41971  0.41971  0.00000  0.16058

   Total alpha = 33.00000, Total beta = 33.00000, Total charge = -0.00000
