  ==> Input File <==

--------------------------------------------------------------------------
set {
	reference rhf
	basis 6-31G*
}

set_num_threads( 1 )
memory 2 gb

molecule MOL {
0 1

H	 -3.358846	 2.238431	 -1.386428
O	 -2.650448	 1.655357	 -1.619027
C	 -1.858099	 1.400079	 -0.487830
C	 -0.734986	 0.463567	 -0.896866
H	 -1.445238	 2.327068	 -0.092175
H	 -2.453750	 0.945023	 0.302401
C	 0.198102	 0.111031	 0.262842
H	 -0.173423	 0.933397	 -1.699757
H	 -1.176085	 -0.438849	 -1.311058
C	 1.331804	 -0.827780	 -0.158768
H	 0.611128	 1.026179	 0.680080
H	 -0.375320	 -0.358739	 1.060978
C	 2.723619	 -0.410569	 0.329459
H	 1.342964	 -0.912588	 -1.244120
H	 1.116806	 -1.824343	 0.220779
C	 3.243875	 0.895854	 -0.272975
H	 3.424222	 -1.207124	 0.091250
H	 2.714788	 -0.329854	 1.414619
H	 3.251977	 0.848779	 -1.358681
H	 2.637085	 1.747371	 0.016682
H	 4.259473	 1.094070	 0.055697

	symmetry c1
}
set optking {
	frozen_dihedral = ("
		2 3 4 8,
		8 4 7 10,
		16 13 10 14,
		1 2 3 5
	")
}

ee = energy('scf')
oeprop('DIPOLE', 'QUADRUPOLE', 'MULLIKEN_CHARGES')
f=open( 'psi4out.xyz', 'w' )
f.write( "21  " )
f.write( str(ee) + "\n" )
f.write( MOL.save_string_xyz() )
f.close()
--------------------------------------------------------------------------

    Molecular point group: c1

    Geometry (in Angstrom), charge = 0, multiplicity = 1:

       Center              X                  Y                   Z               Mass
    ------------   -----------------  -----------------  -----------------  -----------------
           H         -3.622449186574     1.727190438048    -0.956857982007     1.007825032070
           O         -2.914051186574     1.144116438048    -1.189456982007    15.994914619560
           C         -2.121702186574     0.888838438048    -0.058259982007    12.000000000000
           C         -0.998589186574    -0.047673561952    -0.467295982007    12.000000000000
           H         -1.708841186574     1.815827438048     0.337395017993     1.007825032070
           H         -2.717353186574     0.433782438048     0.731971017993     1.007825032070
           C         -0.065501186574    -0.400209561952     0.692412017993    12.000000000000
           H         -0.437026186574     0.422156438048    -1.270186982007     1.007825032070
           H         -1.439688186574    -0.950089561952    -0.881487982007     1.007825032070
           C          1.068200813426    -1.339020561952     0.270802017993    12.000000000000
           H          0.347524813426     0.514938438048     1.109650017993     1.007825032070
           H         -0.638923186574    -0.869979561952     1.490548017993     1.007825032070
           C          2.460015813426    -0.921809561952     0.759029017993    12.000000000000
           H          1.079360813426    -1.423828561952    -0.814549982007     1.007825032070
           H          0.853202813426    -2.335583561952     0.650349017993     1.007825032070
           C          2.980271813426     0.384613438048     0.156595017993    12.000000000000
           H          3.160618813426    -1.718364561952     0.520820017993     1.007825032070
           H          2.451184813426    -0.841094561952     1.844189017993     1.007825032070
           H          2.988373813426     0.337538438048    -0.929110982007     1.007825032070
           H          2.373481813426     1.236130438048     0.446252017993     1.007825032070
           H          3.995869813426     0.582829438048     0.485267017993     1.007825032070

  Charge       = 0
  Multiplicity = 1
  Basis Set: 6-31G*
  Basis Set:

    Orbital Energies (a.u.)
    -----------------------

    Doubly Occupied:

       1A    -20.551521     2A    -11.266368     3A    -11.215135
       4A    -11.214235     5A    -11.212085     6A    -11.210631
       7A    -11.208091     8A     -1.358339     9A     -1.086420
      10A     -1.032192    11A     -0.954620    12A     -0.875490
      13A     -0.807095    14A     -0.778961    15A     -0.692238
      16A     -0.660495    17A     -0.618716    18A     -0.612828
      19A     -0.586758    20A     -0.558794    21A     -0.547893
      22A     -0.521345    23A     -0.501614    24A     -0.491313
      25A     -0.481438    26A     -0.458959    27A     -0.451408
      28A     -0.441989    29A     -0.433876

  @DF-RHF Final Energy:  -310.20772863179786

   => Energetics <=

    Nuclear Repulsion Energy =            315.3837569783220260
    One-Electron Energy =               -1045.5218844130370144
    Two-Electron Energy =                 419.9303988029157040
    DFT Exchange-Correlation Energy =       0.0000000000000000
    Empirical Dispersion Energy =           0.0000000000000000
    PCM Polarization Energy =               0.0000000000000000
    EFP Energy =                            0.0000000000000000
    Total Energy =                       -310.2077286317992844

  Mulliken Charges: (a.u.)
   Center  Symbol    Alpha    Beta     Spin     Total
       1     H     0.28125  0.28125  0.00000  0.43749
       2     O     4.37179  4.37179  0.00000 -0.74359
       3     C     2.99025  2.99025  0.00000  0.01949
       4     C     3.16178  3.16178  0.00000 -0.32355
       5     H     0.43308  0.43308  0.00000  0.13384
       6     H     0.43299  0.43299  0.00000  0.13402
       7     C     3.16310  3.16310  0.00000 -0.32620
       8     H     0.41429  0.41429  0.00000  0.17142
       9     H     0.41432  0.41432  0.00000  0.17136
      10     C     3.15455  3.15455  0.00000 -0.30910
      11     H     0.42107  0.42107  0.00000  0.15787
      12     H     0.42106  0.42106  0.00000  0.15787
      13     C     3.15402  3.15402  0.00000 -0.30803
      14     H     0.41969  0.41969  0.00000  0.16062
      15     H     0.41973  0.41973  0.00000  0.16053
      16     C     3.24074  3.24074  0.00000 -0.48148
      17     H     0.42136  0.42136  0.00000  0.15728
      18     H     0.42361  0.42361  0.00000  0.15278
      19     H     0.42125  0.42125  0.00000  0.15750
      20     H     0.42107  0.42107  0.00000  0.15787
      21     H     0.41899  0.41899  0.00000  0.16202

   Total alpha = 29.00000, Total beta = 29.00000, Total charge = -0.00000
