  ==> Input File <==

--------------------------------------------------------------------------
set {
	reference rhf
	basis 6-31G*
}

set_num_threads( 4 )
memory 2 gb

molecule MOL {
0 1

H	 1.644128	 -1.684638	 -0.309275
O	 2.016064	 -0.864478	 0.000222
C	 1.050492	 0.053836	 0.000068
C	 -0.318135	 -0.576402	 0.000164
O	 1.285279	 1.218255	 -0.000078
C	 -1.454360	 0.441875	 -0.000474
H	 -0.374042	 -1.230163	 -0.866135
H	 -0.374274	 -1.229227	 0.867154
C	 -2.826123	 -0.230780	 0.000056
H	 -1.357605	 1.085198	 -0.868380
H	 -1.357504	 1.086451	 0.866496
H	 -2.959731	 -0.858053	 -0.876869
H	 -3.619374	 0.509403	 -0.000080
H	 -2.959371	 -0.857318	 0.877556

	symmetry c1
}
set optking {
	frozen_dihedral = ("
		1 2 3 5
	")
}

ee = optimize('scf')
oeprop('DIPOLE', 'QUADRUPOLE', 'MULLIKEN_CHARGES')
f=open( 'psi4out.xyz', 'w' )
f.write( "14  " )
f.write( str(ee) + "\n" )
f.write( MOL.save_string_xyz() )
f.close()
--------------------------------------------------------------------------

    Molecular point group: c1
  Charge       = 0
  Multiplicity = 1
  Basis Set: 6-31G*
  Basis Set:
  @DF-RHF Final Energy:  -305.86687741785943
    Total Energy =                       -305.8668774178593139
    Molecular point group: c1
  Basis Set: 6-31G*
  Basis Set:
  Basis Set: 6-31G*
  Basis Set:
  @DF-RHF Final Energy:  -305.86827424625176
    Total Energy =                       -305.8682742462515876
  Basis Set: 6-31G*
  Basis Set:
  Basis Set: 6-31G*
  Basis Set:
  @DF-RHF Final Energy:  -305.86845929703111
    Total Energy =                       -305.8684592970309950
  Basis Set: 6-31G*
  Basis Set:
  Basis Set: 6-31G*
  Basis Set:
  @DF-RHF Final Energy:  -305.86844377424939
    Total Energy =                       -305.8684437742492719
  Basis Set: 6-31G*
  Basis Set:
  Basis Set: 6-31G*
  Basis Set:
  @DF-RHF Final Energy:  -305.86846287820106
    Total Energy =                       -305.8684628782010009
  Basis Set: 6-31G*
  Basis Set:
  Charge       = 0
  Multiplicity = 1
  Basis Set: 6-31G*
  Basis Set:

    Orbital Energies (a.u.)
    -----------------------

    Doubly Occupied:

       1A    -20.611281     2A    -20.549389     3A    -11.381090
       4A    -11.252933     5A    -11.231468     6A    -11.222432
       7A     -1.467735     8A     -1.370517     9A     -1.088170
      10A     -0.978755    11A     -0.853032    12A     -0.817815
      13A     -0.720327    14A     -0.672721    15A     -0.658375
      16A     -0.621279    17A     -0.587835    18A     -0.582709
      19A     -0.552906    20A     -0.508899    21A     -0.496222
      22A     -0.489051    23A     -0.476333    24A     -0.440916

  @DF-RHF Final Energy:  -305.86846417272250

   => Energetics <=

    Nuclear Repulsion Energy =            239.8383812827181600
    One-Electron Energy =                -892.1493080174927854
    Two-Electron Energy =                 346.4424625620521851
    DFT Exchange-Correlation Energy =       0.0000000000000000
    Empirical Dispersion Energy =           0.0000000000000000
    PCM Polarization Energy =               0.0000000000000000
    EFP Energy =                            0.0000000000000000
    Total Energy =                       -305.8684641727224403
    Molecular point group: c1
  Basis Set: 6-31G*
  Basis Set:

  -Total Gradient:
     Atom            X                  Y                   Z
    ------   -----------------  -----------------  -----------------
       1        0.001042713250     0.001169134710    -0.004371760169
       2       -0.001340631325    -0.001509097000     0.003739895373
       3        0.000315018882     0.000302034322     0.004639019634
       4        0.000007651359     0.000006263015     0.000001344760
       5       -0.000016157396     0.000036778136    -0.004008553390
       6       -0.000001643739    -0.000000669722     0.000007928893
       7       -0.000001202404     0.000000196478     0.000001715757
       8       -0.000001606887     0.000002382031    -0.000004705291
       9       -0.000007404040     0.000001726840    -0.000006561413
      10       -0.000000375462    -0.000002639377     0.000001507453
      11        0.000003933187    -0.000005337672    -0.000000411700
      12        0.000000303993    -0.000002629104    -0.000000100655
      13       -0.000001109575    -0.000000597365    -0.000001785168
      14        0.000000510148     0.000002454707     0.000002465917

  **** Optimization is complete! (in 6 steps) ****
    Final optimized geometry and variables:
    Molecular point group: c1

    Geometry (in Angstrom), charge = 0, multiplicity = 1:

    H            1.804989105278    -1.682042271679    -0.292314950521
    O            2.077046065459    -0.824105498246     0.005324142164
    C            1.062643075195     0.052249121444     0.001904073710
    C           -0.318940493552    -0.570143924015     0.002417535567
    O            1.277296681396     1.213697142173    -0.002326150068
    C           -1.447732094985     0.456623330024     0.005552186162
    H           -0.398870752395    -1.218361003882    -0.869916742101
    H           -0.387298627802    -1.222955928038     0.870268931801
    C           -2.825644890537    -0.202978406026     0.007522359521
    H           -1.343938693713     1.100348367137    -0.860648600666
    H           -1.339940439761     1.096734123666     0.873856472988
    H           -2.968542492371    -0.826579724104    -0.870721494138
    H           -3.610744087855     0.545585191882     0.010500920380
    H           -2.964279154298    -0.829452829937     0.884262115234

  Mulliken Charges: (a.u.)
   Center  Symbol    Alpha    Beta     Spin     Total
       1     H     0.26901  0.26901  0.00000  0.46198
       2     O     4.35348  4.35348  0.00000 -0.70697
       3     C     2.60841  2.60841  0.00000  0.78317
       4     C     3.23380  3.23380  0.00000 -0.46760
       5     O     4.26138  4.26138  0.00000 -0.52277
       6     C     3.15035  3.15035  0.00000 -0.30070
       7     H     0.40938  0.40938  0.00000  0.18124
       8     H     0.40114  0.40114  0.00000  0.19772
       9     C     3.24377  3.24377  0.00000 -0.48755
      10     H     0.40758  0.40758  0.00000  0.18484
      11     H     0.40672  0.40672  0.00000  0.18656
      12     H     0.42156  0.42156  0.00000  0.15689
      13     H     0.41259  0.41259  0.00000  0.17482
      14     H     0.42081  0.42081  0.00000  0.15838

   Total alpha = 24.00000, Total beta = 24.00000, Total charge = -0.00000
