  ==> Input File <==

--------------------------------------------------------------------------
set {
	reference rhf
	basis cc-pvtz
}

set_num_threads( 4 )
memory 2 gb

molecule MOL {
0 1

H	 -1.088256	 -1.364742	 0.152233
O	 -1.432053	 -0.565244	 -0.200812
C	 -0.727158	 0.534527	 0.310686
C	 0.680222	 0.664433	 -0.252229
H	 -1.306802	 1.408001	 0.044211
H	 -0.690821	 0.490158	 1.397609
C	 1.594324	 1.567825	 0.570174
H	 1.115732	 -0.326440	 -0.327945
H	 0.601876	 1.054290	 -1.263427
H	 1.745017	 1.177267	 1.570614
H	 2.571450	 1.653282	 0.110309
H	 1.183020	 2.568881	 0.657764

	symmetry c1
}
set optking {
	frozen_dihedral = ("
		8 4 3 2
	")
}

ee = optimize('scf')
oeprop('DIPOLE', 'QUADRUPOLE', 'MULLIKEN_CHARGES')
f=open( 'psi4out.xyz', 'w' )
f.write( "12  " )
f.write( str(ee) + "\n" )
f.write( MOL.save_string_xyz() )
f.close()
--------------------------------------------------------------------------

    Molecular point group: c1
  Charge       = 0
  Multiplicity = 1
  Basis Set: CC-PVTZ
  Basis Set:
  @DF-RHF Final Energy:  -193.18926834930014
    Total Energy =                       -193.1892683493002210
    Molecular point group: c1
  Basis Set: CC-PVTZ
  Basis Set:
  Basis Set: CC-PVTZ
  Basis Set:
  @DF-RHF Final Energy:  -193.18959147650702
    Total Energy =                       -193.1895914765069335
  Basis Set: CC-PVTZ
  Basis Set:
  Basis Set: CC-PVTZ
  Basis Set:
  @DF-RHF Final Energy:  -193.18963566147522
    Total Energy =                       -193.1896356614752222
  Basis Set: CC-PVTZ
  Basis Set:
  Basis Set: CC-PVTZ
  Basis Set:
  @DF-RHF Final Energy:  -193.18964136238131
    Total Energy =                       -193.1896413623812805
  Basis Set: CC-PVTZ
  Basis Set:
  Charge       = 0
  Multiplicity = 1
  Basis Set: CC-PVTZ
  Basis Set:

    Orbital Energies (a.u.)
    -----------------------

    Doubly Occupied:

       1A    -20.545855     2A    -11.265937     3A    -11.218130
       4A    -11.214797     5A     -1.364442     6A     -1.054059
       7A     -0.919897     8A     -0.820417     9A     -0.695457
      10A     -0.637471    11A     -0.599502    12A     -0.583021
      13A     -0.554158    14A     -0.506118    15A     -0.495753
      16A     -0.467648    17A     -0.432220

  @DF-RHF Final Energy:  -193.18964175850002

   => Energetics <=

    Nuclear Repulsion Energy =            131.1377955123066101
    One-Electron Energy =                -521.9051064712515426
    Two-Electron Energy =                 197.5776692004450297
    DFT Exchange-Correlation Energy =       0.0000000000000000
    Empirical Dispersion Energy =           0.0000000000000000
    PCM Polarization Energy =               0.0000000000000000
    EFP Energy =                            0.0000000000000000
    Total Energy =                       -193.1896417584998744
    Molecular point group: c1
  Basis Set: CC-PVTZ
  Basis Set:

  -Total Gradient:
     Atom            X                  Y                   Z
    ------   -----------------  -----------------  -----------------
       1        0.000006504032    -0.000001016449     0.000005040350
       2        0.001143282833    -0.001854407156     0.002475827042
       3       -0.001866305118     0.002495438721    -0.004230610272
       4        0.002323158925    -0.000205612665     0.005646778192
       5       -0.000012383654    -0.000019188323    -0.000016332660
       6       -0.000016368151    -0.000011699160     0.000014941721
       7       -0.000019064292    -0.000047315235    -0.000022974936
       8       -0.001533294791    -0.000393691932    -0.003855060533
       9       -0.000001634233     0.000012836835    -0.000022907284
      10        0.000002622583     0.000001549283    -0.000009509364
      11       -0.000017446817    -0.000002947594     0.000019794188
      12       -0.000009071318     0.000026053674    -0.000004986444

  **** Optimization is complete! (in 5 steps) ****
    Final optimized geometry and variables:
    Molecular point group: c1

    Geometry (in Angstrom), charge = 0, multiplicity = 1:

    H           -1.014100371371    -1.864011771754    -0.053519703621
    O           -1.440362128790    -1.062795554079    -0.297096726645
    C           -0.720665658070     0.028785449990     0.206684097361
    C            0.688361644457     0.130704014466    -0.365860715868
    H           -1.294144118824     0.912250973614    -0.040232095181
    H           -0.671687304882    -0.027705639762     1.292820023905
    C            1.596005635856     1.047621903797     0.443882412364
    H            1.111135010442    -0.868112617090    -0.439024018995
    H            0.623816681779     0.486568353046    -1.389540091678
    H            1.731832591043     0.676483620573     1.454006885625
    H            2.574401457009     1.131676370259    -0.013115894302
    H            1.179610955275     2.047319142139     0.513802431170

  Mulliken Charges: (a.u.)
   Center  Symbol    Alpha    Beta     Spin     Total
       1     H     0.39461  0.39461  0.00000  0.21078
       2     O     4.20244  4.20244  0.00000 -0.40489
       3     C     2.96633  2.96633  0.00000  0.06734
       4     C     3.08594  3.08594  0.00000 -0.17187
       5     H     0.45326  0.45326  0.00000  0.09349
       6     H     0.47509  0.47509  0.00000  0.04981
       7     C     3.15264  3.15264  0.00000 -0.30528
       8     H     0.46139  0.46139  0.00000  0.07722
       9     H     0.45189  0.45189  0.00000  0.09622
      10     H     0.45570  0.45570  0.00000  0.08861
      11     H     0.44701  0.44701  0.00000  0.10598
      12     H     0.45371  0.45371  0.00000  0.09259

   Total alpha = 17.00000, Total beta = 17.00000, Total charge = -0.00000
