  ==> Input File <==

--------------------------------------------------------------------------
set {
	reference rhf
	basis 6-31G*
}

set_num_threads( 4 )
memory 2 gb

molecule MOL {
0 1

H	 2.347875	 2.439772	 -0.514658
N	 1.569599	 1.815118	 -0.602048
C	 1.865559	 0.531981	 0.018834
H	 1.400040	 1.699554	 -1.583234
C	 0.645745	 -0.382037	 -0.029944
H	 2.131123	 0.720485	 1.054595
H	 2.718922	 0.022143	 -0.435297
C	 -0.679275	 0.379305	 0.025956
H	 0.698998	 -0.976915	 -0.937203
H	 0.693479	 -1.083846	 0.802235
C	 -1.903357	 -0.536963	 -0.023547
H	 -0.726309	 1.082987	 -0.803784
H	 -0.717680	 0.977832	 0.934877
C	 -3.225172	 0.228290	 0.028445
H	 -1.867824	 -1.134999	 -0.931459
H	 -1.860449	 -1.239604	 0.805977
H	 -3.313397	 0.915643	 -0.808262
H	 -4.073500	 -0.448134	 -0.008893
H	 -3.306061	 0.809945	 0.942516

	symmetry c1
}
set optking {
	frozen_dihedral = ("
		6 3 5 9
	")
}

ee = optimize('scf')
oeprop('DIPOLE', 'QUADRUPOLE', 'MULLIKEN_CHARGES')
f=open( 'psi4out.xyz', 'w' )
f.write( "19  " )
f.write( str(ee) + "\n" )
f.write( MOL.save_string_xyz() )
f.close()
--------------------------------------------------------------------------

    Molecular point group: c1
  Charge       = 0
  Multiplicity = 1
  Basis Set: 6-31G*
  Basis Set:
  @DF-RHF Final Energy:  -251.34563623642592
    Total Energy =                       -251.3456362364257757
    Molecular point group: c1
  Basis Set: 6-31G*
  Basis Set:
  Basis Set: 6-31G*
  Basis Set:
  @DF-RHF Final Energy:  -251.34675374654745
    Total Energy =                       -251.3467537465473924
  Basis Set: 6-31G*
  Basis Set:
  Basis Set: 6-31G*
  Basis Set:
  @DF-RHF Final Energy:  -251.34766574280357
    Total Energy =                       -251.3476657428034287
  Basis Set: 6-31G*
  Basis Set:
  Basis Set: 6-31G*
  Basis Set:
  @DF-RHF Final Energy:  -251.34772588436135
    Total Energy =                       -251.3477258843612390
  Basis Set: 6-31G*
  Basis Set:
  Basis Set: 6-31G*
  Basis Set:
  @DF-RHF Final Energy:  -251.34772168454481
    Total Energy =                       -251.3477216845450357
  Basis Set: 6-31G*
  Basis Set:
  Basis Set: 6-31G*
  Basis Set:
  @DF-RHF Final Energy:  -251.34773344467843
    Total Energy =                       -251.3477334446783971
  Basis Set: 6-31G*
  Basis Set:
  Charge       = 0
  Multiplicity = 1
  Basis Set: 6-31G*
  Basis Set:

    Orbital Energies (a.u.)
    -----------------------

    Doubly Occupied:

       1A    -15.533900     2A    -11.240987     3A    -11.210544
       4A    -11.208705     5A    -11.203070     6A    -11.202941
       7A     -1.177653     8A     -1.065886     9A     -0.994210
      10A     -0.903367    11A     -0.811641    12A     -0.777674
      13A     -0.666894    14A     -0.631285    15A     -0.620024
      16A     -0.583300    17A     -0.564915    18A     -0.546608
      19A     -0.527922    20A     -0.495661    21A     -0.475913
      22A     -0.463171    23A     -0.451746    24A     -0.446408
      25A     -0.379042

  @DF-RHF Final Energy:  -251.34773379911240

   => Energetics <=

    Nuclear Repulsion Energy =            249.4033777819268494
    One-Electron Energy =                -833.1352899537560006
    Two-Electron Energy =                 332.3841783727167467
    DFT Exchange-Correlation Energy =       0.0000000000000000
    Empirical Dispersion Energy =           0.0000000000000000
    PCM Polarization Energy =               0.0000000000000000
    EFP Energy =                            0.0000000000000000
    Total Energy =                       -251.3477337991124614
    Molecular point group: c1
  Basis Set: 6-31G*
  Basis Set:

  -Total Gradient:
     Atom            X                  Y                   Z
    ------   -----------------  -----------------  -----------------
       1       -0.000007752508    -0.000021765280     0.000008596169
       2       -0.000033934497     0.000013975318    -0.000026855750
       3       -0.003696715500     0.005151523153     0.000659736526
       4        0.000000218439     0.000004084703     0.000003921668
       5       -0.002699836439     0.004349956710    -0.003883723490
       6        0.003567234319    -0.005046416172     0.000087076892
       7       -0.000017059465    -0.000019835555     0.000012600182
       8       -0.000000205534     0.000021815181     0.000050629745
       9        0.002866726363    -0.004475941598     0.003138783348
      10        0.000019501633     0.000015115776    -0.000001346314
      11        0.000002403167     0.000000560831    -0.000060211192
      12       -0.000003444539    -0.000005834265     0.000001418877
      13       -0.000003197559     0.000016125820    -0.000000611301
      14        0.000006590177     0.000002244292     0.000024137480
      15       -0.000004649350    -0.000007406488    -0.000009550644
      16        0.000002078157     0.000003143965    -0.000007897079
      17       -0.000000820272    -0.000011217196    -0.000004241711
      18        0.000003193614    -0.000001974302     0.000012447602
      19       -0.000000330205     0.000011845105    -0.000004911009

  **** Optimization is complete! (in 7 steps) ****
    Final optimized geometry and variables:
    Molecular point group: c1

    Geometry (in Angstrom), charge = 0, multiplicity = 1:

    H            2.798304433507     2.030662937518    -0.367755594114
    N            1.981808496429     1.469188150707    -0.514738024462
    C            2.124571397566     0.184414906217     0.152077728163
    H            1.893895705723     1.342200496617    -1.505449180438
    C            0.877430559378    -0.702172827134     0.028397827281
    H            2.341692594883     0.355522276383     1.201716134745
    H            2.977570652864    -0.388705094055    -0.220458139060
    C           -0.460810558424     0.030432448092     0.113018538591
    H            0.939896972521    -1.301041613484    -0.879171962341
    H            0.927977192392    -1.434514256722     0.833004558512
    C           -1.655509712816    -0.925388430592     0.109437607497
    H           -0.553527340804     0.729946699826    -0.711065398752
    H           -0.479912574013     0.634066920025     1.017668049260
    C           -2.998314539679    -0.199423636272     0.185883033648
    H           -1.627923807704    -1.536249182305    -0.791083498780
    H           -1.571768112863    -1.615433407599     0.946756706497
    H           -3.130297784442     0.470012826136    -0.659463061838
    H           -3.827074528523    -0.901053764326     0.185038059498
    H           -3.070017353860     0.396615885616     1.091297556894

  Mulliken Charges: (a.u.)
   Center  Symbol    Alpha    Beta     Spin     Total
       1     H     0.33143  0.33143  0.00000  0.33714
       2     N     3.92018  3.92018  0.00000 -0.84035
       3     C     3.06097  3.06097  0.00000 -0.12193
       4     H     0.33526  0.33526  0.00000  0.32949
       5     C     3.16504  3.16504  0.00000 -0.33008
       6     H     0.42040  0.42040  0.00000  0.15920
       7     H     0.43319  0.43319  0.00000  0.13361
       8     C     3.14110  3.14110  0.00000 -0.28219
       9     H     0.42516  0.42516  0.00000  0.14967
      10     H     0.42244  0.42244  0.00000  0.15512
      11     C     3.15254  3.15254  0.00000 -0.30508
      12     H     0.41727  0.41727  0.00000  0.16547
      13     H     0.42123  0.42123  0.00000  0.15753
      14     C     3.23842  3.23842  0.00000 -0.47684
      15     H     0.42547  0.42547  0.00000  0.14907
      16     H     0.42509  0.42509  0.00000  0.14983
      17     H     0.42202  0.42202  0.00000  0.15597
      18     H     0.42110  0.42110  0.00000  0.15780
      19     H     0.42171  0.42171  0.00000  0.15658

   Total alpha = 25.00000, Total beta = 25.00000, Total charge =  0.00000
