  ==> Input File <==

--------------------------------------------------------------------------
set {
	reference rhf
	basis 6-31G*
}

set_num_threads( 1 )
memory 2 gb

molecule MOL {
0 1

O	 3.225979	 0.970355	 -0.599647
C	 2.701189	 0.057885	 -0.047330
C	 1.245376	 -0.013843	 0.345420
O	 3.347903	 -1.046386	 0.304773
C	 0.455112	 1.231400	 -0.050772
H	 0.838542	 -0.913825	 -0.103701
H	 1.208210	 -0.175333	 1.419774
C	 -0.998893	 1.219485	 0.433193
H	 0.482531	 1.345121	 -1.130325
H	 0.957290	 2.103070	 0.354729
C	 -1.883438	 0.145884	 -0.207175
H	 -1.431207	 2.195402	 0.224832
H	 -1.019646	 1.105716	 1.516076
C	 -3.347647	 0.245583	 0.225435
H	 -1.822183	 0.231698	 -1.291012
H	 -1.510341	 -0.844814	 0.042401
C	 -3.917385	 -1.075519	 0.745262
H	 -3.948468	 0.589144	 -0.614931
H	 -3.443685	 1.006241	 0.998659
C	 -5.381095	 -0.968321	 1.171600
H	 -3.821295	 -1.837003	 -0.025809
H	 -3.320764	 -1.418330	 1.588058
H	 -5.756056	 -1.920081	 1.535143
H	 -6.009877	 -0.660804	 0.340780
H	 -5.505467	 -0.238449	 1.966643
C	 4.728119	 -1.109107	 -0.004993
H	 4.882018	 -1.033965	 -1.071845
H	 5.068212	 -2.067527	 0.355250
H	 5.265056	 -0.311663	 0.488280

	symmetry c1
}
set optking {
	frozen_dihedral = ("
		21 17 14 11,
		15 11 8 5,
		6 3 5 9,
		11 8 5 9,
		2 4 26 27,
		1 2 4 26,
		6 3 2 1
	")
}

ee = energy('scf')
oeprop('DIPOLE', 'QUADRUPOLE', 'MULLIKEN_CHARGES')
f=open( 'psi4out.xyz', 'w' )
f.write( "29  " )
f.write( str(ee) + "\n" )
f.write( MOL.save_string_xyz() )
f.close()
--------------------------------------------------------------------------

    Molecular point group: c1

    Geometry (in Angstrom), charge = 0, multiplicity = 1:

       Center              X                  Y                   Z               Mass
    ------------   -----------------  -----------------  -----------------  -----------------
           O          3.166978337245     1.016408129752    -0.809952729648    15.994914619560
           C          2.642188337245     0.103938129752    -0.257635729648    12.000000000000
           C          1.186375337245     0.032210129752     0.135114270352    12.000000000000
           O          3.288902337245    -1.000332870248     0.094467270352    15.994914619560
           C          0.396111337245     1.277453129752    -0.261077729648    12.000000000000
           H          0.779541337245    -0.867771870248    -0.314006729648     1.007825032070
           H          1.149209337245    -0.129279870248     1.209468270352     1.007825032070
           C         -1.057893662755     1.265538129752     0.222887270352    12.000000000000
           H          0.423530337245     1.391174129752    -1.340630729648     1.007825032070
           H          0.898289337245     2.149123129752     0.144423270352     1.007825032070
           C         -1.942438662755     0.191937129752    -0.417480729648    12.000000000000
           H         -1.490207662755     2.241455129752     0.014526270352     1.007825032070
           H         -1.078646662755     1.151769129752     1.305770270352     1.007825032070
           C         -3.406647662755     0.291636129752     0.015129270352    12.000000000000
           H         -1.881183662755     0.277751129752    -1.501317729648     1.007825032070
           H         -1.569341662755    -0.798760870248    -0.167904729648     1.007825032070
           C         -3.976385662755    -1.029465870248     0.534956270352    12.000000000000
           H         -4.007468662755     0.635197129752    -0.825236729648     1.007825032070
           H         -3.502685662755     1.052294129752     0.788353270352     1.007825032070
           C         -5.440095662755    -0.922267870248     0.961294270352    12.000000000000
           H         -3.880295662755    -1.790949870248    -0.236114729648     1.007825032070
           H         -3.379764662755    -1.372276870248     1.377752270352     1.007825032070
           H         -5.815056662755    -1.874027870248     1.324837270352     1.007825032070
           H         -6.068877662755    -0.614750870248     0.130474270352     1.007825032070
           H         -5.564467662755    -0.192395870248     1.756337270352     1.007825032070
           C          4.669118337245    -1.063053870248    -0.215298729648    12.000000000000
           H          4.823017337245    -0.987911870248    -1.282150729648     1.007825032070
           H          5.009211337245    -2.021473870248     0.144944270352     1.007825032070
           H          5.206055337245    -0.265609870248     0.277974270352     1.007825032070

  Charge       = 0
  Multiplicity = 1
  Basis Set: 6-31G*
  Basis Set:

    Orbital Energies (a.u.)
    -----------------------

    Doubly Occupied:

       1A    -20.603292     2A    -20.545096     3A    -11.371916
       4A    -11.280615     5A    -11.234624     6A    -11.218693
       7A    -11.217919     8A    -11.216394     9A    -11.214418
      10A    -11.212910    11A    -11.208757    12A     -1.468986
      13A     -1.362419    14A     -1.098196    15A     -1.066658
      16A     -1.019130    17A     -0.977087    18A     -0.928436
      19A     -0.861181    20A     -0.802710    21A     -0.789228
      22A     -0.763910    23A     -0.700282    24A     -0.682213
      25A     -0.671973    26A     -0.640876    27A     -0.631708
      28A     -0.610038    29A     -0.594865    30A     -0.580502
      31A     -0.564865    32A     -0.554258    33A     -0.536403
      34A     -0.526281    35A     -0.517371    36A     -0.508897
      37A     -0.495613    38A     -0.477252    39A     -0.474542
      40A     -0.460289    41A     -0.456238    42A     -0.452580
      43A     -0.441063    44A     -0.434955

  @DF-RHF Final Energy:  -501.03873758767179

   => Energetics <=

    Nuclear Repulsion Energy =            612.5284633781913044
    One-Electron Energy =               -1896.1835544849400321
    Two-Electron Energy =                 782.6163535190758012
    DFT Exchange-Correlation Energy =       0.0000000000000000
    Empirical Dispersion Energy =           0.0000000000000000
    PCM Polarization Energy =               0.0000000000000000
    EFP Energy =                            0.0000000000000000
    Total Energy =                       -501.0387375876730403

  Mulliken Charges: (a.u.)
   Center  Symbol    Alpha    Beta     Spin     Total
       1     O     4.28597  4.28597  0.00000 -0.57193
       2     C     2.60482  2.60482  0.00000  0.79037
       3     C     3.20961  3.20961  0.00000 -0.41923
       4     O     4.30747  4.30747  0.00000 -0.61494
       5     C     3.15440  3.15440  0.00000 -0.30880
       6     H     0.39873  0.39873  0.00000  0.20254
       7     H     0.40138  0.40138  0.00000  0.19725
       8     C     3.15938  3.15938  0.00000 -0.31876
       9     H     0.41310  0.41310  0.00000  0.17380
      10     H     0.40892  0.40892  0.00000  0.18216
      11     C     3.15749  3.15749  0.00000 -0.31498
      12     H     0.41748  0.41748  0.00000  0.16504
      13     H     0.42372  0.42372  0.00000  0.15256
      14     C     3.15271  3.15271  0.00000 -0.30542
      15     H     0.42034  0.42034  0.00000  0.15931
      16     H     0.42084  0.42084  0.00000  0.15833
      17     C     3.15404  3.15404  0.00000 -0.30808
      18     H     0.42087  0.42087  0.00000  0.15826
      19     H     0.42099  0.42099  0.00000  0.15803
      20     C     3.23996  3.23996  0.00000 -0.47992
      21     H     0.42256  0.42256  0.00000  0.15489
      22     H     0.42344  0.42344  0.00000  0.15313
      23     H     0.41946  0.41946  0.00000  0.16108
      24     H     0.42155  0.42155  0.00000  0.15691
      25     H     0.42164  0.42164  0.00000  0.15673
      26     C     3.09239  3.09239  0.00000 -0.18478
      27     H     0.40909  0.40909  0.00000  0.18182
      28     H     0.40853  0.40853  0.00000  0.18295
      29     H     0.40914  0.40914  0.00000  0.18173

   Total alpha = 44.00000, Total beta = 44.00000, Total charge =  0.00000
