  ==> Input File <==

--------------------------------------------------------------------------
set {
	reference rhf
	basis 6-31G*
}

set_num_threads( 1 )
memory 2 gb

molecule MOL {
0 1

H	 -4.260729	 0.776213	 -0.996541
O	 -3.452007	 0.283848	 -0.965577
C	 -3.181085	 -0.079926	 0.364119
C	 -1.765924	 0.277073	 0.805136
H	 -3.327791	 -1.152017	 0.410903
H	 -3.905698	 0.375695	 1.036898
C	 -0.677594	 -0.417312	 -0.014550
H	 -1.637766	 1.358238	 0.744969
H	 -1.659588	 0.017670	 1.857098
C	 0.738335	 -0.034840	 0.421385
H	 -0.814977	 -0.178223	 -1.064632
H	 -0.802730	 -1.495410	 0.071702
C	 1.822265	 -0.738362	 -0.399735
H	 0.853533	 1.043532	 0.342250
H	 0.871597	 -0.279636	 1.474438
C	 3.258060	 -0.455774	 0.057203
H	 1.718003	 -0.459167	 -1.447053
H	 1.651028	 -1.811884	 -0.354513
C	 3.709143	 0.994797	 -0.123830
H	 3.930637	 -1.101717	 -0.501982
H	 3.365259	 -0.739518	 1.102287
H	 3.601178	 1.310569	 -1.158127
H	 4.753787	 1.110486	 0.148516
H	 3.135362	 1.678896	 0.492569

	symmetry c1
}
set optking {
	frozen_dihedral = ("
		20 16 13 17,
		17 13 10 7,
		13 10 7 11,
		11 7 4 3,
		7 4 3 2
	")
}

ee = energy('scf')
oeprop('DIPOLE', 'QUADRUPOLE', 'MULLIKEN_CHARGES')
f=open( 'psi4out.xyz', 'w' )
f.write( "24  " )
f.write( str(ee) + "\n" )
f.write( MOL.save_string_xyz() )
f.close()
--------------------------------------------------------------------------

    Molecular point group: c1

    Geometry (in Angstrom), charge = 0, multiplicity = 1:

       Center              X                  Y                   Z               Mass
    ------------   -----------------  -----------------  -----------------  -----------------
           H         -4.253438354500     0.780128997209    -0.996955130357     1.007825032070
           O         -3.444716354500     0.287763997209    -0.965991130357    15.994914619560
           C         -3.173794354500    -0.076010002791     0.363704869643    12.000000000000
           C         -1.758633354500     0.280988997209     0.804721869643    12.000000000000
           H         -3.320500354500    -1.148101002791     0.410488869643     1.007825032070
           H         -3.898407354500     0.379610997209     1.036483869643     1.007825032070
           C         -0.670303354500    -0.413396002791    -0.014964130357    12.000000000000
           H         -1.630475354500     1.362153997209     0.744554869643     1.007825032070
           H         -1.652297354500     0.021585997209     1.856683869643     1.007825032070
           C          0.745625645500    -0.030924002791     0.420970869643    12.000000000000
           H         -0.807686354500    -0.174307002791    -1.065046130357     1.007825032070
           H         -0.795439354500    -1.491494002791     0.071287869643     1.007825032070
           C          1.829555645500    -0.734446002791    -0.400149130357    12.000000000000
           H          0.860823645500     1.047447997209     0.341835869643     1.007825032070
           H          0.878887645500    -0.275720002791     1.474023869643     1.007825032070
           C          3.265350645500    -0.451858002791     0.056788869643    12.000000000000
           H          1.725293645500    -0.455251002791    -1.447467130357     1.007825032070
           H          1.658318645500    -1.807968002791    -0.354927130357     1.007825032070
           C          3.716433645500     0.998712997209    -0.124244130357    12.000000000000
           H          3.937927645500    -1.097801002791    -0.502396130357     1.007825032070
           H          3.372549645500    -0.735602002791     1.101872869643     1.007825032070
           H          3.608468645500     1.314484997209    -1.158541130357     1.007825032070
           H          4.761077645500     1.114401997209     0.148101869643     1.007825032070
           H          3.142652645500     1.682811997209     0.492154869643     1.007825032070

  Charge       = 0
  Multiplicity = 1
  Basis Set: 6-31G*
  Basis Set:

    Orbital Energies (a.u.)
    -----------------------

    Doubly Occupied:

       1A    -20.551012     2A    -11.267358     3A    -11.213237
       4A    -11.211670     5A    -11.209046     6A    -11.208463
       7A    -11.206881     8A    -11.204967     9A     -1.358647
      10A     -1.085222    11A     -1.045612    12A     -0.983336
      13A     -0.911888    14A     -0.844708    15A     -0.792370
      16A     -0.773297    17A     -0.697807    18A     -0.649177
      19A     -0.625487    20A     -0.611561    21A     -0.584164
      22A     -0.578023    23A     -0.557253    24A     -0.533637
      25A     -0.523305    26A     -0.503301    27A     -0.490492
      28A     -0.481732    29A     -0.466700    30A     -0.454167
      31A     -0.450545    32A     -0.434926    33A     -0.422653

  @DF-RHF Final Energy:  -349.24483839691112

   => Energetics <=

    Nuclear Repulsion Energy =            383.7923962020228714
    One-Electron Energy =               -1234.2090592072581785
    Two-Electron Energy =                 501.1718246083245845
    DFT Exchange-Correlation Energy =       0.0000000000000000
    Empirical Dispersion Energy =           0.0000000000000000
    PCM Polarization Energy =               0.0000000000000000
    EFP Energy =                            0.0000000000000000
    Total Energy =                       -349.2448383969106658

  Mulliken Charges: (a.u.)
   Center  Symbol    Alpha    Beta     Spin     Total
       1     H     0.27942  0.27942  0.00000  0.44116
       2     O     4.37204  4.37204  0.00000 -0.74408
       3     C     2.99833  2.99833  0.00000  0.00333
       4     C     3.15831  3.15831  0.00000 -0.31662
       5     H     0.42533  0.42533  0.00000  0.14934
       6     H     0.43049  0.43049  0.00000  0.13902
       7     C     3.15488  3.15488  0.00000 -0.30975
       8     H     0.42144  0.42144  0.00000  0.15713
       9     H     0.42475  0.42475  0.00000  0.15050
      10     C     3.15387  3.15387  0.00000 -0.30773
      11     H     0.40825  0.40825  0.00000  0.18349
      12     H     0.42526  0.42526  0.00000  0.14947
      13     C     3.15222  3.15222  0.00000 -0.30444
      14     H     0.42173  0.42173  0.00000  0.15654
      15     H     0.42636  0.42636  0.00000  0.14728
      16     C     3.15218  3.15218  0.00000 -0.30435
      17     H     0.42329  0.42329  0.00000  0.15343
      18     H     0.42271  0.42271  0.00000  0.15458
      19     C     3.24094  3.24094  0.00000 -0.48187
      20     H     0.42155  0.42155  0.00000  0.15689
      21     H     0.42415  0.42415  0.00000  0.15170
      22     H     0.42211  0.42211  0.00000  0.15578
      23     H     0.42009  0.42009  0.00000  0.15983
      24     H     0.42031  0.42031  0.00000  0.15938

   Total alpha = 33.00000, Total beta = 33.00000, Total charge =  0.00000
