                              Psi4 1.0.54 Driver

  ==> Input File <==

--------------------------------------------------------------------------
set {
	reference rhf
	basis cc-pvtz
}

set_num_threads( 4 )
memory 2 gb

molecule MOL {
0 1

H	 -3.941973	 0.934228	 -0.390224
C	 -3.240162	 0.342701	 0.161016
C	 -2.105997	 -0.000418	 -0.398703
H	 -3.485368	 0.047206	 1.162193
O	 -1.189946	 -0.765863	 0.237511
H	 -1.846458	 0.297311	 -1.398265
C	 0.026572	 -0.995256	 -0.379403
C	 1.057223	 0.049888	 -0.004615
H	 -0.054361	 -1.010670	 -1.459674
H	 0.397526	 -1.952058	 -0.044198
F	 2.249563	 -0.509130	 0.049291
F	 1.112347	 1.023937	 -0.887619
F	 0.811361	 0.587145	 1.165583

	symmetry c1
}
set optking {
	frozen_dihedral = ("
		11 8 7 9
	")
}

ee,wfn = optimize('scf', return_wfn=True)
oeprop( wfn, 'DIPOLE', 'QUADRUPOLE', 'MULLIKEN_CHARGES')
f=open( 'psi4out.xyz', 'w' )
f.write( "13  " )
f.write( str(ee) + "\n" )
f.write( MOL.save_string_xyz() )
f.close()
--------------------------------------------------------------------------

    Molecular point group: c1
  Charge       = 0
  Multiplicity = 1
  Basis Set: CC-PVTZ
  Basis Set:
  @DF-RHF Final Energy:  -527.73787688991229
    Total Energy =                       -527.7378768899122861
    Molecular point group: c1
  Basis Set: CC-PVTZ
  Basis Set:
  Basis Set: CC-PVTZ
  Basis Set:
  @DF-RHF Final Energy:  -527.73820063660878
    Total Energy =                       -527.7382006366086671
  Basis Set: CC-PVTZ
  Basis Set:
  Basis Set: CC-PVTZ
  Basis Set:
  @DF-RHF Final Energy:  -527.73836245619464
    Total Energy =                       -527.7383624561949773
  Basis Set: CC-PVTZ
  Basis Set:
  Basis Set: CC-PVTZ
  Basis Set:
  @DF-RHF Final Energy:  -527.73838694238475
    Total Energy =                       -527.7383869423842953
  Basis Set: CC-PVTZ
  Basis Set:
  @DF-RHF Final Energy:  -527.73839571543112
    Total Energy =                       -527.7383957154308973
  @DF-RHF Final Energy:  -527.73839792701438
    Total Energy =                       -527.7383979270144891
  @DF-RHF Final Energy:  -527.73839973472468
    Total Energy =                       -527.7383997347244531
  @DF-RHF Final Energy:  -527.73840138703531
    Total Energy =                       -527.7384013870354238
  @DF-RHF Final Energy:  -527.73840343012057
    Total Energy =                       -527.7384034301201154
  @DF-RHF Final Energy:  -527.73840291350893
    Total Energy =                       -527.7384029135092760
  @DF-RHF Final Energy:  -527.73840336840613
    Total Energy =                       -527.7384033684061251
  @DF-RHF Final Energy:  -527.73840587968380
    Total Energy =                       -527.7384058796841373
  @DF-RHF Final Energy:  -527.73840746242831
    Total Energy =                       -527.7384074624283130
  @DF-RHF Final Energy:  -527.73840694227033
    Total Energy =                       -527.7384069422705579
  @DF-RHF Final Energy:  -527.73840498885943
    Total Energy =                       -527.7384049888598838
  Basis Set: CC-PVTZ
  Basis Set:
  @DF-RHF Final Energy:  -527.73840000358337
    Total Energy =                       -527.7384000035831377
  Basis Set: CC-PVTZ
  Basis Set:
  Basis Set: CC-PVTZ
  Basis Set:
  @DF-RHF Final Energy:  -527.73840609511410
    Total Energy =                       -527.7384060951138736
  Basis Set: CC-PVTZ
  Basis Set:
  Basis Set: CC-PVTZ
  Basis Set:
  @DF-RHF Final Energy:  -527.73840784803622
    Total Energy =                       -527.7384078480362177
  Basis Set: CC-PVTZ
  Basis Set:
  Charge       = 0
  Multiplicity = 1
  Basis Set: CC-PVTZ
  Basis Set:

    Orbital Energies (a.u.)
    -----------------------

    Doubly Occupied:

       1A    -26.341025     2A    -26.340406     3A    -26.336829
       4A    -20.602539     5A    -11.498533     6A    -11.319914
       7A    -11.297893     8A    -11.214896     9A     -1.750253
      10A     -1.646493    11A     -1.644452    12A     -1.443398
      13A     -1.085060    14A     -1.020059    15A     -0.932044
      16A     -0.843095    17A     -0.837931    18A     -0.827477
      19A     -0.798811    20A     -0.726676    21A     -0.721093
      22A     -0.701054    23A     -0.681648    24A     -0.667854
      25A     -0.662588    26A     -0.650066    27A     -0.637966
      28A     -0.587761    29A     -0.566454    30A     -0.527074
      31A     -0.516554    32A     -0.357692

  @DF-RHF Final Energy:  -527.73840862222869

   => Energetics <=

    Nuclear Repulsion Energy =            414.2031248379178123
    One-Electron Energy =               -1552.3118869138850187
    Two-Electron Energy =                 610.3703534537389714
    DFT Exchange-Correlation Energy =       0.0000000000000000
    Empirical Dispersion Energy =           0.0000000000000000
    PCM Polarization Energy =               0.0000000000000000
    EFP Energy =                            0.0000000000000000
    Total Energy =                       -527.7384086222282349
    Molecular point group: c1
  Basis Set: CC-PVTZ
  Basis Set:

  -Total Gradient:
     Atom            X                  Y                   Z
    ------   -----------------  -----------------  -----------------
       1        0.000049697206     0.000019016741     0.000038074455
       2        0.000053845339    -0.000078917632    -0.000050709043
       3       -0.000048870013    -0.000131544524    -0.000026087512
       4        0.000011625270     0.000002830211    -0.000072937984
       5       -0.000104156962     0.000072955218     0.000119311699
       6       -0.000000677691     0.000028022188     0.000086972526
       7        0.004366804880    -0.003983690174     0.000707016453
       8        0.000072808947     0.001599381658    -0.005347852318
       9       -0.003765372592     0.003355206575     0.000359732272
      10        0.000103707488    -0.000005886035     0.000122967716
      11       -0.000722837830    -0.000913026811     0.004226154137
      12       -0.000073954561     0.000159447784    -0.000079451378
      13        0.000057380531    -0.000123795201    -0.000083191018

  **** Optimization is complete! (in 19 steps) ****
    Final optimized geometry and variables:
    Molecular point group: c1

    Geometry (in Angstrom), charge = 0, multiplicity = 1:

    H           -3.828371156891     1.048278917243    -0.359055318684
    C           -3.163494008493     0.398622782182     0.172197738305
    C           -2.060290012078    -0.009015227401    -0.405680883415
    H           -3.421091599297     0.095647342786     1.167921596532
    O           -1.197844149669    -0.857722880340     0.198285567068
    H           -1.788635461983     0.296066028056    -1.400573374144
    C            0.047514752228    -1.042627808231    -0.378526401053
    C            1.039245367578     0.058069558461    -0.004225796728
    H           -0.032069604451    -1.059279421928    -1.458625439942
    H            0.437567873591    -1.980114262154    -0.018110913271
    F            2.259367709251    -0.436726915966     0.049840925293
    F            1.043517466704     1.038675596390    -0.884870500692
    F            0.776607774970     0.580810158644     1.167051820143

  Mulliken Charges: (a.u.)
   Center  Symbol    Alpha    Beta     Spin     Total
       1     H     0.42511  0.42511  0.00000  0.14979
       2     C     3.19425  3.19425  0.00000 -0.38850
       3     C     2.96333  2.96333  0.00000  0.07335
       4     H     0.42437  0.42437  0.00000  0.15127
       5     O     4.14106  4.14106  0.00000 -0.28212
       6     H     0.43374  0.43374  0.00000  0.13252
       7     C     3.02458  3.02458  0.00000 -0.04917
       8     C     2.67586  2.67586  0.00000  0.64827
       9     H     0.45583  0.45583  0.00000  0.08834
      10     H     0.43356  0.43356  0.00000  0.13288
      11     F     4.61106  4.61106  0.00000 -0.22213
      12     F     4.61270  4.61270  0.00000 -0.22541
      13     F     4.60455  4.60455  0.00000 -0.20910

   Total alpha = 32.00000, Total beta = 32.00000, Total charge = -0.00000

*** Psi4 exiting successfully. Buy a developer a beer!
