  ==> Input File <==

--------------------------------------------------------------------------
set {
	reference rhf
	basis 6-31G*
}

set_num_threads( 4 )
memory 2 gb

molecule MOL {
0 1

H	 -1.836216	 1.387520	 -0.000064
C	 -1.301823	 0.443321	 -0.000031
O	 -0.003969	 0.658512	 0.000451
O	 -1.829879	 -0.616434	 -0.000857
C	 0.850537	 -0.484732	 0.000380
C	 2.024275	 -0.174156	 -0.903058
H	 0.288870	 -1.339700	 -0.350161
H	 1.166157	 -0.684661	 1.015125
H	 1.688671	 0.031291	 -1.913105
H	 2.701114	 -1.021688	 -0.931536
H	 2.570316	 0.689493	 -0.541342

	symmetry c1
}
set optking {
	frozen_dihedral = ("
		7 5 3 2
	")
}

ee = optimize('scf')
oeprop('DIPOLE', 'QUADRUPOLE', 'MULLIKEN_CHARGES')
f=open( 'psi4out.xyz', 'w' )
f.write( "11  " )
f.write( str(ee) + "\n" )
f.write( MOL.save_string_xyz() )
f.close()
--------------------------------------------------------------------------

    Molecular point group: c1
  Charge       = 0
  Multiplicity = 1
  Basis Set: 6-31G*
  Basis Set:
  @DF-RHF Final Energy:  -266.82700032802705
    Total Energy =                       -266.8270003280272817
    Molecular point group: c1
  Basis Set: 6-31G*
  Basis Set:
  Basis Set: 6-31G*
  Basis Set:
  @DF-RHF Final Energy:  -266.82720539502384
    Total Energy =                       -266.8272053950238387
  Basis Set: 6-31G*
  Basis Set:
  Basis Set: 6-31G*
  Basis Set:
  @DF-RHF Final Energy:  -266.82723398990237
    Total Energy =                       -266.8272339899024246
  Basis Set: 6-31G*
  Basis Set:
  Basis Set: 6-31G*
  Basis Set:
  @DF-RHF Final Energy:  -266.82743938338609
    Total Energy =                       -266.8274393833858085
  Basis Set: 6-31G*
  Basis Set:
  Basis Set: 6-31G*
  Basis Set:
  @DF-RHF Final Energy:  -266.82746492122556
    Total Energy =                       -266.8274649212256122
  Basis Set: 6-31G*
  Basis Set:
  Charge       = 0
  Multiplicity = 1
  Basis Set: 6-31G*
  Basis Set:

    Orbital Energies (a.u.)
    -----------------------

    Doubly Occupied:

       1A    -20.612317     2A    -20.556247     3A    -11.379246
       4A    -11.290964     5A    -11.226938     6A     -1.474391
       7A     -1.374153     8A     -1.052550     9A     -0.905401
      10A     -0.802882    11A     -0.741967    12A     -0.685047
      13A     -0.673589    14A     -0.600179    15A     -0.572022
      16A     -0.556289    17A     -0.528079    18A     -0.506745
      19A     -0.458515    20A     -0.452455

  @DF-RHF Final Energy:  -266.82746509779071

   => Energetics <=

    Nuclear Repulsion Energy =            179.2348903006583214
    One-Electron Energy =                -719.2247580284847572
    Two-Electron Energy =                 273.1624026300358992
    DFT Exchange-Correlation Energy =       0.0000000000000000
    Empirical Dispersion Energy =           0.0000000000000000
    PCM Polarization Energy =               0.0000000000000000
    EFP Energy =                            0.0000000000000000
    Total Energy =                       -266.8274650977905367
    Molecular point group: c1
  Basis Set: 6-31G*
  Basis Set:

  -Total Gradient:
     Atom            X                  Y                   Z
    ------   -----------------  -----------------  -----------------
       1        0.000003910327     0.000029638489     0.000006185831
       2       -0.000130050157     0.000064124611    -0.001207285085
       3       -0.000095293756    -0.000296568646     0.002092998218
       4        0.000145531414     0.000038980826     0.000015739156
       5        0.000453215315     0.000343075910    -0.002212827184
       6        0.000025526290     0.000001404732     0.000003655343
       7       -0.000361961139    -0.000241480945     0.001252420916
       8       -0.000031603036     0.000060454266     0.000056882956
       9       -0.000001300539    -0.000000086199    -0.000015328332
      10       -0.000004770513     0.000001855449     0.000008025702
      11       -0.000003204206    -0.000001398492    -0.000000467523

  **** Optimization is complete! (in 6 steps) ****
    Final optimized geometry and variables:
    Molecular point group: c1

    Geometry (in Angstrom), charge = 0, multiplicity = 1:

    H           -1.760658225422     1.446924913870     0.176454229054
    C           -1.253822268533     0.487853598044     0.190866420674
    O            0.049065084349     0.675017594506     0.177609369923
    O           -1.816018176053    -0.553733760814     0.215795613217
    C            0.916139029632    -0.460369622240     0.154682603804
    C            2.101940862404    -0.131669750120    -0.727935341984
    H            0.368674677254    -1.320170382498    -0.196511354639
    H            1.226334006233    -0.650566086753     1.174418443972
    H            1.782634019397     0.051461353700    -1.747693055813
    H            2.800660353878    -0.962044799252    -0.730557209955
    H            2.618469703325     0.750054712782    -0.366725248476

  Mulliken Charges: (a.u.)
   Center  Symbol    Alpha    Beta     Spin     Total
       1     H     0.41180  0.41180  0.00000  0.17640
       2     C     2.72701  2.72701  0.00000  0.54597
       3     O     4.29210  4.29210  0.00000 -0.58419
       4     O     4.26317  4.26317  0.00000 -0.52635
       5     C     3.01238  3.01238  0.00000 -0.02476
       6     C     3.24771  3.24771  0.00000 -0.49543
       7     H     0.39638  0.39638  0.00000  0.20723
       8     H     0.41204  0.41204  0.00000  0.17592
       9     H     0.41170  0.41170  0.00000  0.17660
      10     H     0.41560  0.41560  0.00000  0.16880
      11     H     0.41010  0.41010  0.00000  0.17981

   Total alpha = 20.00000, Total beta = 20.00000, Total charge =  0.00000
