  ==> Input File <==

--------------------------------------------------------------------------
set {
	reference rhf
	basis 6-31G*
}

set_num_threads( 1 )
memory 2 gb

molecule MOL {
0 1

H	 -3.726646	 0.189067	 -1.637002
C	 -3.054511	 -0.483660	 -1.140682
C	 -2.076860	 -0.007332	 -0.404944
H	 -3.203158	 -1.540138	 -1.261799
O	 -1.180634	 -0.819263	 0.215062
H	 -1.915256	 1.046959	 -0.265123
C	 0.051604	 -1.018856	 -0.387932
C	 1.043764	 0.054862	 -0.001873
H	 -0.017620	 -1.041351	 -1.469781
H	 0.437898	 -1.966374	 -0.042284
F	 2.212596	 -0.199467	 -0.571921
F	 0.652529	 1.252447	 -0.405055
F	 1.230877	 0.110694	 1.300533

	symmetry c1
}
set optking {
	frozen_dihedral = ("
		11 8 7 9,
		3 5 7 9,
		6 3 2 1
	")
}

ee = energy('scf')
oeprop('DIPOLE', 'QUADRUPOLE', 'MULLIKEN_CHARGES')
f=open( 'psi4out.xyz', 'w' )
f.write( "13  " )
f.write( str(ee) + "\n" )
f.write( MOL.save_string_xyz() )
f.close()
--------------------------------------------------------------------------

    Molecular point group: c1

    Geometry (in Angstrom), charge = 0, multiplicity = 1:

       Center              X                  Y                   Z               Mass
    ------------   -----------------  -----------------  -----------------  -----------------
           H         -3.742599561533     0.282645896524    -1.491394641678     1.007825032070
           C         -3.070464561533    -0.390081103476    -0.995074641678    12.000000000000
           C         -2.092813561533     0.086246896524    -0.259336641678    12.000000000000
           H         -3.219111561533    -1.446559103476    -1.116191641678     1.007825032070
           O         -1.196587561533    -0.725684103476     0.360669358322    15.994914619560
           H         -1.931209561533     1.140537896524    -0.119515641678     1.007825032070
           C          0.035650438467    -0.925277103476    -0.242324641678    12.000000000000
           C          1.027810438467     0.148440896524     0.143734358322    12.000000000000
           H         -0.033573561533    -0.947772103476    -1.324173641678     1.007825032070
           H          0.421944438467    -1.872795103476     0.103323358322     1.007825032070
           F          2.196642438467    -0.105888103476    -0.426313641678    18.998403224000
           F          0.636575438467     1.346025896524    -0.259447641678    18.998403224000
           F          1.214923438467     0.204272896524     1.446140358322    18.998403224000

  Charge       = 0
  Multiplicity = 1
  Basis Set: 6-31G*
  Basis Set:

    Orbital Energies (a.u.)
    -----------------------

    Doubly Occupied:

       1A    -26.343881     2A    -26.342653     3A    -26.339537
       4A    -20.597551     5A    -11.500888     6A    -11.313745
       7A    -11.294440     8A    -11.227943     9A     -1.740833
      10A     -1.639117    11A     -1.637368    12A     -1.431242
      13A     -1.080597    14A     -1.018283    15A     -0.926077
      16A     -0.835256    17A     -0.830015    18A     -0.827997
      19A     -0.767804    20A     -0.720961    21A     -0.713227
      22A     -0.702515    23A     -0.674477    24A     -0.657544
      25A     -0.651626    26A     -0.643269    27A     -0.642303
      28A     -0.593864    29A     -0.566696    30A     -0.527893
      31A     -0.462617    32A     -0.375788

  @DF-RHF Final Energy:  -527.53285091251450

   => Energetics <=

    Nuclear Repulsion Energy =            413.7899551301825909
    One-Electron Energy =               -1551.3896535393623708
    Two-Electron Energy =                 610.0668474966648773
    DFT Exchange-Correlation Energy =       0.0000000000000000
    Empirical Dispersion Energy =           0.0000000000000000
    PCM Polarization Energy =               0.0000000000000000
    EFP Energy =                            0.0000000000000000
    Total Energy =                       -527.5328509125149594

  Mulliken Charges: (a.u.)
   Center  Symbol    Alpha    Beta     Spin     Total
       1     H     0.40556  0.40556  0.00000  0.18889
       2     C     3.21488  3.21488  0.00000 -0.42976
       3     C     2.91795  2.91795  0.00000  0.16410
       4     H     0.40295  0.40295  0.00000  0.19411
       5     O     4.30867  4.30867  0.00000 -0.61734
       6     H     0.40064  0.40064  0.00000  0.19872
       7     C     3.05242  3.05242  0.00000 -0.10484
       8     C     2.46019  2.46019  0.00000  1.07962
       9     H     0.40470  0.40470  0.00000  0.19060
      10     H     0.39333  0.39333  0.00000  0.21335
      11     F     4.68288  4.68288  0.00000 -0.36576
      12     F     4.68066  4.68066  0.00000 -0.36132
      13     F     4.67518  4.67518  0.00000 -0.35036

   Total alpha = 32.00000, Total beta = 32.00000, Total charge = -0.00000
