  ==> Input File <==

--------------------------------------------------------------------------
set {
	reference rhf
	basis 6-31G*
}

set_num_threads( 1 )
memory 2 gb

molecule MOL {
0 1

H	 0.919100	 2.147104	 4.493848
C	 0.355477	 1.211943	 4.600736
C	 -0.748929	 1.014847	 3.593735
O	 0.632348	 0.443015	 5.463199
C	 -0.264750	 1.188845	 2.147515
H	 -1.186085	 0.035894	 3.752653
H	 -1.513570	 1.760676	 3.807554
C	 0.715684	 0.102880	 1.697263
H	 -1.130805	 1.187088	 1.492358
H	 0.196607	 2.168933	 2.036451
C	 1.180775	 0.282413	 0.250794
H	 0.243736	 -0.871116	 1.808814
H	 1.583342	 0.093590	 2.354243
C	 2.148627	 -0.814315	 -0.201312
H	 0.309724	 0.301344	 -0.399318
H	 1.663341	 1.253158	 0.145116
C	 3.580890	 -0.659131	 0.322722
H	 2.166869	 -0.852443	 -1.289387
H	 1.762857	 -1.776509	 0.128956
C	 4.324889	 0.564933	 -0.213704
H	 4.142010	 -1.551473	 0.056605
H	 3.564836	 -0.624694	 1.410140
H	 4.342616	 0.565491	 -1.300421
H	 3.866655	 1.493402	 0.110242
H	 5.353900	 0.572371	 0.132816

	symmetry c1
}
set optking {
	frozen_dihedral = ("
		6 3 5 8,
		6 3 2 4,
		3 5 8 12,
		12 8 11 14,
		20 17 14 18
	")
}

ee = energy('scf')
oeprop('DIPOLE', 'QUADRUPOLE', 'MULLIKEN_CHARGES')
f=open( 'psi4out.xyz', 'w' )
f.write( "25  " )
f.write( str(ee) + "\n" )
f.write( MOL.save_string_xyz() )
f.close()
--------------------------------------------------------------------------

    Molecular point group: c1

    Geometry (in Angstrom), charge = 0, multiplicity = 1:

       Center              X                  Y                   Z               Mass
    ------------   -----------------  -----------------  -----------------  -----------------
           H         -0.424304375654     1.774453906958     2.521919504332     1.007825032070
           C         -0.987927375654     0.839292906958     2.628807504332    12.000000000000
           C         -2.092333375654     0.642196906958     1.621806504332    12.000000000000
           O         -0.711056375654     0.070364906958     3.491270504332    15.994914619560
           C         -1.608154375654     0.816194906958     0.175586504332    12.000000000000
           H         -2.529489375654    -0.336756093042     1.780724504332     1.007825032070
           H         -2.856974375654     1.388025906958     1.835625504332     1.007825032070
           C         -0.627720375654    -0.269770093042    -0.274665495668    12.000000000000
           H         -2.474209375654     0.814437906958    -0.479570495668     1.007825032070
           H         -1.146797375654     1.796282906958     0.064522504332     1.007825032070
           C         -0.162629375654    -0.090237093042    -1.721134495668    12.000000000000
           H         -1.099668375654    -1.243766093042    -0.163114495668     1.007825032070
           H          0.239937624346    -0.279060093042     0.382314504332     1.007825032070
           C          0.805222624346    -1.186965093042    -2.173240495668    12.000000000000
           H         -1.033680375654    -0.071306093042    -2.371246495668     1.007825032070
           H          0.319936624346     0.880507906958    -1.826812495668     1.007825032070
           C          2.237485624346    -1.031781093042    -1.649206495668    12.000000000000
           H          0.823464624346    -1.225093093042    -3.261315495668     1.007825032070
           H          0.419452624346    -2.149159093042    -1.842972495668     1.007825032070
           C          2.981484624346     0.192282906958    -2.185632495668    12.000000000000
           H          2.798605624346    -1.924123093042    -1.915323495668     1.007825032070
           H          2.221431624346    -0.997344093042    -0.561788495668     1.007825032070
           H          2.999211624346     0.192840906958    -3.272349495668     1.007825032070
           H          2.523250624346     1.120751906958    -1.861686495668     1.007825032070
           H          4.010495624346     0.199720906958    -1.839112495668     1.007825032070

  Charge       = 0
  Multiplicity = 1
  Basis Set: 6-31G*
  Basis Set:

    Orbital Energies (a.u.)
    -----------------------

    Doubly Occupied:

       1A    -20.562140     2A    -11.326262     3A    -11.235264
       4A    -11.234597     5A    -11.223390     6A    -11.219193
       7A    -11.217400     8A    -11.216496     9A    -11.210732
      10A     -1.402127    11A     -1.104791    12A     -1.069438
      13A     -1.011359    14A     -0.943267    15A     -0.874950
      16A     -0.828624    17A     -0.788425    18A     -0.771755
      19A     -0.665524    20A     -0.661096    21A     -0.633692
      22A     -0.624858    23A     -0.609947    24A     -0.588793
      25A     -0.566437    26A     -0.559483    27A     -0.537624
      28A     -0.521625    29A     -0.513642    30A     -0.499101
      31A     -0.488513    32A     -0.480147    33A     -0.459112
      34A     -0.452844    35A     -0.444865    36A     -0.409630

  @DF-RHF Final Energy:  -387.11954329500867

   => Energetics <=

    Nuclear Repulsion Energy =            447.8148548146514827
    One-Electron Energy =               -1411.9546030169121877
    Two-Electron Energy =                 577.0202049072518093
    DFT Exchange-Correlation Energy =       0.0000000000000000
    Empirical Dispersion Energy =           0.0000000000000000
    PCM Polarization Energy =               0.0000000000000000
    EFP Energy =                            0.0000000000000000
    Total Energy =                       -387.1195432950089526

  Mulliken Charges: (a.u.)
   Center  Symbol    Alpha    Beta     Spin     Total
       1     H     0.43265  0.43265  0.00000  0.13470
       2     C     2.83085  2.83085  0.00000  0.33830
       3     C     3.20802  3.20802  0.00000 -0.41605
       4     O     4.23786  4.23786  0.00000 -0.47572
       5     C     3.16606  3.16606  0.00000 -0.33212
       6     H     0.39973  0.39973  0.00000  0.20055
       7     H     0.40674  0.40674  0.00000  0.18651
       8     C     3.15669  3.15669  0.00000 -0.31339
       9     H     0.41283  0.41283  0.00000  0.17434
      10     H     0.41982  0.41982  0.00000  0.16037
      11     C     3.15630  3.15630  0.00000 -0.31261
      12     H     0.41803  0.41803  0.00000  0.16395
      13     H     0.41752  0.41752  0.00000  0.16496
      14     C     3.15572  3.15572  0.00000 -0.31144
      15     H     0.42030  0.42030  0.00000  0.15941
      16     H     0.42137  0.42137  0.00000  0.15726
      17     C     3.15533  3.15533  0.00000 -0.31066
      18     H     0.42110  0.42110  0.00000  0.15779
      19     H     0.42078  0.42078  0.00000  0.15845
      20     C     3.24086  3.24086  0.00000 -0.48172
      21     H     0.41924  0.41924  0.00000  0.16151
      22     H     0.42064  0.42064  0.00000  0.15871
      23     H     0.42170  0.42170  0.00000  0.15661
      24     H     0.42192  0.42192  0.00000  0.15615
      25     H     0.41793  0.41793  0.00000  0.16413

   Total alpha = 36.00000, Total beta = 36.00000, Total charge =  0.00000
