  ==> Input File <==

--------------------------------------------------------------------------
set {
	reference rhf
	basis 6-31G*
}

set_num_threads( 4 )
memory 2 gb

molecule MOL {
0 1

H	 3.729471	 -0.928294	 -0.070608
O	 2.826016	 -1.159218	 0.122261
C	 2.077727	 -0.067559	 -0.035091
C	 0.624473	 -0.343591	 0.253101
O	 2.542965	 0.974826	 -0.363729
C	 -0.265902	 0.883932	 0.072916
H	 0.324016	 -1.163849	 -0.390541
H	 0.565024	 -0.726111	 1.268924
C	 -1.728698	 0.646073	 0.462102
H	 -0.209144	 1.219470	 -0.958188
H	 0.135059	 1.692851	 0.673903
C	 -2.482460	 -0.343073	 -0.431425
H	 -2.245265	 1.602650	 0.432430
H	 -1.779332	 0.308348	 1.496285
C	 -3.829744	 -0.758671	 0.158982
H	 -2.640358	 0.106595	 -1.409643
H	 -1.881040	 -1.233163	 -0.597002
H	 -4.343923	 -1.460278	 -0.490388
H	 -4.478798	 0.101167	 0.297676
H	 -3.703015	 -1.235667	 1.126790

	symmetry c1
}
set optking {
	frozen_dihedral = ("
		16 12 9 6
	")
}

ee = optimize('scf')
oeprop('DIPOLE', 'QUADRUPOLE', 'MULLIKEN_CHARGES')
f=open( 'psi4out.xyz', 'w' )
f.write( "20  " )
f.write( str(ee) + "\n" )
f.write( MOL.save_string_xyz() )
f.close()
--------------------------------------------------------------------------

    Molecular point group: c1
  Charge       = 0
  Multiplicity = 1
  Basis Set: 6-31G*
  Basis Set:
  @DF-RHF Final Energy:  -383.94781449598793
    Total Energy =                       -383.9478144959879273
    Molecular point group: c1
  Basis Set: 6-31G*
  Basis Set:
  Basis Set: 6-31G*
  Basis Set:
  @DF-RHF Final Energy:  -383.94778972172855
    Total Energy =                       -383.9477897217287818
  Basis Set: 6-31G*
  Basis Set:
  Basis Set: 6-31G*
  Basis Set:
  @DF-RHF Final Energy:  -383.94799785059269
    Total Energy =                       -383.9479978505926283
  Basis Set: 6-31G*
  Basis Set:
  Basis Set: 6-31G*
  Basis Set:
  @DF-RHF Final Energy:  -383.94800212353272
    Total Energy =                       -383.9480021235331151
  Basis Set: 6-31G*
  Basis Set:
  Basis Set: 6-31G*
  Basis Set:
  @DF-RHF Final Energy:  -383.94793426449888
    Total Energy =                       -383.9479342644987128
  Basis Set: 6-31G*
  Basis Set:
  Basis Set: 6-31G*
  Basis Set:
  @DF-RHF Final Energy:  -383.94801116525548
    Total Energy =                       -383.9480111652558776
  Basis Set: 6-31G*
  Basis Set:
  Charge       = 0
  Multiplicity = 1
  Basis Set: 6-31G*
  Basis Set:

    Orbital Energies (a.u.)
    -----------------------

    Doubly Occupied:

       1A    -20.612617     2A    -20.551700     3A    -11.381309
       4A    -11.240420     5A    -11.223023     6A    -11.220684
       7A    -11.220056     8A    -11.212269     9A     -1.474687
      10A     -1.365742    11A     -1.095991    12A     -1.041051
      13A     -0.961064    14A     -0.868754    15A     -0.815031
      16A     -0.778368    17A     -0.699638    18A     -0.690620
      19A     -0.663360    20A     -0.635070    21A     -0.604909
      22A     -0.592763    23A     -0.576948    24A     -0.553475
      25A     -0.540923    26A     -0.511652    27A     -0.497494
      28A     -0.479412    29A     -0.469659    30A     -0.467611
      31A     -0.456851    32A     -0.443881

  @DF-RHF Final Energy:  -383.94801156879726

   => Energetics <=

    Nuclear Repulsion Energy =            376.0254854299482759
    One-Electron Energy =               -1268.0529290157469404
    Two-Electron Energy =                 508.0794320170011815
    DFT Exchange-Correlation Energy =       0.0000000000000000
    Empirical Dispersion Energy =           0.0000000000000000
    PCM Polarization Energy =               0.0000000000000000
    EFP Energy =                            0.0000000000000000
    Total Energy =                       -383.9480115687974831
    Molecular point group: c1
  Basis Set: 6-31G*
  Basis Set:

  -Total Gradient:
     Atom            X                  Y                   Z
    ------   -----------------  -----------------  -----------------
       1       -0.000003293716     0.000002472925     0.000000024920
       2       -0.000002397045    -0.000004188119     0.000005797411
       3        0.000004180957    -0.000003790993    -0.000020258714
       4        0.000006530061    -0.000005003022    -0.000000962390
       5       -0.000002950681     0.000001722224     0.000005295508
       6        0.000568446304    -0.001508760425     0.001135805458
       7        0.000005735810    -0.000000859574    -0.000000288008
       8       -0.000000607978     0.000000920020     0.000001470343
       9       -0.001335743149     0.002378237753    -0.001380692658
      10       -0.000008109141    -0.000004969842     0.000001350097
      11       -0.000005701502     0.000003486701    -0.000001805148
      12        0.003035953433    -0.001837255627    -0.000643498561
      13       -0.000005092002     0.000005696662     0.000004677987
      14        0.000014605660    -0.000000502403    -0.000009875141
      15        0.000002901673    -0.000000924832     0.000001377040
      16       -0.002274549614     0.000975455031     0.000901016581
      17       -0.000003769803    -0.000003697078     0.000001094728
      18        0.000003404437     0.000000621321    -0.000000656113
      19        0.000001096083     0.000001670726    -0.000001637923
      20       -0.000000639794    -0.000000331448     0.000001764584

  **** Optimization is complete! (in 7 steps) ****
    Final optimized geometry and variables:
    Molecular point group: c1

    Geometry (in Angstrom), charge = 0, multiplicity = 1:

    H            3.729449380422    -0.865146569824    -0.092636735290
    O            2.833940474006    -1.095096194617     0.135261725074
    C            2.067474121587    -0.023924973451    -0.068557454667
    C            0.625382723852    -0.299960186602     0.271155498736
    O            2.510703127942     1.002615479532    -0.469456858252
    C           -0.285180260430     0.904391271913     0.042094500586
    H            0.321601017180    -1.161773329791    -0.313784909669
    H            0.595870697445    -0.620962824300     1.309217803576
    C           -1.742471521756     0.656288813146     0.448295431574
    H           -0.235318296386     1.199564303784    -1.001763269864
    H            0.105836452013     1.742696852180     0.608468856552
    C           -2.514147714198    -0.300784421609    -0.466980094898
    H           -2.265286894146     1.608930327239     0.472991989763
    H           -1.764787243126     0.275385214305     1.468584678213
    C           -3.866525615487    -0.706897557398     0.120731372969
    H           -2.684819150261     0.186741506189    -1.424178846537
    H           -1.932197590186    -1.195534261592    -0.668032442347
    H           -4.413588853722    -1.351689626099    -0.559983588302
    H           -4.484443786790     0.164403931835     0.319044556852
    H           -3.742586712144    -1.242888061160     1.057426291144

  Mulliken Charges: (a.u.)
   Center  Symbol    Alpha    Beta     Spin     Total
       1     H     0.26783  0.26783  0.00000  0.46433
       2     O     4.35157  4.35157  0.00000 -0.70315
       3     C     2.62224  2.62224  0.00000  0.75551
       4     C     3.21230  3.21230  0.00000 -0.42460
       5     O     4.27920  4.27920  0.00000 -0.55840
       6     C     3.15466  3.15466  0.00000 -0.30933
       7     H     0.39743  0.39743  0.00000  0.20514
       8     H     0.39887  0.39887  0.00000  0.20226
       9     C     3.15629  3.15629  0.00000 -0.31258
      10     H     0.41177  0.41177  0.00000  0.17646
      11     H     0.40847  0.40847  0.00000  0.18306
      12     C     3.15426  3.15426  0.00000 -0.30852
      13     H     0.41686  0.41686  0.00000  0.16627
      14     H     0.42440  0.42440  0.00000  0.15119
      15     C     3.23954  3.23954  0.00000 -0.47908
      16     H     0.42033  0.42033  0.00000  0.15934
      17     H     0.42298  0.42298  0.00000  0.15405
      18     H     0.41851  0.41851  0.00000  0.16297
      19     H     0.42088  0.42088  0.00000  0.15825
      20     H     0.42160  0.42160  0.00000  0.15681

   Total alpha = 32.00000, Total beta = 32.00000, Total charge =  0.00000
