  ==> Input File <==

--------------------------------------------------------------------------
set {
	reference rhf
	basis cc-pvtz
}

set_num_threads( 4 )
memory 2 gb

molecule MOL {
0 1

H	 1.301991	 -2.588825	 -1.757487
C	 1.255997	 -1.554774	 -1.432821
C	 0.135987	 -1.371460	 -0.417697
H	 1.082422	 -0.929350	 -2.299791
H	 2.225589	 -1.296872	 -1.025251
N	 0.000297	 0.000045	 0.046090
H	 -0.792358	 -1.666678	 -0.886888
H	 0.280823	 -2.055863	 0.422865
C	 -1.359159	 0.315706	 0.454404
C	 0.979050	 0.340317	 1.066276
C	 -2.416729	 -0.286720	 -0.460525
H	 -1.478729	 1.390261	 0.442008
H	 -1.539692	 0.003361	 1.486761
C	 1.329656	 1.821815	 1.092340
H	 1.885655	 -0.214761	 0.868750
H	 0.639103	 0.021798	 2.055667
H	 -2.285276	 0.073129	 -1.473515
H	 -2.371743	 -1.368476	 -0.483209
H	 -3.408658	 -0.007405	 -0.121593
H	 1.732342	 2.128788	 0.134990
H	 0.469078	 2.443492	 1.306114
H	 2.073088	 2.017616	 1.857705

	symmetry c1
}
set optking {
	frozen_dihedral = ("
		3 6 9 11
	")
}

ee = optimize('scf')
oeprop('DIPOLE', 'QUADRUPOLE', 'MULLIKEN_CHARGES')
f=open( 'psi4out.xyz', 'w' )
f.write( "22  " )
f.write( str(ee) + "\n" )
f.write( MOL.save_string_xyz() )
f.close()
--------------------------------------------------------------------------

    Molecular point group: c1
  Charge       = 0
  Multiplicity = 1
  Basis Set: CC-PVTZ
  Basis Set:
  @DF-RHF Final Energy:  -290.46587732014552
    Total Energy =                       -290.4658773201454096
    Molecular point group: c1
  Basis Set: CC-PVTZ
  Basis Set:
  Basis Set: CC-PVTZ
  Basis Set:
  @DF-RHF Final Energy:  -290.46238268391136
    Total Energy =                       -290.4623826839108460
  Basis Set: CC-PVTZ
  Basis Set:
  Basis Set: CC-PVTZ
  Basis Set:
  @DF-RHF Final Energy:  -290.47088841846460
    Total Energy =                       -290.4708884184647104
  Basis Set: CC-PVTZ
  Basis Set:
  Basis Set: CC-PVTZ
  Basis Set:
  @DF-RHF Final Energy:  -290.47218486063326
    Total Energy =                       -290.4721848606328649
  Basis Set: CC-PVTZ
  Basis Set:
  @DF-RHF Final Energy:  -290.47231056226457
    Total Energy =                       -290.4723105622643970
  @DF-RHF Final Energy:  -290.47236984989985
    Total Energy =                       -290.4723698498996214
  @DF-RHF Final Energy:  -290.47239378253067
    Total Energy =                       -290.4723937825308440
  @DF-RHF Final Energy:  -290.47241001320043
    Total Energy =                       -290.4724100132003173
  Basis Set: CC-PVTZ
  Basis Set:
  @DF-RHF Final Energy:  -290.47241500323111
    Total Energy =                       -290.4724150032311059
  Basis Set: CC-PVTZ
  Basis Set:
  Basis Set: CC-PVTZ
  Basis Set:
  @DF-RHF Final Energy:  -290.47241779870461
    Total Energy =                       -290.4724177987045550
  Basis Set: CC-PVTZ
  Basis Set:
  Basis Set: CC-PVTZ
  Basis Set:
  @DF-RHF Final Energy:  -290.47241934449136
    Total Energy =                       -290.4724193444911862
  Basis Set: CC-PVTZ
  Basis Set:
  Charge       = 0
  Multiplicity = 1
  Basis Set: CC-PVTZ
  Basis Set:

    Orbital Energies (a.u.)
    -----------------------

    Doubly Occupied:

       1A    -15.532512     2A    -11.238904     3A    -11.237173
       4A    -11.236900     5A    -11.208801     6A    -11.203848
       7A    -11.203439     8A     -1.224043     9A     -1.025186
      10A     -1.024309    11A     -0.958668    12A     -0.855160
      13A     -0.846006    14A     -0.761636    15A     -0.647921
      16A     -0.640110    17A     -0.635096    18A     -0.596091
      19A     -0.593740    20A     -0.547587    21A     -0.529206
      22A     -0.521710    23A     -0.517830    24A     -0.501476
      25A     -0.490915    26A     -0.486242    27A     -0.464796
      28A     -0.460925    29A     -0.339150

  @DF-RHF Final Energy:  -290.47241953759345

   => Energetics <=

    Nuclear Repulsion Energy =            337.9369845876345266
    One-Electron Energy =               -1061.7600435072613436
    Two-Electron Energy =                 433.3506393820333642
    DFT Exchange-Correlation Energy =       0.0000000000000000
    Empirical Dispersion Energy =           0.0000000000000000
    PCM Polarization Energy =               0.0000000000000000
    EFP Energy =                            0.0000000000000000
    Total Energy =                       -290.4724195375935096
    Molecular point group: c1
  Basis Set: CC-PVTZ
  Basis Set:

  -Total Gradient:
     Atom            X                  Y                   Z
    ------   -----------------  -----------------  -----------------
       1        0.000003672153    -0.000002841333    -0.000004766395
       2       -0.000013486352     0.000000177495    -0.000010175297
       3       -0.000718524109     0.000992108944    -0.003295317486
       4        0.000001279500     0.000000717230     0.000001015341
       5       -0.000012870399    -0.000009478911    -0.000007740176
       6        0.000999898106    -0.002800562223     0.005739196197
       7        0.000013013128     0.000022684809    -0.000007573531
       8       -0.000008690092    -0.000004168960     0.000003677499
       9       -0.000161682292     0.004489381480    -0.004374228557
      10        0.000084708629     0.000039508176     0.000007567559
      11       -0.000143247385    -0.002694552155     0.001961405112
      12       -0.000042695159    -0.000025109289     0.000002032120
      13        0.000015059575    -0.000021577252     0.000007758409
      14       -0.000004137287    -0.000016236088    -0.000014297060
      15       -0.000000493743     0.000014555391     0.000014152370
      16       -0.000004467874    -0.000000165667    -0.000013120334
      17       -0.000009853972    -0.000004769224    -0.000010354151
      18        0.000013329070     0.000017501744     0.000010918269
      19       -0.000019111652    -0.000001777441    -0.000006614572
      20       -0.000000114215     0.000008154083    -0.000000795375
      21        0.000007532068     0.000000034576     0.000000328443
      22        0.000000882305    -0.000003585383    -0.000003068387

  **** Optimization is complete! (in 12 steps) ****
    Final optimized geometry and variables:
    Molecular point group: c1

    Geometry (in Angstrom), charge = 0, multiplicity = 1:

    H            1.370439977145    -2.522945008855    -1.806513233411
    C            1.382296472240    -1.513967137047    -1.408537581384
    C            0.173262307456    -1.308565176056    -0.502085575093
    H            1.350289254677    -0.818141382142    -2.238141804787
    H            2.325445967604    -1.383246387236    -0.894839849895
    N            0.020350464235     0.059928185194    -0.042915368170
    H           -0.698197572873    -1.577528917107    -1.074772799230
    H            0.222424713948    -2.014060996531     0.334818131635
    C           -1.315404226021     0.446502851968     0.389665792480
    C            1.026626205819     0.449280658577     0.926763100494
    C           -2.474635081210    -0.083300503549    -0.443827387085
    H           -1.364379591468     1.526555716454     0.379292302533
    H           -1.485922169085     0.142137014155     1.428577928677
    C            1.192287695661     1.956375173006     1.082098556955
    H            1.976760668880     0.045772062771     0.611196702274
    H            0.813123325956     0.006910174402     1.905729684383
    H           -2.329786338701     0.117129034855    -1.499411757768
    H           -2.632577691673    -1.145330909920    -0.314012581848
    H           -3.383341998923     0.418624799930    -0.132092378766
    H            1.361835881895     2.419741654499     0.117446790192
    H            0.330089548815     2.425675792141     1.537498939373
    H            2.046388695214     2.165132864143     1.716688910873

  Mulliken Charges: (a.u.)
   Center  Symbol    Alpha    Beta     Spin     Total
       1     H     0.45144  0.45144  0.00000  0.09713
       2     C     3.14673  3.14673  0.00000 -0.29346
       3     C     3.03774  3.03774  0.00000 -0.07547
       4     H     0.45116  0.45116  0.00000  0.09768
       5     H     0.45452  0.45452  0.00000  0.09096
       6     N     3.61738  3.61738  0.00000 -0.23476
       7     H     0.44806  0.44806  0.00000  0.10387
       8     H     0.46976  0.46976  0.00000  0.06049
       9     C     3.02735  3.02735  0.00000 -0.05470
      10     C     3.03976  3.03976  0.00000 -0.07952
      11     C     3.15996  3.15996  0.00000 -0.31992
      12     H     0.45422  0.45422  0.00000  0.09156
      13     H     0.47288  0.47288  0.00000  0.05424
      14     C     3.15050  3.15050  0.00000 -0.30099
      15     H     0.45042  0.45042  0.00000  0.09917
      16     H     0.46693  0.46693  0.00000  0.06615
      17     H     0.45012  0.45012  0.00000  0.09976
      18     H     0.45177  0.45177  0.00000  0.09646
      19     H     0.44543  0.44543  0.00000  0.10914
      20     H     0.45015  0.45015  0.00000  0.09969
      21     H     0.45367  0.45367  0.00000  0.09266
      22     H     0.45006  0.45006  0.00000  0.09987

   Total alpha = 29.00000, Total beta = 29.00000, Total charge = -0.00000
