  ==> Input File <==

--------------------------------------------------------------------------
set {
	reference rhf
	basis 6-31G*
}

set_num_threads( 1 )
memory 2 gb

molecule MOL {
0 1

H	 2.801816	 -0.298814	 -0.528033
O	 1.961075	 -0.745149	 -0.554993
C	 1.050492	 0.053836	 0.000068
C	 -0.318135	 -0.576402	 0.000164
O	 1.327904	 1.125755	 0.430215
C	 -1.454360	 0.441875	 -0.000474
H	 -0.374042	 -1.230163	 -0.866135
H	 -0.374274	 -1.229227	 0.867154
C	 -2.826123	 -0.230780	 0.000056
H	 -1.357605	 1.085198	 -0.868380
H	 -1.357504	 1.086451	 0.866496
H	 -2.959731	 -0.858053	 -0.876869
H	 -3.619374	 0.509403	 -0.000080
H	 -2.959371	 -0.857318	 0.877556

	symmetry c1
}
set optking {
	frozen_dihedral = ("
		7 4 6 10,
		1 2 3 5
	")
}

ee = energy('scf')
oeprop('DIPOLE', 'QUADRUPOLE', 'MULLIKEN_CHARGES')
f=open( 'psi4out.xyz', 'w' )
f.write( "14  " )
f.write( str(ee) + "\n" )
f.write( MOL.save_string_xyz() )
f.close()
--------------------------------------------------------------------------

    Molecular point group: c1

    Geometry (in Angstrom), charge = 0, multiplicity = 1:

       Center              X                  Y                   Z               Mass
    ------------   -----------------  -----------------  -----------------  -----------------
           H          2.804660608640    -0.304987128065    -0.499294777047     1.007825032070
           O          1.963919608640    -0.751322128065    -0.526254777047    15.994914619560
           C          1.053336608640     0.047662871935     0.028806222953    12.000000000000
           C         -0.315290391360    -0.582575128065     0.028902222953    12.000000000000
           O          1.330748608640     1.119581871935     0.458953222953    15.994914619560
           C         -1.451515391360     0.435701871935     0.028264222953    12.000000000000
           H         -0.371197391360    -1.236336128065    -0.837396777047     1.007825032070
           H         -0.371429391360    -1.235400128065     0.895892222953     1.007825032070
           C         -2.823278391360    -0.236953128065     0.028794222953    12.000000000000
           H         -1.354760391360     1.079024871935    -0.839641777047     1.007825032070
           H         -1.354659391360     1.080277871935     0.895234222953     1.007825032070
           H         -2.956886391360    -0.864226128065    -0.848130777047     1.007825032070
           H         -3.616529391360     0.503229871935     0.028658222953     1.007825032070
           H         -2.956526391360    -0.863491128065     0.906294222953     1.007825032070

  Charge       = 0
  Multiplicity = 1
  Basis Set: 6-31G*
  Basis Set:

    Orbital Energies (a.u.)
    -----------------------

    Doubly Occupied:

       1A    -20.613777     2A    -20.551478     3A    -11.381708
       4A    -11.240758     5A    -11.227517     6A    -11.217923
       7A     -1.475240     8A     -1.366094     9A     -1.083818
      10A     -0.979898    11A     -0.857342    12A     -0.793697
      13A     -0.701103    14A     -0.688192    15A     -0.663012
      16A     -0.618219    17A     -0.594248    18A     -0.572926
      19A     -0.545953    20A     -0.507814    21A     -0.493170
      22A     -0.482954    23A     -0.477379    24A     -0.443467

  @DF-RHF Final Energy:  -305.88012012471177

   => Energetics <=

    Nuclear Repulsion Energy =            239.9021772872408462
    One-Electron Energy =                -892.4092125128252064
    Two-Electron Energy =                 346.6269151008727363
    DFT Exchange-Correlation Energy =       0.0000000000000000
    Empirical Dispersion Energy =           0.0000000000000000
    PCM Polarization Energy =               0.0000000000000000
    EFP Energy =                            0.0000000000000000
    Total Energy =                       -305.8801201247115955

  Mulliken Charges: (a.u.)
   Center  Symbol    Alpha    Beta     Spin     Total
       1     H     0.26812  0.26812  0.00000  0.46377
       2     O     4.35055  4.35055  0.00000 -0.70110
       3     C     2.62244  2.62244  0.00000  0.75511
       4     C     3.21063  3.21063  0.00000 -0.42126
       5     O     4.27911  4.27911  0.00000 -0.55823
       6     C     3.15501  3.15501  0.00000 -0.31002
       7     H     0.39951  0.39951  0.00000  0.20098
       8     H     0.39764  0.39764  0.00000  0.20472
       9     C     3.24266  3.24266  0.00000 -0.48533
      10     H     0.41401  0.41401  0.00000  0.17198
      11     H     0.40528  0.40528  0.00000  0.18943
      12     H     0.42044  0.42044  0.00000  0.15912
      13     H     0.41441  0.41441  0.00000  0.17119
      14     H     0.42018  0.42018  0.00000  0.15964

   Total alpha = 24.00000, Total beta = 24.00000, Total charge = -0.00000
