  ==> Input File <==

--------------------------------------------------------------------------
set {
	reference rhf
	basis 6-31G*
}

set_num_threads( 4 )
memory 2 gb

molecule MOL {
0 1

H	 2.664590	 0.109393	 0.593930
O	 2.064459	 -0.086912	 -0.111827
C	 0.745630	 0.005118	 0.354752
H	 0.739005	 0.037656	 1.444976
C	 -0.064159	 -1.194875	 -0.122754
C	 -0.046302	 1.193543	 -0.190431
H	 0.197384	 -1.376065	 -1.160690
H	 0.162855	 -2.097978	 0.431858
C	 -1.535782	 -0.752177	 0.006642
H	 0.154512	 1.271315	 -1.255561
H	 0.226209	 2.140461	 0.267302
C	 -1.509193	 0.801505	 0.065617
H	 -2.127797	 -1.112194	 -0.826847
H	 -1.986849	 -1.158408	 0.905561
H	 -2.183670	 1.254107	 -0.651985
H	 -1.821727	 1.144320	 1.047089

	symmetry c1
}
set optking {
	frozen_dihedral = ("
		1 2 3 6
	")
}

ee = optimize('scf')
oeprop('DIPOLE', 'QUADRUPOLE', 'MULLIKEN_CHARGES')
f=open( 'psi4out.xyz', 'w' )
f.write( "16  " )
f.write( str(ee) + "\n" )
f.write( MOL.save_string_xyz() )
f.close()
--------------------------------------------------------------------------

    Molecular point group: c1
  Charge       = 0
  Multiplicity = 1
  Basis Set: 6-31G*
  Basis Set:
  @DF-RHF Final Energy:  -270.01265705341058
    Total Energy =                       -270.0126570534106349
    Molecular point group: c1
  Basis Set: 6-31G*
  Basis Set:
  Basis Set: 6-31G*
  Basis Set:
  @DF-RHF Final Energy:  -270.01287211028023
    Total Energy =                       -270.0128721102800569
  Basis Set: 6-31G*
  Basis Set:
  Basis Set: 6-31G*
  Basis Set:
  @DF-RHF Final Energy:  -270.01289540883386
    Total Energy =                       -270.0128954088340265
  Basis Set: 6-31G*
  Basis Set:
  Basis Set: 6-31G*
  Basis Set:
  @DF-RHF Final Energy:  -270.01289643145549
    Total Energy =                       -270.0128964314555446
  Basis Set: 6-31G*
  Basis Set:
  Charge       = 0
  Multiplicity = 1
  Basis Set: 6-31G*
  Basis Set:

    Orbital Energies (a.u.)
    -----------------------

    Doubly Occupied:

       1A    -20.551123     2A    -11.269588     3A    -11.214262
       4A    -11.213532     5A    -11.207110     6A    -11.206901
       7A     -1.359651     8A     -1.111432     9A     -0.962736
      10A     -0.947573    11A     -0.780928    12A     -0.776327
      13A     -0.713758    14A     -0.651160    15A     -0.619636
      16A     -0.577382    17A     -0.549691    18A     -0.527034
      19A     -0.518978    20A     -0.478888    21A     -0.468169
      22A     -0.455636    23A     -0.452123    24A     -0.409279

  @DF-RHF Final Energy:  -270.01289655944083

   => Energetics <=

    Nuclear Repulsion Energy =            254.8768358700899626
    One-Electron Energy =                -871.7336728671214132
    Two-Electron Energy =                 346.8439404375905042
    DFT Exchange-Correlation Energy =       0.0000000000000000
    Empirical Dispersion Energy =           0.0000000000000000
    PCM Polarization Energy =               0.0000000000000000
    EFP Energy =                            0.0000000000000000
    Total Energy =                       -270.0128965594409465
    Molecular point group: c1
  Basis Set: 6-31G*
  Basis Set:

  -Total Gradient:
     Atom            X                  Y                   Z
    ------   -----------------  -----------------  -----------------
       1        0.000058118877    -0.001113453903     0.000281643752
       2       -0.000174002332     0.001189447401    -0.000576164448
       3        0.000343121070     0.000334050322     0.000840784732
       4        0.000002315080    -0.000001544818    -0.000000161027
       5        0.000011073019    -0.000000738646    -0.000000758551
       6       -0.000249426360    -0.000386798193    -0.000541151461
       7       -0.000006462059    -0.000007049475     0.000002862226
       8       -0.000006156236     0.000000613780     0.000001569653
       9       -0.000003523997    -0.000000758973     0.000019321872
      10       -0.000001630867    -0.000007822046     0.000002907594
      11        0.000007419826     0.000009208193     0.000003362283
      12        0.000014213897    -0.000003192923    -0.000024655210
      13        0.000002213003    -0.000002362149    -0.000010244165
      14       -0.000006701812    -0.000008227998    -0.000008840413
      15       -0.000003594731    -0.000006065989     0.000007170120
      16        0.000013023622     0.000004695417     0.000002353044

  **** Optimization is complete! (in 5 steps) ****
    Final optimized geometry and variables:
    Molecular point group: c1

    Geometry (in Angstrom), charge = 0, multiplicity = 1:

    H            2.676482907102     0.142257311860     0.567102741603
    O            2.065658023049    -0.054690771173    -0.126040020342
    C            0.745775435373     0.001683422763     0.355133594788
    H            0.746110392972     0.031971868215     1.443843232006
    C           -0.072102081315    -1.197224051406    -0.121414768695
    C           -0.043181235096     1.191968158145    -0.186722272505
    H            0.193567648278    -1.381651044916    -1.157814735427
    H            0.148837418087    -2.101967722668     0.434260617275
    C           -1.541987450712    -0.749122213744    -0.000033410435
    H            0.166723988860     1.272025180152    -1.249506973411
    H            0.235250092192     2.134564298924     0.273784055847
    C           -1.508464611542     0.804972001833     0.058404827334
    H           -2.131805964347    -1.106681438496    -0.836247737072
    H           -1.999898628220    -1.153048250629     0.896703807502
    H           -2.177003135280     1.259009214161    -0.663917945415
    H           -1.827708090330     1.149045745431     1.037541151573

  Mulliken Charges: (a.u.)
   Center  Symbol    Alpha    Beta     Spin     Total
       1     H     0.27988  0.27988  0.00000  0.44024
       2     O     4.37832  4.37832  0.00000 -0.75664
       3     C     2.91082  2.91082  0.00000  0.17835
       4     H     0.43091  0.43091  0.00000  0.13817
       5     C     3.16714  3.16714  0.00000 -0.33428
       6     C     3.16712  3.16712  0.00000 -0.33425
       7     H     0.41115  0.41115  0.00000  0.17769
       8     H     0.41650  0.41650  0.00000  0.16700
       9     C     3.16903  3.16903  0.00000 -0.33806
      10     H     0.41318  0.41318  0.00000  0.17364
      11     H     0.41936  0.41936  0.00000  0.16128
      12     C     3.17013  3.17013  0.00000 -0.34026
      13     H     0.41476  0.41476  0.00000  0.17048
      14     H     0.41806  0.41806  0.00000  0.16387
      15     H     0.41430  0.41430  0.00000  0.17140
      16     H     0.41932  0.41932  0.00000  0.16135

   Total alpha = 24.00000, Total beta = 24.00000, Total charge = -0.00000
