  ==> Input File <==

--------------------------------------------------------------------------
set {
	reference rhf
	basis 6-31G*
}

set_num_threads( 1 )
memory 2 gb

molecule MOL {
0 1

H	 -2.596135	 -1.433884	 -2.852166
O	 -2.535961	 -1.204968	 -1.935716
C	 -1.237511	 -0.755039	 -1.645574
C	 -1.177863	 -0.397191	 -0.171080
H	 -0.504639	 -1.528427	 -1.871579
H	 -0.989620	 0.115888	 -2.250864
C	 0.198102	 0.111031	 0.262842
H	 -1.451079	 -1.276760	 0.405496
H	 -1.935847	 0.355049	 0.029099
C	 1.331804	 -0.827780	 -0.158768
H	 0.361943	 1.100838	 -0.156218
H	 0.217265	 0.229072	 1.345532
C	 2.723619	 -0.410569	 0.329459
H	 1.342964	 -0.912588	 -1.244120
H	 1.116806	 -1.824343	 0.220779
C	 3.243875	 0.895854	 -0.272975
H	 3.424222	 -1.207124	 0.091250
H	 2.714788	 -0.329854	 1.414619
H	 3.251977	 0.848779	 -1.358681
H	 2.637085	 1.747371	 0.016682
H	 4.259473	 1.094070	 0.055697

	symmetry c1
}
set optking {
	frozen_dihedral = ("
		2 3 4 8,
		4 7 10 14,
		16 13 10 14,
		1 2 3 5
	")
}

ee = energy('scf')
oeprop('DIPOLE', 'QUADRUPOLE', 'MULLIKEN_CHARGES')
f=open( 'psi4out.xyz', 'w' )
f.write( "21  " )
f.write( str(ee) + "\n" )
f.write( MOL.save_string_xyz() )
f.close()
--------------------------------------------------------------------------

    Molecular point group: c1

    Geometry (in Angstrom), charge = 0, multiplicity = 1:

       Center              X                  Y                   Z               Mass
    ------------   -----------------  -----------------  -----------------  -----------------
           H         -2.913102095398    -1.052673953806    -2.293547950673     1.007825032070
           O         -2.852928095398    -0.823757953806    -1.377097950673    15.994914619560
           C         -1.554478095398    -0.373828953806    -1.086955950673    12.000000000000
           C         -1.494830095398    -0.015980953806     0.387538049327    12.000000000000
           H         -0.821606095398    -1.147216953806    -1.312960950673     1.007825032070
           H         -1.306587095398     0.497098046194    -1.692245950673     1.007825032070
           C         -0.118865095398     0.492241046194     0.821460049327    12.000000000000
           H         -1.768046095398    -0.895549953806     0.964114049327     1.007825032070
           H         -2.252814095398     0.736259046194     0.587717049327     1.007825032070
           C          1.014836904602    -0.446569953806     0.399850049327    12.000000000000
           H          0.044975904602     1.482048046194     0.402400049327     1.007825032070
           H         -0.099702095398     0.610282046194     1.904150049327     1.007825032070
           C          2.406651904602    -0.029358953806     0.888077049327    12.000000000000
           H          1.025996904602    -0.531377953806    -0.685501950673     1.007825032070
           H          0.799838904602    -1.443132953806     0.779397049327     1.007825032070
           C          2.926907904602     1.277064046194     0.285643049327    12.000000000000
           H          3.107254904602    -0.825913953806     0.649868049327     1.007825032070
           H          2.397820904602     0.051356046194     1.973237049327     1.007825032070
           H          2.935009904602     1.229989046194    -0.800062950673     1.007825032070
           H          2.320117904602     2.128581046194     0.575300049327     1.007825032070
           H          3.942505904602     1.475280046194     0.614315049327     1.007825032070

  Charge       = 0
  Multiplicity = 1
  Basis Set: 6-31G*
  Basis Set:

    Orbital Energies (a.u.)
    -----------------------

    Doubly Occupied:

       1A    -20.551133     2A    -11.265726     3A    -11.216418
       4A    -11.215684     5A    -11.214877     6A    -11.210542
       7A    -11.209409     8A     -1.357980     9A     -1.089270
      10A     -1.032640    11A     -0.949943    12A     -0.884632
      13A     -0.815325    14A     -0.767612    15A     -0.695731
      16A     -0.655006    17A     -0.625137    18A     -0.608767
      19A     -0.593633    20A     -0.557569    21A     -0.547243
      22A     -0.517389    23A     -0.515375    24A     -0.497096
      25A     -0.478936    26A     -0.457235    27A     -0.451192
      28A     -0.446673    29A     -0.429584

  @DF-RHF Final Energy:  -310.20883471485217

   => Energetics <=

    Nuclear Repulsion Energy =            318.8258513431704841
    One-Electron Energy =               -1052.3538692297158832
    Two-Electron Energy =                 423.3191831716925435
    DFT Exchange-Correlation Energy =       0.0000000000000000
    Empirical Dispersion Energy =           0.0000000000000000
    PCM Polarization Energy =               0.0000000000000000
    EFP Energy =                            0.0000000000000000
    Total Energy =                       -310.2088347148528555

  Mulliken Charges: (a.u.)
   Center  Symbol    Alpha    Beta     Spin     Total
       1     H     0.28139  0.28139  0.00000  0.43722
       2     O     4.37295  4.37295  0.00000 -0.74589
       3     C     2.99280  2.99280  0.00000  0.01441
       4     C     3.15959  3.15959  0.00000 -0.31918
       5     H     0.42899  0.42899  0.00000  0.14202
       6     H     0.43346  0.43346  0.00000  0.13309
       7     C     3.16132  3.16132  0.00000 -0.32265
       8     H     0.41511  0.41511  0.00000  0.16977
       9     H     0.41280  0.41280  0.00000  0.17441
      10     C     3.15975  3.15975  0.00000 -0.31950
      11     H     0.42092  0.42092  0.00000  0.15815
      12     H     0.41904  0.41904  0.00000  0.16192
      13     C     3.15100  3.15100  0.00000 -0.30200
      14     H     0.42362  0.42362  0.00000  0.15276
      15     H     0.42045  0.42045  0.00000  0.15910
      16     C     3.24131  3.24131  0.00000 -0.48263
      17     H     0.42109  0.42109  0.00000  0.15783
      18     H     0.42290  0.42290  0.00000  0.15421
      19     H     0.42302  0.42302  0.00000  0.15396
      20     H     0.41965  0.41965  0.00000  0.16071
      21     H     0.41885  0.41885  0.00000  0.16229

   Total alpha = 29.00000, Total beta = 29.00000, Total charge = -0.00000
