  ==> Input File <==

--------------------------------------------------------------------------
set {
	reference rhf
	basis 6-31G*
}

set_num_threads( 4 )
memory 2 gb

molecule MOL {
0 1

H	 3.302195	 -0.416198	 0.013499
C	 2.241793	 -0.237422	 0.010597
C	 1.409818	 -1.034133	 -0.766531
C	 1.713983	 0.785123	 0.781179
H	 1.827067	 -1.825889	 -1.361974
C	 0.047555	 -0.807272	 -0.772580
H	 2.360658	 1.399319	 1.381030
C	 0.347169	 1.011700	 0.774247
H	 -0.612457	 -1.411590	 -1.366159
C	 -0.488460	 0.219100	 0.000000
H	 -0.069089	 1.805042	 1.371143
C	 -1.949954	 0.470334	 0.000000
O	 -2.781584	 -0.381627	 0.000000
H	 -2.238022	 1.526388	 0.000000

	symmetry c1
}
set optking {
	frozen_dihedral = ("
		8 10 12 14
	")
}

ee = optimize('scf')
oeprop('DIPOLE', 'QUADRUPOLE', 'MULLIKEN_CHARGES')
f=open( 'psi4out.xyz', 'w' )
f.write( "14  " )
f.write( str(ee) + "\n" )
f.write( MOL.save_string_xyz() )
f.close()
--------------------------------------------------------------------------

    Molecular point group: c1
  Charge       = 0
  Multiplicity = 1
  Basis Set: 6-31G*
  Basis Set:
  @DF-RHF Final Energy:  -343.42732524979505
    Total Energy =                       -343.4273252497951034
    Molecular point group: c1
  Basis Set: 6-31G*
  Basis Set:
  Basis Set: 6-31G*
  Basis Set:
  @DF-RHF Final Energy:  -343.42512165708206
    Total Energy =                       -343.4251216570821725
  Basis Set: 6-31G*
  Basis Set:
  Basis Set: 6-31G*
  Basis Set:
  @DF-RHF Final Energy:  -343.42802010174489
    Total Energy =                       -343.4280201017446643
  Basis Set: 6-31G*
  Basis Set:
  Basis Set: 6-31G*
  Basis Set:
  @DF-RHF Final Energy:  -343.42809145819069
    Total Energy =                       -343.4280914581905790
  Basis Set: 6-31G*
  Basis Set:
  Charge       = 0
  Multiplicity = 1
  Basis Set: 6-31G*
  Basis Set:

    Orbital Energies (a.u.)
    -----------------------

    Doubly Occupied:

       1A    -20.565362     2A    -11.332569     3A    -11.252443
       4A    -11.248672     5A    -11.247761     6A    -11.246508
       7A    -11.244499     8A    -11.242757     9A     -1.405400
      10A     -1.170218    11A     -1.046121    12A     -1.030507
      13A     -0.888388    14A     -0.842633    15A     -0.792000
      16A     -0.720710    17A     -0.676946    18A     -0.651751
      19A     -0.624454    20A     -0.617426    21A     -0.601967
      22A     -0.546397    23A     -0.526305    24A     -0.506263
      25A     -0.502398    26A     -0.422078    27A     -0.348574
      28A     -0.346239

  @DF-RHF Final Energy:  -343.42809245788357

   => Energetics <=

    Nuclear Repulsion Energy =            323.1536485612605816
    One-Electron Energy =               -1105.8687900383160923
    Two-Electron Energy =                 439.2870490191721728
    DFT Exchange-Correlation Energy =       0.0000000000000000
    Empirical Dispersion Energy =           0.0000000000000000
    PCM Polarization Energy =               0.0000000000000000
    EFP Energy =                            0.0000000000000000
    Total Energy =                       -343.4280924578833947
    Molecular point group: c1
  Basis Set: 6-31G*
  Basis Set:

  -Total Gradient:
     Atom            X                  Y                   Z
    ------   -----------------  -----------------  -----------------
       1       -0.000003400397    -0.000021018433     0.000027039907
       2        0.000014929939     0.000069482874    -0.000076000731
       3        0.000007812042     0.000056196138    -0.000083060492
       4       -0.000006043204    -0.000081034582     0.000099157209
       5        0.000000588358    -0.000009668867     0.000014103269
       6       -0.000007435862    -0.000102681730     0.000140709780
       7        0.000006323182     0.000010254533    -0.000012540417
       8       -0.000415981421    -0.003693198649     0.004102778891
       9        0.000005155439     0.000050866551    -0.000037930590
      10        0.000484781105     0.005526315733    -0.008270962906
      11       -0.000001291844    -0.000007055523    -0.000005639500
      12        0.000055201041    -0.002067173100     0.010949955503
      13        0.000023942479    -0.000012244309     0.000009539561
      14       -0.000164580847     0.000280959366    -0.006857149487

  **** Optimization is complete! (in 5 steps) ****
    Final optimized geometry and variables:
    Molecular point group: c1

    Geometry (in Angstrom), charge = 0, multiplicity = 1:

    H            3.296570876386    -0.432897431952     0.030681637825
    C            2.238129507075    -0.243350526685     0.020798519904
    C            1.401968028139    -1.032385483632    -0.757471436157
    C            1.714032006234     0.782993791763     0.789317175095
    H            1.812562574100    -1.831811559436    -1.347320877007
    C            0.039436258712    -0.799149849738    -0.762174022410
    H            2.361061368172     1.384692909181     1.401466777873
    C            0.351561535063     1.032584760033     0.764642020027
    H           -0.622607528917    -1.417931947015    -1.338805656023
    C           -0.486912053507     0.251932907900    -0.019174759042
    H           -0.057887235338     1.835123773744     1.354236477688
    C           -1.958537675463     0.465628537579     0.028844932090
    O           -2.759471210773    -0.409736575872    -0.059962524731
    H           -2.283585409602     1.509287547612     0.080037130998

  Mulliken Charges: (a.u.)
   Center  Symbol    Alpha    Beta     Spin     Total
       1     H     0.39472  0.39472  0.00000  0.21056
       2     C     3.09312  3.09312  0.00000 -0.18623
       3     C     3.10327  3.10327  0.00000 -0.20655
       4     C     3.10246  3.10246  0.00000 -0.20491
       5     H     0.39434  0.39434  0.00000  0.21131
       6     C     3.08990  3.08990  0.00000 -0.17981
       7     H     0.39502  0.39502  0.00000  0.20995
       8     C     3.10252  3.10252  0.00000 -0.20503
       9     H     0.38161  0.38161  0.00000  0.23679
      10     C     3.04621  3.04621  0.00000 -0.09243
      11     H     0.39363  0.39363  0.00000  0.21275
      12     C     2.84092  2.84092  0.00000  0.31816
      13     O     4.23855  4.23855  0.00000 -0.47709
      14     H     0.42374  0.42374  0.00000  0.15253

   Total alpha = 28.00000, Total beta = 28.00000, Total charge =  0.00000
