  ==> Input File <==

--------------------------------------------------------------------------
set {
	reference rhf
	basis 6-31G*
}

set_num_threads( 1 )
memory 2 gb

molecule MOL {
0 1

H	 -2.646374	 -0.642757	 1.268656
C	 -2.083525	 -0.384536	 0.393091
O	 -0.807605	 -0.127164	 0.768327
F	 -2.118945	 -1.383102	 -0.486752
F	 -2.621877	 0.670592	 -0.209486
C	 -0.234838	 1.055771	 0.337872
C	 1.150692	 0.711578	 -0.193162
Cl	 -0.121886	 2.222348	 1.665860
H	 -0.796090	 1.517651	 -0.455499
F	 1.755184	 1.793732	 -0.635513
F	 1.022195	 -0.126784	 -1.202159
F	 1.904984	 0.149903	 0.719821

	symmetry c1
}
set optking {
	frozen_dihedral = ("
		10 7 6 9,
		9 6 3 2
	")
}

ee = energy('scf')
oeprop('DIPOLE', 'QUADRUPOLE', 'MULLIKEN_CHARGES')
f=open( 'psi4out.xyz', 'w' )
f.write( "12  " )
f.write( str(ee) + "\n" )
f.write( MOL.save_string_xyz() )
f.close()
--------------------------------------------------------------------------

    Molecular point group: c1

    Geometry (in Angstrom), charge = 0, multiplicity = 1:

       Center              X                  Y                   Z               Mass
    ------------   -----------------  -----------------  -----------------  -----------------
           H         -2.451931488101    -1.263153286659     1.033016832844     1.007825032070
           C         -1.889082488101    -1.004932286659     0.157451832844    12.000000000000
           O         -0.613162488101    -0.747560286659     0.532687832844    15.994914619560
           F         -1.924502488101    -2.003498286659    -0.722391167156    18.998403224000
           F         -2.427434488101     0.050195713341    -0.445125167156    18.998403224000
           C         -0.040395488101     0.435374713341     0.102232832844    12.000000000000
           C          1.345134511899     0.091181713341    -0.428801167156    12.000000000000
          CL          0.072556511899     1.601951713341     1.430220832844    34.968852682000
           H         -0.601647488101     0.897254713341    -0.691138167156     1.007825032070
           F          1.949626511899     1.173335713341    -0.871152167156    18.998403224000
           F          1.216637511899    -0.747180286659    -1.437798167156    18.998403224000
           F          2.099426511899    -0.470493286659     0.484181832844    18.998403224000

  Charge       = 0
  Multiplicity = 1
  Basis Set: 6-31G*
  Basis Set:

    Orbital Energies (a.u.)
    -----------------------

    Doubly Occupied:

       1A   -104.845876     2A    -26.359221     3A    -26.358798
       4A    -26.357774     5A    -26.356037     6A    -26.340243
       7A    -20.649314     8A    -11.525959     9A    -11.491102
      10A    -11.399446    11A    -10.580672    12A     -8.050014
      13A     -8.046536    14A     -8.046402    15A     -1.759967
      16A     -1.722162    17A     -1.656575    18A     -1.655057
      19A     -1.640671    20A     -1.486976    21A     -1.180944
      22A     -1.052962    23A     -0.986168    24A     -0.918452
      25A     -0.860309    26A     -0.849448    27A     -0.842436
      28A     -0.835490    29A     -0.819336    30A     -0.791713
      31A     -0.726029    32A     -0.724666    33A     -0.702794
      34A     -0.696363    35A     -0.679276    36A     -0.673230
      37A     -0.660547    38A     -0.656950    39A     -0.651414
      40A     -0.632551    41A     -0.600800    42A     -0.585076
      43A     -0.515065    44A     -0.480194    45A     -0.470774

  @DF-RHF Final Energy: -1146.30726316397113

   => Energetics <=

    Nuclear Repulsion Energy =            736.4031165362284810
    One-Electron Energy =               -3055.5769606474846114
    Two-Electron Energy =                1172.8665809472845467
    DFT Exchange-Correlation Energy =       0.0000000000000000
    Empirical Dispersion Energy =           0.0000000000000000
    PCM Polarization Energy =               0.0000000000000000
    EFP Energy =                            0.0000000000000000
    Total Energy =                      -1146.3072631639715837

  Mulliken Charges: (a.u.)
   Center  Symbol    Alpha    Beta     Spin     Total
       1     H     0.40825  0.40825  0.00000  0.18350
       2     C     2.56316  2.56316  0.00000  0.87368
       3     O     4.30243  4.30243  0.00000 -0.60487
       4     F     4.67802  4.67802  0.00000 -0.35604
       5     F     4.68424  4.68424  0.00000 -0.36848
       6     C     3.05034  3.05034  0.00000 -0.10068
       7     C     2.43094  2.43094  0.00000  1.13811
       8    CL     8.50411  8.50411  0.00000 -0.00822
       9     H     0.35951  0.35951  0.00000  0.28098
      10     F     4.67432  4.67432  0.00000 -0.34865
      11     F     4.67603  4.67603  0.00000 -0.35206
      12     F     4.66864  4.66864  0.00000 -0.33727

   Total alpha = 45.00000, Total beta = 45.00000, Total charge =  0.00000
