  ==> Input File <==

--------------------------------------------------------------------------
set {
	reference rhf
	basis 6-31G*
}

set_num_threads( 1 )
memory 2 gb

molecule MOL {
0 1

H	 -3.420663	 1.227371	 -1.044276
O	 -3.452007	 0.283848	 -0.965577
C	 -3.181085	 -0.079926	 0.364119
C	 -1.765924	 0.277073	 0.805136
H	 -3.327791	 -1.152017	 0.410903
H	 -3.905698	 0.375695	 1.036898
C	 -0.799647	 0.493497	 -0.360191
H	 -1.802838	 1.174475	 1.423416
H	 -1.396998	 -0.519355	 1.449199
C	 0.611665	 0.873263	 0.092750
H	 -1.195382	 1.265661	 -1.012776
H	 -0.754509	 -0.416261	 -0.956593
C	 1.574624	 1.082447	 -1.079017
H	 0.558451	 1.776602	 0.695714
H	 1.004850	 0.093954	 0.744431
C	 3.023364	 1.377864	 -0.674005
H	 1.206019	 1.891834	 -1.707283
H	 1.565599	 0.189299	 -1.700324
C	 3.221488	 2.709121	 0.053255
H	 3.638551	 1.376202	 -1.570572
H	 3.394937	 0.567018	 -0.050574
H	 2.847173	 3.537998	 -0.541714
H	 4.274631	 2.890576	 0.245092
H	 2.709090	 2.730223	 1.009376

	symmetry c1
}
set optking {
	frozen_dihedral = ("
		20 16 13 17,
		17 13 10 7,
		13 10 7 11,
		11 7 4 3,
		1 2 3 5
	")
}

ee = energy('scf')
oeprop('DIPOLE', 'QUADRUPOLE', 'MULLIKEN_CHARGES')
f=open( 'psi4out.xyz', 'w' )
f.write( "24  " )
f.write( str(ee) + "\n" )
f.write( MOL.save_string_xyz() )
f.close()
--------------------------------------------------------------------------

    Molecular point group: c1

    Geometry (in Angstrom), charge = 0, multiplicity = 1:

       Center              X                  Y                   Z               Mass
    ------------   -----------------  -----------------  -----------------  -----------------
           H         -3.269413616025     0.344814471958    -0.815193219915     1.007825032070
           O         -3.300757616025    -0.598708528042    -0.736494219915    15.994914619560
           C         -3.029835616025    -0.962482528042     0.593201780085    12.000000000000
           C         -1.614674616025    -0.605483528042     1.034218780085    12.000000000000
           H         -3.176541616025    -2.034573528042     0.639985780085     1.007825032070
           H         -3.754448616025    -0.506861528042     1.265980780085     1.007825032070
           C         -0.648397616025    -0.389059528042    -0.131108219915    12.000000000000
           H         -1.651588616025     0.291918471958     1.652498780085     1.007825032070
           H         -1.245748616025    -1.401911528042     1.678281780085     1.007825032070
           C          0.762914383975    -0.009293528042     0.321832780085    12.000000000000
           H         -1.044132616025     0.383104471958    -0.783693219915     1.007825032070
           H         -0.603259616025    -1.298817528042    -0.727510219915     1.007825032070
           C          1.725873383975     0.199890471958    -0.849934219915    12.000000000000
           H          0.709700383975     0.894045471958     0.924796780085     1.007825032070
           H          1.156099383975    -0.788602528042     0.973513780085     1.007825032070
           C          3.174613383975     0.495307471958    -0.444922219915    12.000000000000
           H          1.357268383975     1.009277471958    -1.478200219915     1.007825032070
           H          1.716848383975    -0.693257528042    -1.471241219915     1.007825032070
           C          3.372737383975     1.826564471958     0.282337780085    12.000000000000
           H          3.789800383975     0.493645471958    -1.341489219915     1.007825032070
           H          3.546186383975    -0.315538528042     0.178508780085     1.007825032070
           H          2.998422383975     2.655441471958    -0.312631219915     1.007825032070
           H          4.425880383975     2.008019471958     0.474174780085     1.007825032070
           H          2.860339383975     1.847666471958     1.238458780085     1.007825032070

  Charge       = 0
  Multiplicity = 1
  Basis Set: 6-31G*
  Basis Set:

    Orbital Energies (a.u.)
    -----------------------

    Doubly Occupied:

       1A    -20.553095     2A    -11.266789     3A    -11.215325
       4A    -11.214313     5A    -11.213095     6A    -11.212311
       7A    -11.211741     8A    -11.207706     9A     -1.360844
      10A     -1.088311    11A     -1.047520    12A     -0.986124
      13A     -0.917523    14A     -0.851993    15A     -0.794172
      16A     -0.776677    17A     -0.685671    18A     -0.650200
      19A     -0.628066    20A     -0.617036    21A     -0.599264
      22A     -0.587447    23A     -0.555400    24A     -0.544744
      25A     -0.512355    26A     -0.508726    27A     -0.499835
      28A     -0.476399    29A     -0.461285    30A     -0.456900
      31A     -0.451959    32A     -0.449810    33A     -0.423209

  @DF-RHF Final Energy:  -349.24046706733162

   => Energetics <=

    Nuclear Repulsion Energy =            386.8150454531284481
    One-Electron Energy =               -1240.0596517594681245
    Two-Electron Energy =                 504.0041392390082819
    DFT Exchange-Correlation Energy =       0.0000000000000000
    Empirical Dispersion Energy =           0.0000000000000000
    PCM Polarization Energy =               0.0000000000000000
    EFP Energy =                            0.0000000000000000
    Total Energy =                       -349.2404670673313376

  Mulliken Charges: (a.u.)
   Center  Symbol    Alpha    Beta     Spin     Total
       1     H     0.28246  0.28246  0.00000  0.43507
       2     O     4.36786  4.36786  0.00000 -0.73573
       3     C     2.99242  2.99242  0.00000  0.01517
       4     C     3.18431  3.18431  0.00000 -0.36862
       5     H     0.41522  0.41522  0.00000  0.16956
       6     H     0.42793  0.42793  0.00000  0.14413
       7     C     3.14115  3.14115  0.00000 -0.28230
       8     H     0.42406  0.42406  0.00000  0.15189
       9     H     0.41830  0.41830  0.00000  0.16340
      10     C     3.15430  3.15430  0.00000 -0.30860
      11     H     0.42852  0.42852  0.00000  0.14295
      12     H     0.41651  0.41651  0.00000  0.16698
      13     C     3.15214  3.15214  0.00000 -0.30429
      14     H     0.42355  0.42355  0.00000  0.15291
      15     H     0.42467  0.42467  0.00000  0.15066
      16     C     3.15227  3.15227  0.00000 -0.30453
      17     H     0.42490  0.42490  0.00000  0.15020
      18     H     0.42131  0.42131  0.00000  0.15737
      19     C     3.24105  3.24105  0.00000 -0.48209
      20     H     0.42104  0.42104  0.00000  0.15792
      21     H     0.42349  0.42349  0.00000  0.15302
      22     H     0.42273  0.42273  0.00000  0.15454
      23     H     0.41944  0.41944  0.00000  0.16112
      24     H     0.42037  0.42037  0.00000  0.15926

   Total alpha = 33.00000, Total beta = 33.00000, Total charge = -0.00000
