  ==> Input File <==

--------------------------------------------------------------------------
set {
	reference rhf
	basis cc-pvtz
}

set_num_threads( 4 )
memory 2 gb

molecule MOL {
0 1

H	 -1.752232	 -2.214755	 -0.011938
C	 -1.343852	 -1.221619	 -0.018179
N	 -0.058800	 -1.097635	 -0.261688
C	 -2.148159	 -0.124236	 0.219734
C	 0.449026	 0.119242	 -0.273393
H	 -3.196988	 -0.237571	 0.417076
N	 -1.655094	 1.094230	 0.209506
C	 -0.370318	 1.215445	 -0.035100
C	 1.924033	 0.265863	 -0.538106
H	 0.033214	 2.210441	 -0.046812
C	 2.270890	 0.147402	 -2.023066
H	 2.238098	 1.235811	 -0.171598
H	 2.466737	 -0.482573	 0.027165
H	 3.333598	 0.291989	 -2.176950
H	 1.738967	 0.893160	 -2.599158
H	 2.005485	 -0.830417	 -2.409040

	symmetry c1
}
set optking {
	frozen_dihedral = ("
		12 9 5 3
	")
}

ee = optimize('scf')
oeprop('DIPOLE', 'QUADRUPOLE', 'MULLIKEN_CHARGES')
f=open( 'psi4out.xyz', 'w' )
f.write( "16  " )
f.write( str(ee) + "\n" )
f.write( MOL.save_string_xyz() )
f.close()
--------------------------------------------------------------------------

    Molecular point group: c1
  Charge       = 0
  Multiplicity = 1
  Basis Set: CC-PVTZ
  Basis Set:
  @DF-RHF Final Energy:  -340.87212232694867
    Total Energy =                       -340.8721223269487268
    Molecular point group: c1
  Basis Set: CC-PVTZ
  Basis Set:
  Basis Set: CC-PVTZ
  Basis Set:
  @DF-RHF Final Energy:  -340.87227090666812
    Total Energy =                       -340.8722709066681773
  Basis Set: CC-PVTZ
  Basis Set:
  Basis Set: CC-PVTZ
  Basis Set:
  @DF-RHF Final Energy:  -340.87233235925925
    Total Energy =                       -340.8723323592593601
  Basis Set: CC-PVTZ
  Basis Set:
  Basis Set: CC-PVTZ
  Basis Set:
  @DF-RHF Final Energy:  -340.87233658556630
    Total Energy =                       -340.8723365855661314
  Basis Set: CC-PVTZ
  Basis Set:
  Basis Set: CC-PVTZ
  Basis Set:
  @DF-RHF Final Energy:  -340.87233791069076
    Total Energy =                       -340.8723379106905327
  Basis Set: CC-PVTZ
  Basis Set:
  Charge       = 0
  Multiplicity = 1
  Basis Set: CC-PVTZ
  Basis Set:

    Orbital Energies (a.u.)
    -----------------------

    Doubly Occupied:

       1A    -15.580700     2A    -15.576181     3A    -11.278233
       4A    -11.272575     5A    -11.268466     6A    -11.267998
       7A    -11.231433     8A    -11.217696     9A     -1.316184
      10A     -1.224232    11A     -1.086416    12A     -1.015531
      13A     -0.906429    14A     -0.895906    15A     -0.829904
      16A     -0.719171    17A     -0.713105    18A     -0.659954
      19A     -0.613189    20A     -0.604863    21A     -0.584783
      22A     -0.563373    23A     -0.524340    24A     -0.507595
      25A     -0.501651    26A     -0.489167    27A     -0.433208
      28A     -0.397875    29A     -0.346954

  @DF-RHF Final Energy:  -340.87233842986404

   => Energetics <=

    Nuclear Repulsion Energy =            350.5746238745325627
    One-Electron Energy =               -1155.6396993147991452
    Two-Electron Energy =                 464.1927370104025385
    DFT Exchange-Correlation Energy =       0.0000000000000000
    Empirical Dispersion Energy =           0.0000000000000000
    PCM Polarization Energy =               0.0000000000000000
    EFP Energy =                            0.0000000000000000
    Total Energy =                       -340.8723384298640440
    Molecular point group: c1
  Basis Set: CC-PVTZ
  Basis Set:

  -Total Gradient:
     Atom            X                  Y                   Z
    ------   -----------------  -----------------  -----------------
       1       -0.000011946364    -0.000000070362    -0.000004242181
       2        0.000092423585    -0.000048495181    -0.000005176953
       3       -0.000028844526    -0.000093629407     0.000330886575
       4       -0.000006565855     0.000104790221     0.000012095531
       5       -0.000072367408     0.000144665446    -0.000349737881
       6       -0.000002132336    -0.000009038598    -0.000004418534
       7       -0.000085484671    -0.000071632202     0.000015531893
       8        0.000106252128    -0.000033674578    -0.000040003916
       9       -0.000077210957     0.000180519428    -0.000309216847
      10       -0.000003852162    -0.000001819256    -0.000000370556
      11        0.000002774474    -0.000002243470     0.000001007514
      12        0.000075853768    -0.000161308050     0.000355078158
      13        0.000008595654     0.000000616941    -0.000002007904
      14        0.000001607230     0.000001933685    -0.000001644460
      15        0.000001597935    -0.000004642716     0.000010456869
      16       -0.000000700491    -0.000005971901    -0.000008237309

  **** Optimization is complete! (in 6 steps) ****
    Final optimized geometry and variables:
    Molecular point group: c1

    Geometry (in Angstrom), charge = 0, multiplicity = 1:

    H           -1.665649914747    -2.273355488157     0.352234352460
    C           -1.263800860155    -1.277668953892     0.345064298107
    N            0.024347719983    -1.147117811748     0.117799153560
    C           -2.076664536461    -0.185052713064     0.570444410515
    C            0.524839905849     0.072177108760     0.110186844816
    H           -3.126976215092    -0.303756080546     0.755888784936
    N           -1.589546223791     1.036571192963     0.568324154613
    C           -0.302828195037     1.164160574807     0.341581497705
    C            1.995411275354     0.230462089512    -0.170433229190
    H            0.097698755577     2.160519987970     0.343630984190
    C            2.327906952514     0.090159526945    -1.657060701074
    H            2.330254546296     1.194972225195     0.193044294144
    H            2.527494788813    -0.527351512339     0.390746200931
    H            3.395218559189     0.184085129443    -1.818046040361
    H            1.831100385996     0.855286651618    -2.242876577288
    H            2.012159655941    -0.876498823300    -2.028136033000

  Mulliken Charges: (a.u.)
   Center  Symbol    Alpha    Beta     Spin     Total
       1     H     0.41364  0.41364  0.00000  0.17271
       2     C     3.04420  3.04420  0.00000 -0.08840
       3     N     3.59832  3.59832  0.00000 -0.19663
       4     C     3.04746  3.04746  0.00000 -0.09492
       5     C     2.93665  2.93665  0.00000  0.12671
       6     H     0.41366  0.41366  0.00000  0.17268
       7     N     3.58679  3.58679  0.00000 -0.17358
       8     C     3.07836  3.07836  0.00000 -0.15672
       9     C     3.07975  3.07975  0.00000 -0.15951
      10     H     0.41547  0.41547  0.00000  0.16905
      11     C     3.14429  3.14429  0.00000 -0.28858
      12     H     0.44899  0.44899  0.00000  0.10202
      13     H     0.44386  0.44386  0.00000  0.11228
      14     H     0.44915  0.44915  0.00000  0.10171
      15     H     0.45344  0.45344  0.00000  0.09312
      16     H     0.44598  0.44598  0.00000  0.10805

   Total alpha = 29.00000, Total beta = 29.00000, Total charge = -0.00000
