  ==> Input File <==

--------------------------------------------------------------------------
set {
	reference rhf
	basis 6-31G*
}

set_num_threads( 1 )
memory 2 gb

molecule MOL {
0 1

O	 -1.276010	 1.052711	 -0.768302
C	 -1.204840	 0.067374	 -0.106123
C	 -2.388195	 -0.672128	 0.458071
O	 -0.067104	 -0.527208	 0.221609
H	 -2.388023	 -1.694060	 0.097175
H	 -3.300579	 -0.174919	 0.164318
H	 -2.315377	 -0.706351	 1.539059
C	 1.172197	 0.142491	 -0.049618
C	 2.217459	 -0.951225	 -0.179232
C	 1.477887	 1.129265	 1.066392
H	 1.065828	 0.670903	 -0.985552
H	 1.953998	 -1.640476	 -0.973441
H	 3.185434	 -0.517860	 -0.408470
H	 2.302738	 -1.511678	 0.745579
H	 2.426114	 1.622863	 0.878664
H	 0.708680	 1.888459	 1.128998
H	 1.543101	 0.614946	 2.019928

	symmetry c1
}
set optking {
	frozen_dihedral = ("
		11 8 4 2
	")
}

ee = energy('scf')
oeprop('DIPOLE', 'QUADRUPOLE', 'MULLIKEN_CHARGES')
f=open( 'psi4out.xyz', 'w' )
f.write( "17  " )
f.write( str(ee) + "\n" )
f.write( MOL.save_string_xyz() )
f.close()
--------------------------------------------------------------------------

    Molecular point group: c1

    Geometry (in Angstrom), charge = 0, multiplicity = 1:

       Center              X                  Y                   Z               Mass
    ------------   -----------------  -----------------  -----------------  -----------------
           O         -1.266541465711     1.018075346695    -0.864010122341    15.994914619560
           C         -1.195371465711     0.032738346695    -0.201831122341    12.000000000000
           C         -2.378726465711    -0.706763653305     0.362362877659    12.000000000000
           O         -0.057635465711    -0.561843653305     0.125900877659    15.994914619560
           H         -2.378554465711    -1.728695653305     0.001466877659     1.007825032070
           H         -3.291110465711    -0.209554653305     0.068609877659     1.007825032070
           H         -2.305908465711    -0.740986653305     1.443350877659     1.007825032070
           C          1.181665534289     0.107855346695    -0.145326122341    12.000000000000
           C          2.226927534289    -0.985860653305    -0.274940122341    12.000000000000
           C          1.487355534289     1.094629346695     0.970683877659    12.000000000000
           H          1.075296534289     0.636267346695    -1.081260122341     1.007825032070
           H          1.963466534289    -1.675111653305    -1.069149122341     1.007825032070
           H          3.194902534289    -0.552495653305    -0.504178122341     1.007825032070
           H          2.312206534289    -1.546313653305     0.649870877659     1.007825032070
           H          2.435582534289     1.588227346695     0.782955877659     1.007825032070
           H          0.718148534289     1.853823346695     1.033289877659     1.007825032070
           H          1.552569534289     0.580310346695     1.924219877659     1.007825032070

  Charge       = 0
  Multiplicity = 1
  Basis Set: 6-31G*
  Basis Set:

    Orbital Energies (a.u.)
    -----------------------

    Doubly Occupied:

       1A    -20.598373     2A    -20.543015     3A    -11.374659
       4A    -11.289820     5A    -11.232299     6A    -11.219340
       7A    -11.217890     8A     -1.465183     9A     -1.361417
      10A     -1.078658    11A     -1.005281    12A     -0.948997
      13A     -0.848342    14A     -0.765023    15A     -0.692245
      16A     -0.668044    17A     -0.660699    18A     -0.614723
      19A     -0.586267    20A     -0.578338    21A     -0.562818
      22A     -0.551031    23A     -0.534910    24A     -0.522673
      25A     -0.502748    26A     -0.482383    27A     -0.447237
      28A     -0.435046

  @DF-RHF Final Energy:  -344.91407067446568

   => Energetics <=

    Nuclear Repulsion Energy =            323.0193811053904369
    One-Electron Energy =               -1110.2921993965312595
    Two-Electron Energy =                 442.3587476166751458
    DFT Exchange-Correlation Energy =       0.0000000000000000
    Empirical Dispersion Energy =           0.0000000000000000
    PCM Polarization Energy =               0.0000000000000000
    EFP Energy =                            0.0000000000000000
    Total Energy =                       -344.9140706744656200

  Mulliken Charges: (a.u.)
   Center  Symbol    Alpha    Beta     Spin     Total
       1     O     4.28493  4.28493  0.00000 -0.56987
       2     C     2.61708  2.61708  0.00000  0.76584
       3     C     3.28202  3.28202  0.00000 -0.56403
       4     O     4.31417  4.31417  0.00000 -0.62833
       5     H     0.40032  0.40032  0.00000  0.19935
       6     H     0.39742  0.39742  0.00000  0.20516
       7     H     0.40144  0.40144  0.00000  0.19711
       8     C     2.92919  2.92919  0.00000  0.14163
       9     C     3.24187  3.24187  0.00000 -0.48374
      10     C     3.25039  3.25039  0.00000 -0.50078
      11     H     0.39885  0.39885  0.00000  0.20230
      12     H     0.41134  0.41134  0.00000  0.17732
      13     H     0.41782  0.41782  0.00000  0.16437
      14     H     0.41443  0.41443  0.00000  0.17113
      15     H     0.41712  0.41712  0.00000  0.16576
      16     H     0.40522  0.40522  0.00000  0.18956
      17     H     0.41640  0.41640  0.00000  0.16721

   Total alpha = 28.00000, Total beta = 28.00000, Total charge =  0.00000
