  ==> Input File <==

--------------------------------------------------------------------------
set {
	reference rhf
	basis cc-pvtz
}

set_num_threads( 4 )
memory 2 gb

molecule MOL {
0 1

H	 2.324354	 -2.081213	 0.061337
N	 1.343288	 -1.906805	 0.062321
C	 0.937198	 -1.258733	 -1.168507
C	 0.962598	 -1.129354	 1.224426
H	 1.216080	 -1.884929	 -2.007229
H	 1.415174	 -0.286445	 -1.301972
C	 -0.567949	 -1.062370	 -1.161575
H	 1.259885	 -1.661799	 2.119677
H	 1.442178	 -0.148891	 1.242147
C	 -0.542583	 -0.933161	 1.228222
H	 -1.054341	 -2.041868	 -1.186021
H	 -0.866580	 -0.525319	 -2.054051
N	 -0.976577	 -0.298712	 -0.000000
H	 -0.822872	 -0.302683	 2.063719
H	 -1.027228	 -1.903757	 1.368412
C	 -2.391156	 -0.021003	 -0.000000
H	 -2.853954	 -0.458728	 -0.875714
H	 -2.853954	 -0.458728	 0.875714
H	 -2.614037	 1.049773	 -0.000000

	symmetry c1
}
set optking {
	frozen_dihedral = ("
		7 13 16 19
	")
}

ee = optimize('scf')
oeprop('DIPOLE', 'QUADRUPOLE', 'MULLIKEN_CHARGES')
f=open( 'psi4out.xyz', 'w' )
f.write( "19  " )
f.write( str(ee) + "\n" )
f.write( MOL.save_string_xyz() )
f.close()
--------------------------------------------------------------------------

    Molecular point group: c1
  Charge       = 0
  Multiplicity = 1
  Basis Set: CC-PVTZ
  Basis Set:
  @DF-RHF Final Energy:  -305.30225519317844
    Total Energy =                       -305.3022551931784960
    Molecular point group: c1
  Basis Set: CC-PVTZ
  Basis Set:
  Basis Set: CC-PVTZ
  Basis Set:
  @DF-RHF Final Energy:  -305.30291860504292
    Total Energy =                       -305.3029186050425778
  Basis Set: CC-PVTZ
  Basis Set:
  Basis Set: CC-PVTZ
  Basis Set:
  @DF-RHF Final Energy:  -305.30305426637875
    Total Energy =                       -305.3030542663790357
  Basis Set: CC-PVTZ
  Basis Set:
  Basis Set: CC-PVTZ
  Basis Set:
  @DF-RHF Final Energy:  -305.30306136817416
    Total Energy =                       -305.3030613681738714
  Basis Set: CC-PVTZ
  Basis Set:
  Charge       = 0
  Multiplicity = 1
  Basis Set: CC-PVTZ
  Basis Set:

    Orbital Energies (a.u.)
    -----------------------

    Doubly Occupied:

       1A    -15.532533     2A    -15.530630     3A    -11.236468
       4A    -11.236450     5A    -11.235660     6A    -11.235614
       7A    -11.232933     8A     -1.246020     9A     -1.184972
      10A     -1.023617    11A     -0.964948    12A     -0.861310
      13A     -0.859044    14A     -0.756368    15A     -0.691810
      16A     -0.632164    17A     -0.624187    18A     -0.606193
      19A     -0.605256    20A     -0.582130    21A     -0.544212
      22A     -0.535357    23A     -0.512314    24A     -0.488261
      25A     -0.467648    26A     -0.457384    27A     -0.365437
      28A     -0.340227

  @DF-RHF Final Energy:  -305.30306217285948

   => Energetics <=

    Nuclear Repulsion Energy =            339.6994181295326030
    One-Electron Energy =               -1086.8266706900708414
    Two-Electron Energy =                 441.8241903876785841
    DFT Exchange-Correlation Energy =       0.0000000000000000
    Empirical Dispersion Energy =           0.0000000000000000
    PCM Polarization Energy =               0.0000000000000000
    EFP Energy =                            0.0000000000000000
    Total Energy =                       -305.3030621728595975
    Molecular point group: c1
  Basis Set: CC-PVTZ
  Basis Set:

  -Total Gradient:
     Atom            X                  Y                   Z
    ------   -----------------  -----------------  -----------------
       1        0.000005110327    -0.000000109693    -0.000001847876
       2       -0.000013920012    -0.000004170978    -0.000000331969
       3        0.000010993560    -0.000008163028    -0.000011164194
       4        0.000010212104     0.000002263810     0.000006619657
       5        0.000011514845    -0.000005281030    -0.000002370072
       6       -0.000011362579    -0.000000657721    -0.000002814217
       7        0.000205461576     0.000917472229    -0.000532816078
       8        0.000005637100    -0.000003163957     0.000000753652
       9       -0.000007195752     0.000002483459     0.000004846618
      10       -0.000015932799    -0.000001110522     0.000026169508
      11        0.000000908422     0.000011768914     0.000010261987
      12        0.000004405634    -0.000005237680     0.000000365098
      13       -0.000248251058    -0.001262882256     0.000340854918
      14        0.000002727336    -0.000004468231     0.000001717281
      15       -0.000002601730     0.000008827434    -0.000010336248
      16       -0.000013516395     0.000377571687     0.001579521609
      17        0.000001250434    -0.000015853745     0.000003215689
      18        0.000018038888    -0.000023126359    -0.000008842502
      19        0.000036520095     0.000013837668    -0.001403802859

  **** Optimization is complete! (in 5 steps) ****
    Final optimized geometry and variables:
    Molecular point group: c1

    Geometry (in Angstrom), charge = 0, multiplicity = 1:

    H            2.525626553997    -1.109161177700     0.034305166776
    N            1.542348763774    -0.947213228264     0.036487098545
    C            1.126383243580    -0.307847645628    -1.195386601639
    C            1.154124183887    -0.170514087415     1.196355912984
    H            1.418685712029    -0.928881406704    -2.033583704612
    H            1.586513853491     0.673384888331    -1.327717028395
    C           -0.382312072193    -0.138409564261    -1.192790469327
    H            1.464857225690    -0.692757147886     2.093238114173
    H            1.617090924863     0.818210486572     1.205932947849
    C           -0.354205275943     0.000473472313     1.206792108497
    H           -0.849553027130    -1.126916488808    -1.233493424299
    H           -0.681684391176     0.403301685880    -2.081807916776
    N           -0.806573625702     0.607185150063    -0.026701121815
    H           -0.635889659236     0.640322955411     2.034732628001
    H           -0.820909602558    -0.975592070429     1.369494311985
    C           -2.218801054872     0.945351199085    -0.024147974913
    H           -2.709401520126     0.577565474482    -0.918395891244
    H           -2.737112297131     0.507276515979     0.823373186709
    H           -2.366482580178     2.019733351331     0.007221078756

  Mulliken Charges: (a.u.)
   Center  Symbol    Alpha    Beta     Spin     Total
       1     H     0.43995  0.43995  0.00000  0.12010
       2     N     3.64275  3.64275  0.00000 -0.28550
       3     C     3.04200  3.04200  0.00000 -0.08400
       4     C     3.04201  3.04201  0.00000 -0.08402
       5     H     0.45274  0.45274  0.00000  0.09452
       6     H     0.46626  0.46626  0.00000  0.06749
       7     C     3.03437  3.03437  0.00000 -0.06875
       8     H     0.45276  0.45276  0.00000  0.09448
       9     H     0.46621  0.46621  0.00000  0.06757
      10     C     3.03474  3.03474  0.00000 -0.06947
      11     H     0.46897  0.46897  0.00000  0.06206
      12     H     0.45383  0.45383  0.00000  0.09234
      13     N     3.61681  3.61681  0.00000 -0.23362
      14     H     0.45368  0.45368  0.00000  0.09264
      15     H     0.46892  0.46892  0.00000  0.06215
      16     C     3.09134  3.09134  0.00000 -0.18268
      17     H     0.46021  0.46021  0.00000  0.07958
      18     H     0.46197  0.46197  0.00000  0.07606
      19     H     0.45048  0.45048  0.00000  0.09904

   Total alpha = 28.00000, Total beta = 28.00000, Total charge = -0.00000
