                              Psi4 1.0.54 Driver

  ==> Input File <==

--------------------------------------------------------------------------
set {
	reference rhf
	basis cc-pvtz
}

set_num_threads( 4 )
memory 2 gb

molecule MOL {
0 1

H	 -2.422953	 -1.501458	 0.449512
O	 -2.658848	 -0.704215	 -0.000460
C	 -1.605397	 0.107680	 0.001145
C	 -0.310616	 -0.658853	 0.000791
O	 -1.718351	 1.284629	 -0.000627
C	 0.926581	 0.227233	 0.000178
H	 -0.327628	 -1.313681	 -0.864448
H	 -0.327041	 -1.313334	 0.866298
C	 2.220156	 -0.582071	 -0.000088
H	 0.899945	 0.878221	 -0.866390
H	 0.900542	 0.878581	 0.866486
C	 3.466689	 0.296012	 -0.000457
H	 2.239073	 -1.234095	 -0.869382
H	 2.239505	 -1.233985	 0.869270
H	 3.493549	 0.935857	 -0.875887
H	 4.368821	 -0.304526	 -0.001199
H	 3.494559	 0.935166	 0.875458

	symmetry c1
}
set optking {
	frozen_dihedral = ("
		1 2 3 5
	")
}

ee,wfn = optimize('scf', return_wfn=True)
oeprop( wfn, 'DIPOLE', 'QUADRUPOLE', 'MULLIKEN_CHARGES')
f=open( 'psi4out.xyz', 'w' )
f.write( "17  " )
f.write( str(ee) + "\n" )
f.write( MOL.save_string_xyz() )
f.close()
--------------------------------------------------------------------------

    Molecular point group: c1
  Charge       = 0
  Multiplicity = 1
  Basis Set: CC-PVTZ
  Basis Set:
  @DF-RHF Final Energy:  -345.03534250629349
    Total Energy =                       -345.0353425062933752
    Molecular point group: c1
  Basis Set: CC-PVTZ
  Basis Set:
  Basis Set: CC-PVTZ
  Basis Set:
  @DF-RHF Final Energy:  -345.03624233007815
    Total Energy =                       -345.0362423300785508
  Basis Set: CC-PVTZ
  Basis Set:
  Basis Set: CC-PVTZ
  Basis Set:
  @DF-RHF Final Energy:  -345.03638142145303
    Total Energy =                       -345.0363814214529157
  Basis Set: CC-PVTZ
  Basis Set:
  Basis Set: CC-PVTZ
  Basis Set:
  @DF-RHF Final Energy:  -345.03665047472970
    Total Energy =                       -345.0366504747296403
  Basis Set: CC-PVTZ
  Basis Set:
  Basis Set: CC-PVTZ
  Basis Set:
  @DF-RHF Final Energy:  -345.03675159619957
    Total Energy =                       -345.0367515961994513
  Basis Set: CC-PVTZ
  Basis Set:
  Basis Set: CC-PVTZ
  Basis Set:
  @DF-RHF Final Energy:  -345.03675271647830
    Total Energy =                       -345.0367527164784178
  Basis Set: CC-PVTZ
  Basis Set:
  Charge       = 0
  Multiplicity = 1
  Basis Set: CC-PVTZ
  Basis Set:

    Orbital Energies (a.u.)
    -----------------------

    Doubly Occupied:

       1A    -20.600133     2A    -20.539712     3A    -11.373065
       4A    -11.249080     5A    -11.226143     6A    -11.225395
       7A    -11.213983     8A     -1.469178     9A     -1.373401
      10A     -1.097065    11A     -1.020683    12A     -0.909076
      13A     -0.834558    14A     -0.806548    15A     -0.717265
      16A     -0.676890    17A     -0.662671    18A     -0.637257
      19A     -0.603822    20A     -0.584988    21A     -0.564321
      22A     -0.544420    23A     -0.515372    24A     -0.490246
      25A     -0.485013    26A     -0.479820    27A     -0.476545
      28A     -0.443250

  @DF-RHF Final Energy:  -345.03675285484587

   => Energetics <=

    Nuclear Repulsion Energy =            304.6405814429792827
    One-Electron Energy =               -1073.7148677006296111
    Two-Electron Energy =                 424.0375334028044563
    DFT Exchange-Correlation Energy =       0.0000000000000000
    Empirical Dispersion Energy =           0.0000000000000000
    PCM Polarization Energy =               0.0000000000000000
    EFP Energy =                            0.0000000000000000
    Total Energy =                       -345.0367528548458722
    Molecular point group: c1
  Basis Set: CC-PVTZ
  Basis Set:

  -Total Gradient:
     Atom            X                  Y                   Z
    ------   -----------------  -----------------  -----------------
       1       -0.001610602738     0.002510551562     0.005327403550
       2        0.001993035036    -0.003207026178    -0.004394602478
       3       -0.000323320784     0.000866699958    -0.006215534602
       4        0.000016061359    -0.000000520944    -0.000023880135
       5       -0.000049064773    -0.000181061103     0.005280540962
       6        0.000005822649     0.000002829982     0.000013858342
       7        0.000006481007     0.000000776097     0.000002934755
       8       -0.000004896881     0.000012256541     0.000022314410
       9       -0.000003696760    -0.000005042543    -0.000001044034
      10        0.000001778044     0.000000713758    -0.000006427191
      11       -0.000005141611    -0.000004576088    -0.000001369089
      12       -0.000015186398     0.000004007075    -0.000004375278
      13        0.000003135174     0.000001870134    -0.000000274819
      14       -0.000001647181     0.000004544927     0.000001267847
      15       -0.000000400246    -0.000000706408     0.000000717584
      16       -0.000009422954    -0.000002690284    -0.000001527321
      17       -0.000002932934    -0.000002626489    -0.000000002502

  **** Optimization is complete! (in 7 steps) ****
    Final optimized geometry and variables:
    Molecular point group: c1

    Geometry (in Angstrom), charge = 0, multiplicity = 1:

    H           -2.667832962523    -1.312330094334     0.371459006072
    O           -2.752787759010    -0.473245379659    -0.046769322919
    C           -1.603432005588     0.217442179401    -0.023161712621
    C           -0.353558416902    -0.632605569425    -0.032406033289
    O           -1.618015700749     1.392228357920     0.003388691164
    C            0.937899017009     0.171031684552     0.016920880913
    H           -0.392477604907    -1.253252590214    -0.922804699579
    H           -0.408808515176    -1.316053272576     0.812670959398
    C            2.178510270135    -0.717170355078     0.004637421260
    H            0.962495620089     0.851733935458    -0.825899067964
    H            0.936866495175     0.791920719663     0.905359987819
    C            3.476309941386     0.081776841715     0.050513769390
    H            2.170322764921    -1.338890056425    -0.886781148067
    H            2.145734304445    -1.398253350855     0.851208169476
    H            3.555049520467     0.747547169941    -0.801985797082
    H            4.339592539474    -0.573169100550     0.040615253295
    H            3.530051840723     0.688175989026     0.948125265046

  Mulliken Charges: (a.u.)
   Center  Symbol    Alpha    Beta     Spin     Total
       1     H     0.38799  0.38799  0.00000  0.22402
       2     O     4.15145  4.15145  0.00000 -0.30289
       3     C     2.80324  2.80324  0.00000  0.39352
       4     C     3.12571  3.12571  0.00000 -0.25142
       5     O     4.17131  4.17131  0.00000 -0.34261
       6     C     3.08559  3.08559  0.00000 -0.17118
       7     H     0.43646  0.43646  0.00000  0.12708
       8     H     0.45117  0.45117  0.00000  0.09767
       9     C     3.08650  3.08650  0.00000 -0.17300
      10     H     0.44272  0.44272  0.00000  0.11455
      11     H     0.44444  0.44444  0.00000  0.11112
      12     C     3.14933  3.14933  0.00000 -0.29865
      13     H     0.45477  0.45477  0.00000  0.09045
      14     H     0.45561  0.45561  0.00000  0.08878
      15     H     0.45278  0.45278  0.00000  0.09443
      16     H     0.44775  0.44775  0.00000  0.10451
      17     H     0.45319  0.45319  0.00000  0.09362

   Total alpha = 28.00000, Total beta = 28.00000, Total charge =  0.00000

*** Psi4 exiting successfully. Buy a developer a beer!
