  ==> Input File <==

--------------------------------------------------------------------------
set {
	reference rhf
	basis 6-31G*
}

set_num_threads( 4 )
memory 2 gb

molecule MOL {
0 1

H	 3.639898	 -1.030694	 -0.355058
O	 2.826016	 -1.159218	 0.122261
C	 2.077727	 -0.067559	 -0.035091
C	 0.624473	 -0.343591	 0.253101
O	 2.542965	 0.974826	 -0.363729
C	 -0.265902	 0.883932	 0.072916
H	 0.324016	 -1.163849	 -0.390541
H	 0.565024	 -0.726111	 1.268924
C	 -1.728698	 0.646073	 0.462102
H	 -0.209144	 1.219470	 -0.958188
H	 0.135059	 1.692851	 0.673903
C	 -2.482460	 -0.343073	 -0.431425
H	 -2.245265	 1.602650	 0.432430
H	 -1.779332	 0.308348	 1.496285
C	 -3.960546	 -0.461025	 -0.060175
H	 -2.395034	 -0.026811	 -1.468912
H	 -2.024850	 -1.327147	 -0.371646
H	 -4.472726	 -1.168004	 -0.705284
H	 -4.465146	 0.496508	 -0.151489
H	 -4.081218	 -0.800940	 0.964585

	symmetry c1
}
set optking {
	frozen_dihedral = ("
		1 2 3 5
	")
}

ee = optimize('scf')
oeprop('DIPOLE', 'QUADRUPOLE', 'MULLIKEN_CHARGES')
f=open( 'psi4out.xyz', 'w' )
f.write( "20  " )
f.write( str(ee) + "\n" )
f.write( MOL.save_string_xyz() )
f.close()
--------------------------------------------------------------------------

    Molecular point group: c1
  Charge       = 0
  Multiplicity = 1
  Basis Set: 6-31G*
  Basis Set:
  @DF-RHF Final Energy:  -383.94619674032117
    Total Energy =                       -383.9461967403210565
    Molecular point group: c1
  Basis Set: 6-31G*
  Basis Set:
  Basis Set: 6-31G*
  Basis Set:
  @DF-RHF Final Energy:  -383.94261809836274
    Total Energy =                       -383.9426180983625727
  Basis Set: 6-31G*
  Basis Set:
  Basis Set: 6-31G*
  Basis Set:
  @DF-RHF Final Energy:  -383.94638567014738
    Total Energy =                       -383.9463856701473787
  Basis Set: 6-31G*
  Basis Set:
  Basis Set: 6-31G*
  Basis Set:
  @DF-RHF Final Energy:  -383.94643995709635
    Total Energy =                       -383.9464399570961177
  Basis Set: 6-31G*
  Basis Set:
  Basis Set: 6-31G*
  Basis Set:
  @DF-RHF Final Energy:  -383.94644386541262
    Total Energy =                       -383.9464438654125047
  Basis Set: 6-31G*
  Basis Set:
  Basis Set: 6-31G*
  Basis Set:
  @DF-RHF Final Energy:  -383.94644765961652
    Total Energy =                       -383.9464476596166378
  Basis Set: 6-31G*
  Basis Set:
  Basis Set: 6-31G*
  Basis Set:
  @DF-RHF Final Energy:  -383.94644936941211
    Total Energy =                       -383.9464493694121074
  Basis Set: 6-31G*
  Basis Set:
  Charge       = 0
  Multiplicity = 1
  Basis Set: 6-31G*
  Basis Set:

    Orbital Energies (a.u.)
    -----------------------

    Doubly Occupied:

       1A    -20.610700     2A    -20.552498     3A    -11.381147
       4A    -11.239984     5A    -11.222816     6A    -11.220734
       7A    -11.220121     8A    -11.212476     9A     -1.472647
      10A     -1.366020    11A     -1.096069    12A     -1.040802
      13A     -0.960966    14A     -0.868546    15A     -0.816407
      16A     -0.776898    17A     -0.700077    18A     -0.689121
      19A     -0.664152    20A     -0.633391    21A     -0.608525
      22A     -0.591498    23A     -0.569942    24A     -0.554980
      25A     -0.542774    26A     -0.512081    27A     -0.496286
      28A     -0.479507    29A     -0.470071    30A     -0.467679
      31A     -0.457441    32A     -0.443368

  @DF-RHF Final Energy:  -383.94644947518395

   => Energetics <=

    Nuclear Repulsion Energy =            375.8213578034028615
    One-Electron Energy =               -1267.6561686813020060
    Two-Electron Energy =                 507.8883614027153612
    DFT Exchange-Correlation Energy =       0.0000000000000000
    Empirical Dispersion Energy =           0.0000000000000000
    PCM Polarization Energy =               0.0000000000000000
    EFP Energy =                            0.0000000000000000
    Total Energy =                       -383.9464494751837833
    Molecular point group: c1
  Basis Set: 6-31G*
  Basis Set:

  -Total Gradient:
     Atom            X                  Y                   Z
    ------   -----------------  -----------------  -----------------
       1       -0.002685749124    -0.003468551697    -0.005968582337
       2        0.003629781097     0.005263088154     0.010492013694
       3       -0.001505004418    -0.003753143985    -0.011348245260
       4        0.000019005810     0.000092041187     0.000183118122
       5        0.000533069037     0.001885111670     0.006647878988
       6       -0.000004445944    -0.000013549995    -0.000012800127
       7        0.000009554417    -0.000002691835     0.000009506713
       8        0.000002507978    -0.000008781386    -0.000001375772
       9        0.000004307027    -0.000001889677     0.000009040333
      10       -0.000002694797    -0.000001910655    -0.000001676927
      11        0.000001305575     0.000004486907     0.000002016558
      12       -0.000003992155     0.000007212456    -0.000010659372
      13        0.000008366427     0.000002365176    -0.000001459674
      14       -0.000004498793     0.000000906417     0.000001221248
      15        0.000001947365    -0.000006509554     0.000003583588
      16       -0.000005884890     0.000001650526    -0.000004917667
      17        0.000000459388     0.000002453455    -0.000000059502
      18        0.000000797102    -0.000002199906     0.000001731341
      19        0.000002155685    -0.000001194162    -0.000002091892
      20       -0.000000986786     0.000001106907     0.000001757946

  **** Optimization is complete! (in 8 steps) ****
    Final optimized geometry and variables:
    Molecular point group: c1

    Geometry (in Angstrom), charge = 0, multiplicity = 1:

    H            3.679855636593    -1.021555292130    -0.238315397373
    O            2.844163910294    -1.132793358221     0.203386661685
    C            2.076139528710    -0.072993385612    -0.065170439202
    C            0.625964559577    -0.348052117187     0.238397083998
    O            2.529089849373     0.957540915025    -0.441443153259
    C           -0.264874514149     0.882007024084     0.079865444001
    H            0.316963940741    -1.160887780422    -0.411367358730
    H            0.577381460564    -0.743010569347     1.249748145608
    C           -1.724939142721     0.640658157207     0.477207082402
    H           -0.215243991781     1.230574251406    -0.947120847254
    H            0.141020527339     1.683180889138     0.688245982924
    C           -2.487136118623    -0.334610277154    -0.424409256476
    H           -2.240332160860     1.598244270128     0.465035074004
    H           -1.768111195718     0.288381908808     1.506830874650
    C           -3.962140021096    -0.456869663900    -0.042461496135
    H           -2.408185156850    -0.003179340933    -1.457852673481
    H           -2.030017977012    -1.319870975541    -0.382900668542
    H           -4.480330218254    -1.154203438489    -0.693252655972
    H           -4.466698917107     0.502225784020    -0.115834984973
    H           -4.074432398189    -0.811296977220     0.978316733209

  Mulliken Charges: (a.u.)
   Center  Symbol    Alpha    Beta     Spin     Total
       1     H     0.26761  0.26761  0.00000  0.46478
       2     O     4.35323  4.35323  0.00000 -0.70646
       3     C     2.62364  2.62364  0.00000  0.75271
       4     C     3.21278  3.21278  0.00000 -0.42556
       5     O     4.27558  4.27558  0.00000 -0.55117
       6     C     3.15440  3.15440  0.00000 -0.30880
       7     H     0.39826  0.39826  0.00000  0.20347
       8     H     0.39833  0.39833  0.00000  0.20333
       9     C     3.15547  3.15547  0.00000 -0.31094
      10     H     0.41192  0.41192  0.00000  0.17616
      11     H     0.40855  0.40855  0.00000  0.18291
      12     C     3.15483  3.15483  0.00000 -0.30966
      13     H     0.41789  0.41789  0.00000  0.16422
      14     H     0.42352  0.42352  0.00000  0.15296
      15     C     3.23921  3.23921  0.00000 -0.47843
      16     H     0.42156  0.42156  0.00000  0.15687
      17     H     0.42294  0.42294  0.00000  0.15411
      18     H     0.41841  0.41841  0.00000  0.16317
      19     H     0.42061  0.42061  0.00000  0.15878
      20     H     0.42124  0.42124  0.00000  0.15753

   Total alpha = 32.00000, Total beta = 32.00000, Total charge =  0.00000
