  ==> Input File <==

--------------------------------------------------------------------------
set {
	reference rhf
	basis 6-31G*
}

set_num_threads( 1 )
memory 2 gb

molecule MOL {
0 1

O	 -1.690416	 -0.748373	 -0.401552
C	 -1.083277	 0.139568	 0.115197
C	 0.323299	 -0.082943	 0.642902
C	 -1.685909	 1.515353	 0.293742
C	 1.355627	 -0.005344	 -0.493127
H	 0.396251	 -1.044647	 1.143147
H	 0.528637	 0.693580	 1.371677
C	 2.786168	 -0.195604	 0.007473
H	 1.132807	 -0.760304	 -1.243899
H	 1.259610	 0.958506	 -0.981915
H	 3.495561	 -0.130713	 -0.811210
H	 2.912696	 -1.165395	 0.480041
H	 3.049284	 0.565503	 0.735850
H	 -1.594763	 1.845036	 1.324601
H	 -2.726911	 1.503837	 0.002335
H	 -1.147362	 2.232113	 -0.320608

	symmetry c1
}
set optking {
	frozen_dihedral = ("
		9 5 3 2
	")
}

ee = energy('scf')
oeprop('DIPOLE', 'QUADRUPOLE', 'MULLIKEN_CHARGES')
f=open( 'psi4out.xyz', 'w' )
f.write( "16  " )
f.write( str(ee) + "\n" )
f.write( MOL.save_string_xyz() )
f.close()
--------------------------------------------------------------------------

    Molecular point group: c1

    Geometry (in Angstrom), charge = 0, multiplicity = 1:

       Center              X                  Y                   Z               Mass
    ------------   -----------------  -----------------  -----------------  -----------------
           O         -1.698267629558    -0.855450182315    -0.425772972348    15.994914619560
           C         -1.091128629558     0.032490817685     0.090976027652    12.000000000000
           C          0.315447370442    -0.190020182315     0.618681027652    12.000000000000
           C         -1.693760629558     1.408275817685     0.269521027652    12.000000000000
           C          1.347775370442    -0.112421182315    -0.517347972348    12.000000000000
           H          0.388399370442    -1.151724182315     1.118926027652     1.007825032070
           H          0.520785370442     0.586502817685     1.347456027652     1.007825032070
           C          2.778316370442    -0.302681182315    -0.016747972348    12.000000000000
           H          1.124955370442    -0.867381182315    -1.268119972348     1.007825032070
           H          1.251758370442     0.851428817685    -1.006135972348     1.007825032070
           H          3.487709370442    -0.237790182315    -0.835430972348     1.007825032070
           H          2.904844370442    -1.272472182315     0.455820027652     1.007825032070
           H          3.041432370442     0.458425817685     0.711629027652     1.007825032070
           H         -1.602614629558     1.737958817685     1.300380027652     1.007825032070
           H         -2.734762629558     1.396759817685    -0.021885972348     1.007825032070
           H         -1.155213629558     2.125035817685    -0.344828972348     1.007825032070

  Charge       = 0
  Multiplicity = 1
  Basis Set: 6-31G*
  Basis Set:

    Orbital Energies (a.u.)
    -----------------------

    Doubly Occupied:

       1A    -20.547459     2A    -11.324585     3A    -11.232868
       4A    -11.229874     5A    -11.229176     6A    -11.219187
       7A     -1.393146     8A     -1.082508     9A     -1.013895
      10A     -0.949216    11A     -0.828726    12A     -0.735352
      13A     -0.658222    14A     -0.649257    15A     -0.612392
      16A     -0.606640    17A     -0.575186    18A     -0.559156
      19A     -0.539462    20A     -0.517444    21A     -0.503016
      22A     -0.484271    23A     -0.470499    24A     -0.397641

  @DF-RHF Final Energy:  -270.02921234231979

   => Energetics <=

    Nuclear Repulsion Energy =            236.9495607246296345
    One-Electron Energy =                -835.2393164683503528
    Two-Electron Energy =                 328.2605434014008665
    DFT Exchange-Correlation Energy =       0.0000000000000000
    Empirical Dispersion Energy =           0.0000000000000000
    PCM Polarization Energy =               0.0000000000000000
    EFP Energy =                            0.0000000000000000
    Total Energy =                       -270.0292123423197950

  Mulliken Charges: (a.u.)
   Center  Symbol    Alpha    Beta     Spin     Total
       1     O     4.26149  4.26149  0.00000 -0.52298
       2     C     2.73899  2.73899  0.00000  0.52202
       3     C     3.19702  3.19702  0.00000 -0.39405
       4     C     3.28990  3.28990  0.00000 -0.57980
       5     C     3.16085  3.16085  0.00000 -0.32170
       6     H     0.40037  0.40037  0.00000  0.19926
       7     H     0.41889  0.41889  0.00000  0.16221
       8     C     3.23979  3.23979  0.00000 -0.47958
       9     H     0.40596  0.40596  0.00000  0.18808
      10     H     0.42015  0.42015  0.00000  0.15970
      11     H     0.41551  0.41551  0.00000  0.16898
      12     H     0.41778  0.41778  0.00000  0.16445
      13     H     0.42091  0.42091  0.00000  0.15818
      14     H     0.40907  0.40907  0.00000  0.18185
      15     H     0.39613  0.39613  0.00000  0.20773
      16     H     0.40718  0.40718  0.00000  0.18564

   Total alpha = 24.00000, Total beta = 24.00000, Total charge = -0.00000
