                              Psi4 1.0.54 Driver

  ==> Input File <==

--------------------------------------------------------------------------
set {
	reference rhf
	basis cc-pvtz
}

set_num_threads( 4 )
memory 2 gb

molecule MOL {
0 1

H	 -3.294417	 0.569753	 0.000000
C	 -2.246077	 0.343705	 0.000000
C	 -1.809314	 -0.973516	 0.000000
C	 -1.312429	 1.353743	 0.000000
H	 -2.523391	 -1.775156	 0.000000
C	 -0.467109	 -1.267638	 -0.000000
H	 -1.631139	 2.378981	 0.000000
C	 0.047114	 1.074364	 -0.000000
H	 -0.119224	 -2.281860	 -0.000000
C	 0.471920	 -0.241546	 -0.000000
H	 0.748310	 1.882934	 -0.000000
O	 1.760580	 -0.625216	 -0.000000
C	 2.773713	 0.334847	 0.000000
H	 2.728443	 0.960896	 -0.884150
H	 3.706535	 -0.206642	 0.000000
H	 2.728443	 0.960896	 0.884150

	symmetry c1
}
ee,wfn = energy('scf', return_wfn=True)
oeprop( wfn, 'DIPOLE', 'QUADRUPOLE', 'MULLIKEN_CHARGES')
oeprop( wfn, 'GRID_ESP')
f=open( 'psi4out.xyz', 'w' )
f.write( "16  " )
f.write( str(ee) + "\n" )
f.write( MOL.save_string_xyz() )
f.close()
--------------------------------------------------------------------------

    Molecular point group: c1

    Geometry (in Angstrom), charge = 0, multiplicity = 1:

       Center              X                  Y                   Z               Mass
    ------------   -----------------  -----------------  -----------------  -----------------
           H         -3.294565450694     0.569785239852     0.000000000000     1.007825032070
           C         -2.246225450694     0.343737239852     0.000000000000    12.000000000000
           C         -1.809462450694    -0.973483760148     0.000000000000    12.000000000000
           C         -1.312577450694     1.353775239852     0.000000000000    12.000000000000
           H         -2.523539450694    -1.775123760148     0.000000000000     1.007825032070
           C         -0.467257450694    -1.267605760148     0.000000000000    12.000000000000
           H         -1.631287450694     2.379013239852     0.000000000000     1.007825032070
           C          0.046965549306     1.074396239852     0.000000000000    12.000000000000
           H         -0.119372450694    -2.281827760148     0.000000000000     1.007825032070
           C          0.471771549306    -0.241513760148     0.000000000000    12.000000000000
           H          0.748161549306     1.882966239852     0.000000000000     1.007825032070
           O          1.760431549306    -0.625183760148     0.000000000000    15.994914619560
           C          2.773564549306     0.334879239852     0.000000000000    12.000000000000
           H          2.728294549306     0.960928239852    -0.884150000000     1.007825032070
           H          3.706386549306    -0.206609760148     0.000000000000     1.007825032070
           H          2.728294549306     0.960928239852     0.884150000000     1.007825032070

  Charge       = 0
  Multiplicity = 1
  Basis Set: CC-PVTZ
  Basis Set:

    Orbital Energies (a.u.)
    -----------------------

    Doubly Occupied:

       1A    -20.580667     2A    -11.293796     3A    -11.278548
       4A    -11.231199     5A    -11.229985     6A    -11.221821
       7A    -11.217982     8A    -11.216866     9A     -1.420237
      10A     -1.150930    11A     -1.025817    12A     -1.016627
      13A     -0.944437    14A     -0.834527    15A     -0.808283
      16A     -0.726437    17A     -0.667827    18A     -0.666372
      19A     -0.661273    20A     -0.619479    21A     -0.590114
      22A     -0.579339    23A     -0.528308    24A     -0.523822
      25A     -0.512486    26A     -0.478703    27A     -0.467945
      28A     -0.339777    29A     -0.309931

  @DF-RHF Final Energy:  -344.70375764814662

   => Energetics <=

    Nuclear Repulsion Energy =            348.9247867968756509
    One-Electron Energy =               -1158.9694539016463750
    Two-Electron Energy =                 465.3409094566239332
    DFT Exchange-Correlation Energy =       0.0000000000000000
    Empirical Dispersion Energy =           0.0000000000000000
    PCM Polarization Energy =               0.0000000000000000
    EFP Energy =                            0.0000000000000000
    Total Energy =                       -344.7037576481467909

  Mulliken Charges: (a.u.)
   Center  Symbol    Alpha    Beta     Spin     Total
       1     H     0.42441  0.42441  0.00000  0.15118
       2     C     3.10097  3.10097  0.00000 -0.20195
       3     C     3.05797  3.05797  0.00000 -0.11594
       4     C     3.06159  3.06159  0.00000 -0.12317
       5     H     0.42300  0.42300  0.00000  0.15400
       6     C     3.11173  3.11173  0.00000 -0.22347
       7     H     0.42366  0.42366  0.00000  0.15268
       8     C     3.14414  3.14414  0.00000 -0.28829
       9     H     0.42100  0.42100  0.00000  0.15799
      10     C     2.84995  2.84995  0.00000  0.30011
      11     H     0.42253  0.42253  0.00000  0.15494
      12     O     4.15062  4.15062  0.00000 -0.30124
      13     C     3.04489  3.04489  0.00000 -0.08978
      14     H     0.46241  0.46241  0.00000  0.07518
      15     H     0.43872  0.43872  0.00000  0.12256
      16     H     0.46241  0.46241  0.00000  0.07518

   Total alpha = 29.00000, Total beta = 29.00000, Total charge =  0.00000

*** Psi4 exiting successfully. Buy a developer a beer!
