  ==> Input File <==

--------------------------------------------------------------------------
set {
	reference rhf
	basis 6-31G*
}

set_num_threads( 1 )
memory 2 gb

molecule MOL {
0 1

H	 -3.261111	 -0.295142	 1.469456
C	 -3.306842	 -0.277400	 0.373456
C	 -2.660244	 0.921717	 -0.272021
O	 -3.838538	 -1.161155	 -0.216482
C	 -1.220012	 1.144545	 0.209990
H	 -2.705793	 0.797307	 -1.347733
H	 -3.263782	 1.790044	 -0.010477
C	 -0.252658	 0.041456	 -0.226725
H	 -0.873521	 2.100229	 -0.171974
H	 -1.211708	 1.231594	 1.295398
C	 1.180775	 0.282413	 0.250794
H	 -0.266029	 -0.034465	 -1.312038
H	 -0.597733	 -0.921000	 0.146291
C	 2.148627	 -0.814315	 -0.201312
H	 1.516199	 1.249228	 -0.115937
H	 1.192670	 0.346017	 1.338083
C	 3.580890	 -0.659131	 0.322722
H	 2.166869	 -0.852443	 -1.289387
H	 1.762857	 -1.776509	 0.128956
C	 4.134686	 -1.894572	 1.034491
H	 3.604283	 0.180017	 1.013541
H	 4.238926	 -0.391246	 -0.501382
H	 3.487550	 -2.195471	 1.854213
H	 4.233031	 -2.740793	 0.362767
H	 5.118057	 -1.692129	 1.448004

	symmetry c1
}
set optking {
	frozen_dihedral = ("
		6 3 5 8,
		6 3 2 4,
		3 5 8 12,
		12 8 11 14,
		8 11 14 18
	")
}

ee = energy('scf')
oeprop('DIPOLE', 'QUADRUPOLE', 'MULLIKEN_CHARGES')
f=open( 'psi4out.xyz', 'w' )
f.write( "25  " )
f.write( str(ee) + "\n" )
f.write( MOL.save_string_xyz() )
f.close()
--------------------------------------------------------------------------

    Molecular point group: c1

    Geometry (in Angstrom), charge = 0, multiplicity = 1:

       Center              X                  Y                   Z               Mass
    ------------   -----------------  -----------------  -----------------  -----------------
           H         -3.238669702634    -0.007397500143     1.322909000738     1.007825032070
           C         -3.284400702634     0.010344499857     0.226909000738    12.000000000000
           C         -2.637802702634     1.209461499857    -0.418567999262    12.000000000000
           O         -3.816096702634    -0.873410500143    -0.363028999262    15.994914619560
           C         -1.197570702634     1.432289499857     0.063443000738    12.000000000000
           H         -2.683351702634     1.085051499857    -1.494279999262     1.007825032070
           H         -3.241340702634     2.077788499857    -0.157023999262     1.007825032070
           C         -0.230216702634     0.329200499857    -0.373271999262    12.000000000000
           H         -0.851079702634     2.387973499857    -0.318520999262     1.007825032070
           H         -1.189266702634     1.519338499857     1.148851000738     1.007825032070
           C          1.203216297366     0.570157499857     0.104247000738    12.000000000000
           H         -0.243587702634     0.253279499857    -1.458584999262     1.007825032070
           H         -0.575291702634    -0.633255500143    -0.000255999262     1.007825032070
           C          2.171068297366    -0.526570500143    -0.347858999262    12.000000000000
           H          1.538640297366     1.536972499857    -0.262483999262     1.007825032070
           H          1.215111297366     0.633761499857     1.191536000738     1.007825032070
           C          3.603331297366    -0.371386500143     0.176175000738    12.000000000000
           H          2.189310297366    -0.564698500143    -1.435933999262     1.007825032070
           H          1.785298297366    -1.488764500143    -0.017590999262     1.007825032070
           C          4.157127297366    -1.606827500143     0.887944000738    12.000000000000
           H          3.626724297366     0.467761499857     0.866994000738     1.007825032070
           H          4.261367297366    -0.103501500143    -0.647928999262     1.007825032070
           H          3.509991297366    -1.907726500143     1.707666000738     1.007825032070
           H          4.255472297366    -2.453048500143     0.216220000738     1.007825032070
           H          5.140498297366    -1.404384500143     1.301457000738     1.007825032070

  Charge       = 0
  Multiplicity = 1
  Basis Set: 6-31G*
  Basis Set:

    Orbital Energies (a.u.)
    -----------------------

    Doubly Occupied:

       1A    -20.562009     2A    -11.326184     3A    -11.235425
       4A    -11.234711     5A    -11.223776     6A    -11.220994
       7A    -11.216392     8A    -11.215436     9A    -11.210853
      10A     -1.401999    11A     -1.103809    12A     -1.069074
      13A     -1.014848    14A     -0.943349    15A     -0.869969
      16A     -0.816077    17A     -0.792338    18A     -0.786780
      19A     -0.664119    20A     -0.663441    21A     -0.635288
      22A     -0.619575    23A     -0.600920    24A     -0.597928
      25A     -0.567710    26A     -0.552546    27A     -0.538842
      28A     -0.521786    29A     -0.509730    30A     -0.497435
      31A     -0.487525    32A     -0.479425    33A     -0.463938
      34A     -0.458482    35A     -0.440829    36A     -0.409567

  @DF-RHF Final Energy:  -387.11776316950352

   => Energetics <=

    Nuclear Repulsion Energy =            436.4216207056468875
    One-Electron Energy =               -1389.1723581878643472
    Two-Electron Energy =                 565.6329743127141683
    DFT Exchange-Correlation Energy =       0.0000000000000000
    Empirical Dispersion Energy =           0.0000000000000000
    PCM Polarization Energy =               0.0000000000000000
    EFP Energy =                            0.0000000000000000
    Total Energy =                       -387.1177631695032915

  Mulliken Charges: (a.u.)
   Center  Symbol    Alpha    Beta     Spin     Total
       1     H     0.43261  0.43261  0.00000  0.13477
       2     C     2.83083  2.83083  0.00000  0.33834
       3     C     3.20807  3.20807  0.00000 -0.41614
       4     O     4.23774  4.23774  0.00000 -0.47548
       5     C     3.16663  3.16663  0.00000 -0.33326
       6     H     0.39967  0.39967  0.00000  0.20065
       7     H     0.40668  0.40668  0.00000  0.18664
       8     C     3.15583  3.15583  0.00000 -0.31166
       9     H     0.41282  0.41282  0.00000  0.17436
      10     H     0.41964  0.41964  0.00000  0.16071
      11     C     3.15465  3.15465  0.00000 -0.30929
      12     H     0.41790  0.41790  0.00000  0.16420
      13     H     0.41814  0.41814  0.00000  0.16371
      14     C     3.15491  3.15491  0.00000 -0.30983
      15     H     0.42202  0.42202  0.00000  0.15597
      16     H     0.42315  0.42315  0.00000  0.15371
      17     C     3.15491  3.15491  0.00000 -0.30982
      18     H     0.42018  0.42018  0.00000  0.15964
      19     H     0.41997  0.41997  0.00000  0.16006
      20     C     3.24025  3.24025  0.00000 -0.48051
      21     H     0.42105  0.42105  0.00000  0.15790
      22     H     0.42008  0.42008  0.00000  0.15985
      23     H     0.42204  0.42204  0.00000  0.15593
      24     H     0.42019  0.42019  0.00000  0.15963
      25     H     0.42004  0.42004  0.00000  0.15993

   Total alpha = 36.00000, Total beta = 36.00000, Total charge = -0.00000
