                              Psi4 1.0.54 Driver

  ==> Input File <==

--------------------------------------------------------------------------
set {
	reference rhf
	basis cc-pvtz
}

set_num_threads( 4 )
memory 2 gb

molecule MOL {
0 1

H	 -0.838118	 -1.259011	 -0.419814
O	 -1.432053	 -0.565244	 -0.200812
C	 -0.727158	 0.534527	 0.310686
C	 0.680222	 0.664433	 -0.252229
H	 -1.306802	 1.408001	 0.044211
H	 -0.690821	 0.490158	 1.397609
C	 1.605391	 -0.489360	 0.123098
H	 0.615089	 0.745647	 -1.332226
H	 1.101414	 1.597893	 0.110950
H	 1.247627	 -1.432485	 -0.275204
H	 2.601435	 -0.332816	 -0.273062
H	 1.691776	 -0.589902	 1.200774

	symmetry c1
}
set optking {
	frozen_dihedral = ("
		1 2 3 4
	")
}

ee,wfn = optimize('scf', return_wfn=True)
oeprop( wfn, 'DIPOLE', 'QUADRUPOLE', 'MULLIKEN_CHARGES')
f=open( 'psi4out.xyz', 'w' )
f.write( "12  " )
f.write( str(ee) + "\n" )
f.write( MOL.save_string_xyz() )
f.close()
--------------------------------------------------------------------------

    Molecular point group: c1
  Charge       = 0
  Multiplicity = 1
  Basis Set: CC-PVTZ
  Basis Set:
  @DF-RHF Final Energy:  -193.18878128655069
    Total Energy =                       -193.1887812865507215
    Molecular point group: c1
  Basis Set: CC-PVTZ
  Basis Set:
  Basis Set: CC-PVTZ
  Basis Set:
  @DF-RHF Final Energy:  -193.18888606823612
    Total Energy =                       -193.1888860682360587
  Basis Set: CC-PVTZ
  Basis Set:
  Basis Set: CC-PVTZ
  Basis Set:
  @DF-RHF Final Energy:  -193.18894037901339
    Total Energy =                       -193.1889403790133883
  Basis Set: CC-PVTZ
  Basis Set:
  Charge       = 0
  Multiplicity = 1
  Basis Set: CC-PVTZ
  Basis Set:

    Orbital Energies (a.u.)
    -----------------------

    Doubly Occupied:

       1A    -20.543803     2A    -11.265360     3A    -11.223218
       4A    -11.220294     5A     -1.362568     6A     -1.055576
       7A     -0.930898     8A     -0.817755     9A     -0.683720
      10A     -0.642627    11A     -0.618836    12A     -0.584387
      13A     -0.551712    14A     -0.510510    15A     -0.494853
      16A     -0.468484    17A     -0.433956

  @DF-RHF Final Energy:  -193.18894105932964

   => Energetics <=

    Nuclear Repulsion Energy =            133.2116114787851870
    One-Electron Energy =                -525.9839957496005809
    Two-Electron Energy =                 199.5834432114859283
    DFT Exchange-Correlation Energy =       0.0000000000000000
    Empirical Dispersion Energy =           0.0000000000000000
    PCM Polarization Energy =               0.0000000000000000
    EFP Energy =                            0.0000000000000000
    Total Energy =                       -193.1889410593294656
    Molecular point group: c1
  Basis Set: CC-PVTZ
  Basis Set:

  -Total Gradient:
     Atom            X                  Y                   Z
    ------   -----------------  -----------------  -----------------
       1        0.000163804688     0.000794448145    -0.001809882901
       2       -0.000089022875    -0.001154267811     0.002564425508
       3       -0.000497880900     0.001081484841    -0.001547349513
       4        0.000422389039    -0.000726890926     0.000815990521
       5       -0.000005879075    -0.000075462655    -0.000052644948
       6       -0.000007734336     0.000056202203     0.000041686869
       7       -0.000026431995     0.000049509305     0.000053031499
       8        0.000036219259     0.000006209264    -0.000047126744
       9       -0.000016629119    -0.000036825977    -0.000002306912
      10        0.000032946742     0.000008246279    -0.000001534512
      11        0.000002114538     0.000010676655    -0.000011858765
      12       -0.000013895966    -0.000013329322    -0.000002430103

  **** Optimization is complete! (in 4 steps) ****
    Final optimized geometry and variables:
    Molecular point group: c1

    Geometry (in Angstrom), charge = 0, multiplicity = 1:

    H           -0.869842981605    -1.266868128565    -0.429283816302
    O           -1.450763676915    -0.567535542250    -0.196761900361
    C           -0.731757673106     0.521864396037     0.318766428038
    C            0.674001061026     0.659221696314    -0.245977897337
    H           -1.307457672529     1.407467774313     0.083789106330
    H           -0.679693801454     0.445995159501     1.403209163635
    C            1.618304083430    -0.476516253906     0.141948694355
    H            0.614391052862     0.738589088702    -1.327481335486
    H            1.084241013824     1.597877509884     0.113259970682
    H            1.290625256817    -1.437038301608    -0.243286058360
    H            2.611402555383    -0.302484111292    -0.254070634012
    H            1.699835528455    -0.565530447094     1.219778398076

  Mulliken Charges: (a.u.)
   Center  Symbol    Alpha    Beta     Spin     Total
       1     H     0.39191  0.39191  0.00000  0.21618
       2     O     4.20700  4.20700  0.00000 -0.41401
       3     C     2.95697  2.95697  0.00000  0.08606
       4     C     3.09951  3.09951  0.00000 -0.19902
       5     H     0.45734  0.45734  0.00000  0.08532
       6     H     0.47662  0.47662  0.00000  0.04677
       7     C     3.14708  3.14708  0.00000 -0.29415
       8     H     0.44924  0.44924  0.00000  0.10152
       9     H     0.45385  0.45385  0.00000  0.09230
      10     H     0.46372  0.46372  0.00000  0.07255
      11     H     0.44523  0.44523  0.00000  0.10954
      12     H     0.45153  0.45153  0.00000  0.09694

   Total alpha = 17.00000, Total beta = 17.00000, Total charge = -0.00000

*** Psi4 exiting successfully. Buy a developer a beer!
