                              Psi4 1.0.54 Driver

  ==> Input File <==

--------------------------------------------------------------------------
set {
	reference rhf
	basis cc-pvtz
}

set_num_threads( 4 )
memory 2 gb

molecule MOL {
0 1

H	 1.625026	 -1.753519	 0.415219
O	 0.950233	 -1.182008	 0.098857
C	 1.135873	 0.113391	 0.608264
C	 0.027642	 1.012027	 0.090274
H	 2.094953	 0.512111	 0.287395
H	 1.138593	 0.096840	 1.694625
C	 -1.138737	 0.285728	 -0.581921
H	 0.464661	 1.708096	 -0.618252
H	 -0.340737	 1.603071	 0.925246
C	 -1.933983	 -0.631436	 0.343653
H	 -0.763151	 -0.285569	 -1.422081
H	 -1.808359	 1.035291	 -0.992333
H	 -2.789188	 -1.049673	 -0.174718
H	 -1.335629	 -1.461368	 0.700418
H	 -2.305435	 -0.092167	 1.209725

	symmetry c1
}
set optking {
	frozen_dihedral = ("
		2 3 4 8
	")
}

ee,wfn = optimize('scf', return_wfn=True)
oeprop( wfn, 'DIPOLE', 'QUADRUPOLE', 'MULLIKEN_CHARGES')
f=open( 'psi4out.xyz', 'w' )
f.write( "15  " )
f.write( str(ee) + "\n" )
f.write( MOL.save_string_xyz() )
f.close()
--------------------------------------------------------------------------

    Molecular point group: c1
  Charge       = 0
  Multiplicity = 1
  Basis Set: CC-PVTZ
  Basis Set:
  @DF-RHF Final Energy:  -232.22815438074639
    Total Energy =                       -232.2281543807464459
    Molecular point group: c1
  Basis Set: CC-PVTZ
  Basis Set:
  Basis Set: CC-PVTZ
  Basis Set:
  @DF-RHF Final Energy:  -232.22987037097951
    Total Energy =                       -232.2298703709795973
  Basis Set: CC-PVTZ
  Basis Set:
  Basis Set: CC-PVTZ
  Basis Set:
  @DF-RHF Final Energy:  -232.23027537651134
    Total Energy =                       -232.2302753765114858
  Basis Set: CC-PVTZ
  Basis Set:
  Basis Set: CC-PVTZ
  Basis Set:
  @DF-RHF Final Energy:  -232.23035377668478
    Total Energy =                       -232.2303537766847512
  Basis Set: CC-PVTZ
  Basis Set:
  Basis Set: CC-PVTZ
  Basis Set:
  @DF-RHF Final Energy:  -232.23036087914389
    Total Energy =                       -232.2303608791439160
  Basis Set: CC-PVTZ
  Basis Set:
  Basis Set: CC-PVTZ
  Basis Set:
  @DF-RHF Final Energy:  -232.23036201268809
    Total Energy =                       -232.2303620126881469
  Basis Set: CC-PVTZ
  Basis Set:
  Charge       = 0
  Multiplicity = 1
  Basis Set: CC-PVTZ
  Basis Set:

    Orbital Energies (a.u.)
    -----------------------

    Doubly Occupied:

       1A    -20.547323     2A    -11.267382     3A    -11.211614
       4A    -11.205494     5A    -11.195341     6A     -1.365152
       7A     -1.060028     8A     -0.968423     9A     -0.865740
      10A     -0.775088    11A     -0.705297    12A     -0.650259
      13A     -0.608732    14A     -0.573674    15A     -0.559389
      16A     -0.528779    17A     -0.507611    18A     -0.477629
      19A     -0.463822    20A     -0.450602    21A     -0.426929

  @DF-RHF Final Energy:  -232.23036206322263

   => Energetics <=

    Nuclear Repulsion Energy =            193.2374036315231933
    One-Electron Energy =                -698.1069174900922008
    Two-Electron Energy =                 272.6391517953466064
    DFT Exchange-Correlation Energy =       0.0000000000000000
    Empirical Dispersion Energy =           0.0000000000000000
    PCM Polarization Energy =               0.0000000000000000
    EFP Energy =                            0.0000000000000000
    Total Energy =                       -232.2303620632224010
    Molecular point group: c1
  Basis Set: CC-PVTZ
  Basis Set:

  -Total Gradient:
     Atom            X                  Y                   Z
    ------   -----------------  -----------------  -----------------
       1        0.000007351878     0.000002036730     0.000000340064
       2       -0.002341860133    -0.001226980649     0.003153024933
       3        0.003248366590     0.002369965197    -0.003240662639
       4       -0.001608246634    -0.004372803738    -0.004010934969
       5        0.000007619275    -0.000005665013    -0.000002224608
       6       -0.000000249587     0.000001758742     0.000003725691
       7        0.000002095725    -0.000000871461    -0.000000841938
       8        0.000687751894     0.003235504711     0.004098564262
       9        0.000001474406     0.000003054057     0.000003931158
      10       -0.000004941174     0.000011006949     0.000000235146
      11        0.000001869439    -0.000005977084    -0.000006824657
      12       -0.000003992336    -0.000000038615     0.000000098944
      13       -0.000004661076    -0.000005244512    -0.000003523200
      14        0.000006431823    -0.000011891677    -0.000000032081
      15        0.000000989911     0.000006146361     0.000005123895

  **** Optimization is complete! (in 7 steps) ****
    Final optimized geometry and variables:
    Molecular point group: c1

    Geometry (in Angstrom), charge = 0, multiplicity = 1:

    H            1.967895538528    -1.578362070561     0.209264315285
    O            1.232819495219    -1.067784050443    -0.075217577540
    C            1.308558915637     0.220691555400     0.480700351071
    C            0.155714299908     1.108508107895    -0.024898716245
    H            2.258539370412     0.682614078456     0.230509835231
    H            1.262966770481     0.145372436090     1.563481987933
    C           -1.016688984501     0.393394529755    -0.696622579311
    H            0.558859784888     1.865943303945    -0.688188767209
    H           -0.226047437037     1.666800211742     0.825733495486
    C           -1.862137988343    -0.445023837048     0.258254906171
    H           -0.652133423540    -0.229500199483    -1.502728260745
    H           -1.647363076551     1.152901329373    -1.149019975516
    H           -2.696341823277    -0.899459469250    -0.264713055592
    H           -1.279013225798    -1.239125523808     0.705128379252
    H           -2.270253250253     0.167512295550     1.056706390417

  Mulliken Charges: (a.u.)
   Center  Symbol    Alpha    Beta     Spin     Total
       1     H     0.39764  0.39764  0.00000  0.20473
       2     O     4.19328  4.19328  0.00000 -0.38656
       3     C     2.97524  2.97524  0.00000  0.04953
       4     C     3.10555  3.10555  0.00000 -0.21111
       5     H     0.46409  0.46409  0.00000  0.07182
       6     H     0.46946  0.46946  0.00000  0.06107
       7     C     3.08263  3.08263  0.00000 -0.16527
       8     H     0.44799  0.44799  0.00000  0.10403
       9     H     0.45593  0.45593  0.00000  0.08814
      10     C     3.15006  3.15006  0.00000 -0.30012
      11     H     0.44862  0.44862  0.00000  0.10276
      12     H     0.45051  0.45051  0.00000  0.09898
      13     H     0.45026  0.45026  0.00000  0.09948
      14     H     0.44912  0.44912  0.00000  0.10177
      15     H     0.45962  0.45962  0.00000  0.08076

   Total alpha = 21.00000, Total beta = 21.00000, Total charge = -0.00000

*** Psi4 exiting successfully. Buy a developer a beer!
