  ==> Input File <==

--------------------------------------------------------------------------
set {
	reference rhf
	basis cc-pvtz
}

set_num_threads( 4 )
memory 2 gb

molecule MOL {
0 1

H	 2.646708	 0.758099	 0.000000
O	 2.258158	 -0.097743	 0.000000
C	 0.911162	 -0.015915	 0.000000
C	 0.336374	 1.084661	 -0.614126
C	 0.110876	 -0.979964	 0.583586
H	 0.972668	 1.822491	 -1.061604
C	 -1.035716	 1.210539	 -0.638633
H	 0.556807	 -1.834137	 1.060225
C	 -1.265341	 -0.840502	 0.551395
H	 -1.475616	 2.065549	 -1.115965
C	 -1.848159	 0.251162	 -0.057313
H	 -1.879506	 -1.593841	 1.007037
H	 -2.915104	 0.356004	 -0.080380

	symmetry c1
}
set optking {
	frozen_dihedral = ("
		4 3 2 1
	")
}

ee = optimize('scf')
oeprop('DIPOLE', 'QUADRUPOLE', 'MULLIKEN_CHARGES')
f=open( 'psi4out.xyz', 'w' )
f.write( "13  " )
f.write( str(ee) + "\n" )
f.write( MOL.save_string_xyz() )
f.close()
--------------------------------------------------------------------------

    Molecular point group: c1
  Charge       = 0
  Multiplicity = 1
  Basis Set: CC-PVTZ
  Basis Set:
  @DF-RHF Final Energy:  -305.66763875354508
    Total Energy =                       -305.6676387535451340
    Molecular point group: c1
  Basis Set: CC-PVTZ
  Basis Set:
  Basis Set: CC-PVTZ
  Basis Set:
  @DF-RHF Final Energy:  -305.66930563314480
    Total Energy =                       -305.6693056331448588
  Basis Set: CC-PVTZ
  Basis Set:
  Basis Set: CC-PVTZ
  Basis Set:
  @DF-RHF Final Energy:  -305.66943436090014
    Total Energy =                       -305.6694343609000839
  Basis Set: CC-PVTZ
  Basis Set:
  Basis Set: CC-PVTZ
  Basis Set:
  @DF-RHF Final Energy:  -305.66945054008352
    Total Energy =                       -305.6694505400832895
  Basis Set: CC-PVTZ
  Basis Set:
  Basis Set: CC-PVTZ
  Basis Set:
  @DF-RHF Final Energy:  -305.66945437566091
    Total Energy =                       -305.6694543756611893
  Basis Set: CC-PVTZ
  Basis Set:
  Charge       = 0
  Multiplicity = 1
  Basis Set: CC-PVTZ
  Basis Set:

    Orbital Energies (a.u.)
    -----------------------

    Doubly Occupied:

       1A    -20.581678     2A    -11.295566     3A    -11.234918
       4A    -11.233284     5A    -11.226216     6A    -11.221292
       7A    -11.220853     8A     -1.411409     9A     -1.152792
      10A     -1.022638    11A     -1.008394    12A     -0.848639
      13A     -0.826979    14A     -0.740902    15A     -0.687459
      16A     -0.653907    17A     -0.618375    18A     -0.598836
      19A     -0.591759    20A     -0.554344    21A     -0.517422
      22A     -0.494760    23A     -0.482495    24A     -0.342854
      25A     -0.317755

  @DF-RHF Final Energy:  -305.66945474994458

   => Energetics <=

    Nuclear Repulsion Energy =            273.7124850857636034
    One-Electron Energy =                -956.9928331393324470
    Two-Electron Energy =                 377.6108933036240387
    DFT Exchange-Correlation Energy =       0.0000000000000000
    Empirical Dispersion Energy =           0.0000000000000000
    PCM Polarization Energy =               0.0000000000000000
    EFP Energy =                            0.0000000000000000
    Total Energy =                       -305.6694547499447481
    Molecular point group: c1
  Basis Set: CC-PVTZ
  Basis Set:

  -Total Gradient:
     Atom            X                  Y                   Z
    ------   -----------------  -----------------  -----------------
       1       -0.000023711880     0.000046349799     0.002275685278
       2        0.000056235209    -0.000528235274    -0.003641532875
       3        0.000096807517     0.001353752405     0.002860075835
       4       -0.000061189117    -0.000851299301    -0.001473868123
       5       -0.000054929301    -0.000018185607    -0.000020579624
       6       -0.000009212238    -0.000004688176     0.000003158738
       7       -0.000001779316    -0.000000072932    -0.000033118966
       8        0.000013725262     0.000009599020    -0.000002774710
       9       -0.000009572654     0.000005700611    -0.000001288722
      10       -0.000015998480     0.000001184656     0.000007578207
      11        0.000008003834    -0.000026972838     0.000028571426
      12        0.000000171541     0.000000885089     0.000004264765
      13        0.000001449622     0.000011982550    -0.000006171232

  **** Optimization is complete! (in 6 steps) ****
    Final optimized geometry and variables:
    Molecular point group: c1

    Geometry (in Angstrom), charge = 0, multiplicity = 1:

    H            2.694874466758     0.580019494156     0.037087935452
    O            2.249050674493    -0.247541842239     0.050981819339
    C            0.906676723860    -0.073177806666     0.026663249657
    C            0.320071778213     1.013460355658    -0.595627613298
    C            0.117432172608    -1.051236446859     0.604858338041
    H            0.935577606502     1.760806371880    -1.061800368498
    C           -1.057596113770     1.128639950976    -0.618884098446
    H            0.590053690035    -1.890247214705     1.076307362333
    C           -1.256352248745    -0.930519305159     0.565087267352
    H           -1.506254259066     1.977569458281    -1.098834801221
    C           -1.853983963995     0.159938161204    -0.041882490012
    H           -1.864021269488    -1.691929998727     1.016031930812
    H           -2.922369371154     0.250214741956    -0.066056647368

  Mulliken Charges: (a.u.)
   Center  Symbol    Alpha    Beta     Spin     Total
       1     H     0.38628  0.38628  0.00000  0.22744
       2     O     4.17975  4.17975  0.00000 -0.35949
       3     C     2.85775  2.85775  0.00000  0.28451
       4     C     3.12872  3.12872  0.00000 -0.25745
       5     C     3.10999  3.10999  0.00000 -0.21997
       6     H     0.43046  0.43046  0.00000  0.13907
       7     C     3.06577  3.06577  0.00000 -0.13154
       8     H     0.41840  0.41840  0.00000  0.16320
       9     C     3.05872  3.05872  0.00000 -0.11744
      10     H     0.42232  0.42232  0.00000  0.15535
      11     C     3.09579  3.09579  0.00000 -0.19158
      12     H     0.42230  0.42230  0.00000  0.15541
      13     H     0.42375  0.42375  0.00000  0.15249

   Total alpha = 25.00000, Total beta = 25.00000, Total charge = -0.00000
