                              Psi4 1.0.54 Driver

  ==> Input File <==

--------------------------------------------------------------------------
set {
	reference rhf
	basis cc-pvtz
}

set_num_threads( 4 )
memory 2 gb

molecule MOL {
0 1

H	 2.462485	 -2.216993	 0.000000
O	 2.777472	 -1.330706	 0.000000
C	 1.763288	 -0.447523	 0.000000
C	 1.280538	 -0.027129	 1.230992
C	 1.204733	 0.038884	 -1.162662
H	 1.729233	 -0.417867	 2.122706
C	 0.243906	 0.875602	 1.292801
H	 1.557162	 -0.268022	 -2.125419
C	 0.166096	 0.943362	 -1.063052
H	 -0.122635	 1.194798	 2.248578
C	 -0.333488	 1.378415	 0.138791
N	 -0.423563	 1.456855	 -2.304594
H	 -1.138562	 2.079499	 0.171346
O	 0.026943	 1.064541	 -3.329390
O	 -1.313850	 2.232144	 -2.209653

	symmetry c1
}
set optking {
	frozen_dihedral = ("
		4 3 2 1
	")
}

ee,wfn = optimize('scf', return_wfn=True)
oeprop( wfn, 'DIPOLE', 'QUADRUPOLE', 'MULLIKEN_CHARGES')
f=open( 'psi4out.xyz', 'w' )
f.write( "15  " )
f.write( str(ee) + "\n" )
f.write( MOL.save_string_xyz() )
f.close()
--------------------------------------------------------------------------

    Molecular point group: c1
  Charge       = 0
  Multiplicity = 1
  Basis Set: CC-PVTZ
  Basis Set:
  @DF-RHF Final Energy:  -509.21363230012884
    Total Energy =                       -509.2136323001288929
    Molecular point group: c1
  Basis Set: CC-PVTZ
  Basis Set:
  Basis Set: CC-PVTZ
  Basis Set:
  @DF-RHF Final Energy:  -509.21442573393102
    Total Energy =                       -509.2144257339307387
  Basis Set: CC-PVTZ
  Basis Set:
  Basis Set: CC-PVTZ
  Basis Set:
  @DF-RHF Final Energy:  -508.95401420440072
    Total Energy =                       -508.9540142044004369
  Basis Set: CC-PVTZ
  Basis Set:
  Basis Set: CC-PVTZ
  Basis Set:
  @DF-RHF Final Energy:  -509.12933473343770
    Total Energy =                       -509.1293347334378723
  Basis Set: CC-PVTZ
  Basis Set:
  @DF-RHF Final Energy:  -509.20562476172591
    Total Energy =                       -509.2056247617263125
  @DF-RHF Final Energy:  -508.91426823174203
    Total Energy =                       -508.9142682317414028
  @DF-RHF Final Energy:  -509.15660267405696
    Total Energy =                       -509.1566026740565576
  @DF-RHF Final Energy:  -509.20669706851402
    Total Energy =                       -509.2066970685136766
  @DF-RHF Final Energy:  -509.20461976032931
    Total Energy =                       -509.2046197603289102
  Basis Set: CC-PVTZ
  Basis Set:
  @DF-RHF Final Energy:  -509.21178900987189
    Total Energy =                       -509.2117890098716089
  Basis Set: CC-PVTZ
  Basis Set:
  Basis Set: CC-PVTZ
  Basis Set:
  @DF-RHF Final Energy:  -509.21460870104613
    Total Energy =                       -509.2146087010464726
  Basis Set: CC-PVTZ
  Basis Set:
  Basis Set: CC-PVTZ
  Basis Set:
  @DF-RHF Final Energy:  -509.21462847929536
    Total Energy =                       -509.2146284792950155
  Basis Set: CC-PVTZ
  Basis Set:
  Charge       = 0
  Multiplicity = 1
  Basis Set: CC-PVTZ
  Basis Set:

    Orbital Energies (a.u.)
    -----------------------

    Doubly Occupied:

       1A    -20.594195     2A    -20.593668     3A    -20.593611
       4A    -15.849737     5A    -11.318794     6A    -11.307127
       7A    -11.264861     8A    -11.263730     9A    -11.262914
      10A    -11.261292    11A     -1.643304    12A     -1.425746
      13A     -1.423005    14A     -1.203015    15A     -1.095217
      16A     -1.048586    17A     -0.964934    18A     -0.870042
      19A     -0.836995    20A     -0.797333    21A     -0.742991
      22A     -0.740757    23A     -0.724821    24A     -0.711941
      25A     -0.685192    26A     -0.645133    27A     -0.628173
      28A     -0.570009    29A     -0.558004    30A     -0.533037
      31A     -0.515656    32A     -0.493948    33A     -0.487699
      34A     -0.459272    35A     -0.380204    36A     -0.361626

  @DF-RHF Final Energy:  -509.21465067626730

   => Energetics <=

    Nuclear Repulsion Energy =            503.9997073559478622
    One-Electron Energy =               -1694.7155814210552762
    Two-Electron Energy =                 681.5012233888403443
    DFT Exchange-Correlation Energy =       0.0000000000000000
    Empirical Dispersion Energy =           0.0000000000000000
    PCM Polarization Energy =               0.0000000000000000
    EFP Energy =                            0.0000000000000000
    Total Energy =                       -509.2146506762671834
    Molecular point group: c1
  Basis Set: CC-PVTZ
  Basis Set:

  -Total Gradient:
     Atom            X                  Y                   Z
    ------   -----------------  -----------------  -----------------
       1       -0.000025170750    -0.000106738573     0.000126967346
       2       -0.000031539852     0.000059557438    -0.000151222309
       3        0.000114465003     0.000009713011    -0.000111650099
       4       -0.000102436883     0.000150897304     0.000120649158
       5        0.000069140752    -0.000169219280    -0.000024145400
       6       -0.000003430668    -0.000016681339    -0.000019676647
       7        0.000094372469    -0.000153838081     0.000121365149
       8        0.000009802692     0.000027693234     0.000055852238
       9       -0.000047360478     0.000127642378     0.000050065779
      10       -0.000006048181     0.000000745519    -0.000011947525
      11       -0.000037892983     0.000058853669    -0.000123289472
      12       -0.000107390044     0.000212189276     0.000150740878
      13        0.000004409624    -0.000025021551    -0.000001795515
      14        0.000008790837    -0.000060785634    -0.000136298089
      15        0.000060288463    -0.000115007369    -0.000045615493

  **** Optimization is complete! (in 13 steps) ****
    Final optimized geometry and variables:
    Molecular point group: c1

    Geometry (in Angstrom), charge = 0, multiplicity = 1:

    H            0.545188578445    -3.455112052318     0.488483275695
    O            1.205978402315    -2.816572027861     0.282187272524
    C            0.765756403353    -1.554561169724     0.548524754362
    C            0.971611379822    -0.997638843779     1.797420011058
    C            0.162989692973    -0.817610195702    -0.448984375497
    H            1.456992219708    -1.582971962663     2.553810249323
    C            0.566217694842     0.296994381702     2.055828157420
    H            0.014158218360    -1.235440205043    -1.421139982713
    C           -0.231615219509     0.472004312878    -0.162775998903
    H            0.729077264778     0.723199641861     3.025993690606
    C           -0.044348111561     1.050176359822     1.072614192949
    N           -0.875310265909     1.256602727365    -1.220953871997
    H           -0.362918119219     2.054037686202     1.252099807073
    O           -1.037442986424     0.732390649396    -2.271725842032
    O           -1.195827485015     2.367706888206    -0.961388236330

  Mulliken Charges: (a.u.)
   Center  Symbol    Alpha    Beta     Spin     Total
       1     H     0.38609  0.38609  0.00000  0.22781
       2     O     4.18603  4.18603  0.00000 -0.37207
       3     C     2.86693  2.86693  0.00000  0.26614
       4     C     3.09796  3.09796  0.00000 -0.19591
       5     C     3.11102  3.11102  0.00000 -0.22204
       6     H     0.41144  0.41144  0.00000  0.17713
       7     C     3.06693  3.06693  0.00000 -0.13385
       8     H     0.39174  0.39174  0.00000  0.21653
       9     C     2.98021  2.98021  0.00000  0.03957
      10     H     0.41512  0.41512  0.00000  0.16975
      11     C     3.08541  3.08541  0.00000 -0.17081
      12     N     3.25023  3.25023  0.00000  0.49954
      13     H     0.39864  0.39864  0.00000  0.20272
      14     O     4.17588  4.17588  0.00000 -0.35176
      15     O     4.17637  4.17637  0.00000 -0.35273

   Total alpha = 36.00000, Total beta = 36.00000, Total charge =  0.00000

*** Psi4 exiting successfully. Buy a developer a beer!
