  ==> Input File <==

--------------------------------------------------------------------------
set {
	reference rhf
	basis cc-pvtz
}

set_num_threads( 4 )
memory 2 gb

molecule MOL {
0 1

O	 -2.440701	 -0.934798	 -0.415053
C	 -1.922978	 0.063265	 -0.045005
C	 -2.632749	 1.372204	 0.158357
O	 -0.637375	 0.157174	 0.243149
H	 -2.187724	 2.129143	 -0.474664
H	 -3.677681	 1.257276	 -0.079438
H	 -2.516788	 1.693160	 1.185542
C	 0.162530	 -1.009518	 0.097799
C	 1.587210	 -0.664190	 0.477086
H	 0.096803	 -1.356267	 -0.924704
H	 -0.233803	 -1.785900	 0.736810
C	 2.256770	 0.342732	 -0.454344
H	 2.154716	 -1.590834	 0.479041
H	 1.598751	 -0.289614	 1.496104
C	 3.531875	 -0.201370	 -1.089697
H	 1.556385	 0.625741	 -1.235667
H	 2.484428	 1.247225	 0.097840
H	 3.983845	 0.531061	 -1.748221
H	 3.330599	 -1.092551	 -1.675082
H	 4.264779	 -0.462476	 -0.333593

	symmetry c1
}
set optking {
	frozen_dihedral = ("
		16 12 9 8
	")
}

ee = optimize('scf')
oeprop('DIPOLE', 'QUADRUPOLE', 'MULLIKEN_CHARGES')
f=open( 'psi4out.xyz', 'w' )
f.write( "20  " )
f.write( str(ee) + "\n" )
f.write( MOL.save_string_xyz() )
f.close()
--------------------------------------------------------------------------

    Molecular point group: c1
  Charge       = 0
  Multiplicity = 1
  Basis Set: CC-PVTZ
  Basis Set:
  @DF-RHF Final Energy:  -384.08208144263352
    Total Energy =                       -384.0820814426331253
    Molecular point group: c1
  Basis Set: CC-PVTZ
  Basis Set:
  Basis Set: CC-PVTZ
  Basis Set:
  @DF-RHF Final Energy:  -384.08231257373774
    Total Energy =                       -384.0823125737380224
  Basis Set: CC-PVTZ
  Basis Set:
  Basis Set: CC-PVTZ
  Basis Set:
  @DF-RHF Final Energy:  -384.08223357553447
    Total Energy =                       -384.0822335755345875
  Basis Set: CC-PVTZ
  Basis Set:
  Basis Set: CC-PVTZ
  Basis Set:
  @DF-RHF Final Energy:  -384.08238829535946
    Total Energy =                       -384.0823882953595785
  Basis Set: CC-PVTZ
  Basis Set:
  Basis Set: CC-PVTZ
  Basis Set:
  @DF-RHF Final Energy:  -384.08238801773922
    Total Energy =                       -384.0823880177390492
  Basis Set: CC-PVTZ
  Basis Set:
  Charge       = 0
  Multiplicity = 1
  Basis Set: CC-PVTZ
  Basis Set:

    Orbital Energies (a.u.)
    -----------------------

    Doubly Occupied:

       1A    -20.594213     2A    -20.532632     3A    -11.366581
       4A    -11.280365     5A    -11.231545     6A    -11.223239
       7A    -11.219333     8A    -11.212267     9A     -1.470964
      10A     -1.365124    11A     -1.085200    12A     -1.028654
      13A     -0.982145    14A     -0.882007    15A     -0.813776
      16A     -0.774482    17A     -0.692314    18A     -0.690275
      19A     -0.669447    20A     -0.627460    21A     -0.603622
      22A     -0.590209    23A     -0.573718    24A     -0.559034
      25A     -0.544572    26A     -0.530620    27A     -0.512643
      28A     -0.485799    29A     -0.476204    30A     -0.468669
      31A     -0.451543    32A     -0.441727

  @DF-RHF Final Energy:  -384.08238944196148

   => Energetics <=

    Nuclear Repulsion Energy =            386.1060567659260414
    One-Electron Energy =               -1288.4161349616183543
    Two-Electron Energy =                 518.2276887537309449
    DFT Exchange-Correlation Energy =       0.0000000000000000
    Empirical Dispersion Energy =           0.0000000000000000
    PCM Polarization Energy =               0.0000000000000000
    EFP Energy =                            0.0000000000000000
    Total Energy =                       -384.0823894419613680
    Molecular point group: c1
  Basis Set: CC-PVTZ
  Basis Set:

  -Total Gradient:
     Atom            X                  Y                   Z
    ------   -----------------  -----------------  -----------------
       1        0.000000279942     0.000003871976     0.000000344461
       2       -0.000007991052    -0.000005213351    -0.000004585716
       3        0.000003572693    -0.000001096032     0.000004873908
       4        0.000016105183    -0.000005407012     0.000003308766
       5        0.000000066669    -0.000001351773    -0.000001615397
       6        0.000000764517    -0.000001493077    -0.000000858032
       7        0.000001070293     0.000000513311    -0.000001366253
       8        0.000189850304    -0.000454580931    -0.000370557316
       9       -0.000344859090     0.000812204312     0.000621002201
      10       -0.000004314950     0.000000052124     0.000000830324
      11        0.000003286983    -0.000003936558     0.000005493672
      12        0.000405638191    -0.000958446674    -0.000742762360
      13       -0.000001066227     0.000005787989    -0.000000292308
      14       -0.000001922387    -0.000006474526    -0.000002430107
      15        0.000022261833    -0.000012563542    -0.000006070910
      16       -0.000266899151     0.000623693757     0.000493044188
      17       -0.000000750119    -0.000001237431    -0.000003828433
      18       -0.000008399131     0.000007221156     0.000003256090
      19       -0.000004285177    -0.000000736148     0.000002047447
      20       -0.000002409326    -0.000000807571     0.000000165777

  **** Optimization is complete! (in 6 steps) ****
    Final optimized geometry and variables:
    Molecular point group: c1

    Geometry (in Angstrom), charge = 0, multiplicity = 1:

    O           -2.418994236730    -0.817496332005    -0.293544042965
    C           -1.898135305486     0.175355050930     0.085973626040
    C           -2.599495299668     1.489350861607     0.283497683105
    O           -0.615306744342     0.257724966548     0.389697995390
    H           -2.139419542957     2.244028596089    -0.341322726956
    H           -3.642176044682     1.383990699963     0.031734585843
    H           -2.494104238612     1.806237027968     1.313020022397
    C            0.176992903286    -0.915060975538     0.251198431748
    C            1.603754018436    -0.568588848949     0.619153765035
    H            0.105750962304    -1.269710397080    -0.768254636149
    H           -0.220008080591    -1.683920684264     0.899103980834
    C            2.272253190860     0.448858244443    -0.327345253875
    H            2.163057120631    -1.498913333498     0.616201351592
    H            1.619401459699    -0.206497430811     1.640509653320
    C            3.555740187004    -0.072681543847    -0.966186712586
    H            1.573823800117     0.736171660931    -1.105326016804
    H            2.491933367131     1.360378345533     0.216082841984
    H            3.998348242799     0.670425085755    -1.619468068185
    H            3.365264497509    -0.962484959033    -1.557441239021
    H            4.291236816437    -0.330602177026    -0.211375312601

  Mulliken Charges: (a.u.)
   Center  Symbol    Alpha    Beta     Spin     Total
       1     O     4.19730  4.19730  0.00000 -0.39459
       2     C     2.80886  2.80886  0.00000  0.38229
       3     C     3.13808  3.13808  0.00000 -0.27617
       4     O     4.15384  4.15384  0.00000 -0.30768
       5     H     0.44603  0.44603  0.00000  0.10794
       6     H     0.43807  0.43807  0.00000  0.12386
       7     H     0.44571  0.44571  0.00000  0.10857
       8     C     2.99328  2.99328  0.00000  0.01344
       9     C     3.08994  3.08994  0.00000 -0.17987
      10     H     0.45112  0.45112  0.00000  0.09775
      11     H     0.44464  0.44464  0.00000  0.11073
      12     C     3.08687  3.08687  0.00000 -0.17375
      13     H     0.45170  0.45170  0.00000  0.09659
      14     H     0.44792  0.44792  0.00000  0.10416
      15     C     3.14778  3.14778  0.00000 -0.29556
      16     H     0.45169  0.45169  0.00000  0.09661
      17     H     0.44888  0.44888  0.00000  0.10223
      18     H     0.44852  0.44852  0.00000  0.10295
      19     H     0.45539  0.45539  0.00000  0.08923
      20     H     0.45437  0.45437  0.00000  0.09126

   Total alpha = 32.00000, Total beta = 32.00000, Total charge = -0.00000
