  ==> Input File <==

--------------------------------------------------------------------------
set {
	reference rhf
	basis cc-pvtz
}

set_num_threads( 4 )
memory 2 gb

molecule MOL {
0 1

H	 -2.655106	 -0.309638	 0.967556
O	 -2.346257	 -0.289210	 0.080372
C	 -1.183935	 0.486039	 -0.009831
C	 0.062853	 -0.375310	 0.027457
H	 -1.178881	 1.094526	 -0.908634
H	 -1.184406	 1.155156	 0.838676
O	 1.172093	 0.457955	 -0.054438
H	 0.052476	 -1.081302	 -0.804627
H	 0.076323	 -0.955658	 0.947560
C	 2.395478	 -0.199028	 -0.000366
H	 2.505946	 -0.901710	 -0.823354
H	 3.174616	 0.545641	 -0.071768
H	 2.513730	 -0.742241	 0.934223

	symmetry c1
}
set optking {
	frozen_dihedral = ("
		1 2 3 5
	")
}

ee = optimize('scf')
oeprop('DIPOLE', 'QUADRUPOLE', 'MULLIKEN_CHARGES')
f=open( 'psi4out.xyz', 'w' )
f.write( "13  " )
f.write( str(ee) + "\n" )
f.write( MOL.save_string_xyz() )
f.close()
--------------------------------------------------------------------------

    Molecular point group: c1
  Charge       = 0
  Multiplicity = 1
  Basis Set: CC-PVTZ
  Basis Set:
  @DF-RHF Final Energy:  -268.06043062289802
    Total Energy =                       -268.0604306228977975
    Molecular point group: c1
  Basis Set: CC-PVTZ
  Basis Set:
  Basis Set: CC-PVTZ
  Basis Set:
  @DF-RHF Final Energy:  -268.06148918102178
    Total Energy =                       -268.0614891810219547
  Basis Set: CC-PVTZ
  Basis Set:
  Basis Set: CC-PVTZ
  Basis Set:
  @DF-RHF Final Energy:  -268.06177504567597
    Total Energy =                       -268.0617750456758586
  Basis Set: CC-PVTZ
  Basis Set:
  Basis Set: CC-PVTZ
  Basis Set:
  @DF-RHF Final Energy:  -268.06177968452840
    Total Energy =                       -268.0617796845281759
  Basis Set: CC-PVTZ
  Basis Set:
  Charge       = 0
  Multiplicity = 1
  Basis Set: CC-PVTZ
  Basis Set:

    Orbital Energies (a.u.)
    -----------------------

    Doubly Occupied:

       1A    -20.554076     2A    -20.551998     3A    -11.267886
       4A    -11.266246     5A    -11.266170     6A     -1.389998
       7A     -1.368186     8A     -1.019244     9A     -0.913010
      10A     -0.838095    11A     -0.715127    12A     -0.677264
      13A     -0.655759    14A     -0.641991    15A     -0.601148
      16A     -0.560265    17A     -0.548415    18A     -0.488645
      19A     -0.484593    20A     -0.441030    21A     -0.422653

  @DF-RHF Final Energy:  -268.06178016059266

   => Energetics <=

    Nuclear Repulsion Energy =            190.4129835471903789
    One-Electron Energy =                -743.6059257935888809
    Two-Electron Energy =                 285.1311620858058404
    DFT Exchange-Correlation Energy =       0.0000000000000000
    Empirical Dispersion Energy =           0.0000000000000000
    PCM Polarization Energy =               0.0000000000000000
    EFP Energy =                            0.0000000000000000
    Total Energy =                       -268.0617801605926616
    Molecular point group: c1
  Basis Set: CC-PVTZ
  Basis Set:

  -Total Gradient:
     Atom            X                  Y                   Z
    ------   -----------------  -----------------  -----------------
       1       -0.000517705324     0.000746240137    -0.000207713352
       2        0.000547303922    -0.000762926075     0.000345057530
       3        0.000333142085    -0.000598533780    -0.000484185153
       4       -0.000028259587     0.000035396180     0.000002587928
       5       -0.000367534104     0.000576870963     0.000365003717
       6       -0.000000778709    -0.000005346273     0.000003507958
       7        0.000029801647    -0.000006941689    -0.000015159225
       8        0.000004038164     0.000000594826    -0.000003088695
       9       -0.000013918855     0.000005979046    -0.000008400723
      10        0.000011312926     0.000011683002     0.000005810087
      11       -0.000000959686     0.000001253178    -0.000000384990
      12        0.000004597231    -0.000002803379    -0.000003045500
      13       -0.000001039720    -0.000001466137     0.000000010420

  **** Optimization is complete! (in 5 steps) ****
    Final optimized geometry and variables:
    Molecular point group: c1

    Geometry (in Angstrom), charge = 0, multiplicity = 1:

    H           -2.694735089634    -0.327024446363     0.885538430805
    O           -2.335379058226    -0.310435341345     0.019243742371
    C           -1.182045467663     0.486701200437    -0.018898573902
    C            0.062530498106    -0.375105534277     0.030746707945
    H           -1.195031541378     1.054103269388    -0.939863069337
    H           -1.162532897003     1.198827953795     0.799045715662
    O            1.173365394230     0.457901403896    -0.045563480053
    H            0.046552592326    -1.081537295237    -0.796491135239
    H            0.075932202714    -0.952765192445     0.954770716404
    C            2.394540730087    -0.204885433607    -0.042085919304
    H            2.483072963389    -0.878992830848    -0.890831805912
    H            3.175521284414     0.538749875424    -0.104789447989
    H            2.531707287401    -0.780969480953     0.870370061254

  Mulliken Charges: (a.u.)
   Center  Symbol    Alpha    Beta     Spin     Total
       1     H     0.39103  0.39103  0.00000  0.21795
       2     O     4.20544  4.20544  0.00000 -0.41087
       3     C     2.97496  2.97496  0.00000  0.05009
       4     C     2.95899  2.95899  0.00000  0.08201
       5     H     0.45605  0.45605  0.00000  0.08790
       6     H     0.46784  0.46784  0.00000  0.06431
       7     O     4.17631  4.17631  0.00000 -0.35262
       8     H     0.47052  0.47052  0.00000  0.05896
       9     H     0.47992  0.47992  0.00000  0.04016
      10     C     3.03131  3.03131  0.00000 -0.06262
      11     H     0.46993  0.46993  0.00000  0.06013
      12     H     0.44647  0.44647  0.00000  0.10705
      13     H     0.47122  0.47122  0.00000  0.05755

   Total alpha = 21.00000, Total beta = 21.00000, Total charge = -0.00000
