  ==> Input File <==

--------------------------------------------------------------------------
set {
	reference rhf
	basis cc-pvtz
}

set_num_threads( 4 )
memory 2 gb

molecule MOL {
0 1

H	 -2.423711	 -0.440321	 1.223473
O	 -2.057452	 0.368066	 1.532123
C	 -1.044469	 0.801561	 0.668360
C	 0.211034	 -0.034099	 0.820604
H	 -1.368983	 0.785088	 -0.367279
H	 -0.827026	 1.827925	 0.927160
O	 1.172093	 0.457955	 -0.054438
H	 -0.008727	 -1.079761	 0.598810
H	 0.557692	 0.015039	 1.850647
C	 2.395478	 -0.199028	 -0.000366
H	 2.505946	 -0.901710	 -0.823354
H	 3.174616	 0.545641	 -0.071768
H	 2.513730	 -0.742241	 0.934223

	symmetry c1
}
set optking {
	frozen_dihedral = ("
		4 7 10 13
	")
}

ee = optimize('scf')
oeprop('DIPOLE', 'QUADRUPOLE', 'MULLIKEN_CHARGES')
f=open( 'psi4out.xyz', 'w' )
f.write( "13  " )
f.write( str(ee) + "\n" )
f.write( MOL.save_string_xyz() )
f.close()
--------------------------------------------------------------------------

    Molecular point group: c1
  Charge       = 0
  Multiplicity = 1
  Basis Set: CC-PVTZ
  Basis Set:
  @DF-RHF Final Energy:  -268.05936666421775
    Total Energy =                       -268.0593666642175776
    Molecular point group: c1
  Basis Set: CC-PVTZ
  Basis Set:
  Basis Set: CC-PVTZ
  Basis Set:
  @DF-RHF Final Energy:  -268.05954096577892
    Total Energy =                       -268.0595409657789219
  Basis Set: CC-PVTZ
  Basis Set:
  Basis Set: CC-PVTZ
  Basis Set:
  @DF-RHF Final Energy:  -268.05959879302776
    Total Energy =                       -268.0595987930279875
  Basis Set: CC-PVTZ
  Basis Set:
  Charge       = 0
  Multiplicity = 1
  Basis Set: CC-PVTZ
  Basis Set:

    Orbital Energies (a.u.)
    -----------------------

    Doubly Occupied:

       1A    -20.553375     2A    -20.552627     3A    -11.269695
       4A    -11.267459     5A    -11.267057     6A     -1.388683
       7A     -1.368602     8A     -1.019512     9A     -0.914198
      10A     -0.842586    11A     -0.711511    12A     -0.673806
      13A     -0.661388    14A     -0.639030    15A     -0.597045
      16A     -0.572235    17A     -0.547984    18A     -0.492364
      19A     -0.482797    20A     -0.441247    21A     -0.420255

  @DF-RHF Final Energy:  -268.05959927032222

   => Energetics <=

    Nuclear Repulsion Energy =            190.2462040663280334
    One-Electron Energy =                -743.2447006778500054
    Two-Electron Energy =                 284.9388973411996631
    DFT Exchange-Correlation Energy =       0.0000000000000000
    Empirical Dispersion Energy =           0.0000000000000000
    PCM Polarization Energy =               0.0000000000000000
    EFP Energy =                            0.0000000000000000
    Total Energy =                       -268.0595992703223374
    Molecular point group: c1
  Basis Set: CC-PVTZ
  Basis Set:

  -Total Gradient:
     Atom            X                  Y                   Z
    ------   -----------------  -----------------  -----------------
       1        0.000002245921     0.000006985682     0.000000805965
       2       -0.000060405164     0.000013401822     0.000036702848
       3       -0.000001025346    -0.000051587305     0.000014237865
       4        0.000556408049     0.001245896064     0.001375556463
       5        0.000016334303     0.000008179349     0.000001542700
       6       -0.000006457709    -0.000004575799    -0.000001788505
       7       -0.001029164330    -0.002416946968    -0.002288317796
       8        0.000001674166     0.000013306247     0.000005417371
       9        0.000002483616     0.000010872508    -0.000020669560
      10        0.001528021337     0.003142911079     0.001891716199
      11       -0.000015075033    -0.000003312219     0.000002020580
      12        0.000029218443     0.000001248281     0.000004767935
      13       -0.001024258251    -0.001966378742    -0.001021992066

  **** Optimization is complete! (in 4 steps) ****
    Final optimized geometry and variables:
    Molecular point group: c1

    Geometry (in Angstrom), charge = 0, multiplicity = 1:

    H           -2.549077701553    -0.695630313979     0.614498921273
    O           -2.179936446575     0.111684922777     0.922526570025
    C           -1.160443849522     0.536920215427     0.062032429260
    C            0.089545019972    -0.305163139932     0.223026401242
    H           -1.480347427840     0.519585229504    -0.974984560625
    H           -0.937876757200     1.562699061307     0.318872184382
    O            1.058195405505     0.187210761505    -0.644512847387
    H           -0.137481363194    -1.348992662397    -0.000166087269
    H            0.428600705876    -0.257186103351     1.254848985299
    C            2.295526001110    -0.454113640754    -0.605833593214
    H            2.385536979278    -1.158943458253    -1.427497393583
    H            3.077564433275     0.287205373211    -0.697430187549
    H            2.434499547395    -1.004867009630     0.318988755866

  Mulliken Charges: (a.u.)
   Center  Symbol    Alpha    Beta     Spin     Total
       1     H     0.39421  0.39421  0.00000  0.21159
       2     O     4.20210  4.20210  0.00000 -0.40419
       3     C     2.97476  2.97476  0.00000  0.05049
       4     C     2.96506  2.96506  0.00000  0.06987
       5     H     0.46671  0.46671  0.00000  0.06658
       6     H     0.45295  0.45295  0.00000  0.09410
       7     O     4.17932  4.17932  0.00000 -0.35863
       8     H     0.48251  0.48251  0.00000  0.03498
       9     H     0.46873  0.46873  0.00000  0.06254
      10     C     3.02851  3.02851  0.00000 -0.05703
      11     H     0.46225  0.46225  0.00000  0.07551
      12     H     0.45117  0.45117  0.00000  0.09765
      13     H     0.47173  0.47173  0.00000  0.05655

   Total alpha = 21.00000, Total beta = 21.00000, Total charge = -0.00000
