  ==> Input File <==

--------------------------------------------------------------------------
set {
	reference rhf
	basis 6-31G*
}

set_num_threads( 4 )
memory 2 gb

molecule MOL {
0 1

H	 -3.261111	 -0.295142	 1.469456
C	 -3.306842	 -0.277400	 0.373456
C	 -2.660244	 0.921717	 -0.272021
O	 -3.838538	 -1.161155	 -0.216482
C	 -1.220012	 1.144545	 0.209990
H	 -2.705793	 0.797307	 -1.347733
H	 -3.263782	 1.790044	 -0.010477
C	 -0.252658	 0.041456	 -0.226725
H	 -0.873521	 2.100229	 -0.171974
H	 -1.211708	 1.231594	 1.295398
C	 1.180775	 0.282413	 0.250794
H	 -0.266029	 -0.034465	 -1.312038
H	 -0.597733	 -0.921000	 0.146291
C	 2.148627	 -0.814315	 -0.201312
H	 1.516199	 1.249228	 -0.115937
H	 1.192670	 0.346017	 1.338083
C	 3.580890	 -0.659131	 0.322722
H	 2.166869	 -0.852443	 -1.289387
H	 1.762857	 -1.776509	 0.128956
C	 3.726592	 -0.832717	 1.835421
H	 3.940652	 0.329832	 0.049827
H	 4.229728	 -1.368560	 -0.186827
H	 3.076312	 -0.146297	 2.371360
H	 3.479778	 -1.839754	 2.154692
H	 4.746756	 -0.633336	 2.149280

	symmetry c1
}
set optking {
	frozen_dihedral = ("
		20 17 14 18
	")
}

ee = optimize('scf')
oeprop('DIPOLE', 'QUADRUPOLE', 'MULLIKEN_CHARGES')
f=open( 'psi4out.xyz', 'w' )
f.write( "25  " )
f.write( str(ee) + "\n" )
f.write( MOL.save_string_xyz() )
f.close()
--------------------------------------------------------------------------

    Molecular point group: c1
  Charge       = 0
  Multiplicity = 1
  Basis Set: 6-31G*
  Basis Set:
  @DF-RHF Final Energy:  -387.12141608840693
    Total Energy =                       -387.1214160884072726
    Molecular point group: c1
  Basis Set: 6-31G*
  Basis Set:
  Basis Set: 6-31G*
  Basis Set:
  @DF-RHF Final Energy:  -387.12177327931579
    Total Energy =                       -387.1217732793151072
  Basis Set: 6-31G*
  Basis Set:
  Basis Set: 6-31G*
  Basis Set:
  @DF-RHF Final Energy:  -387.11828129070841
    Total Energy =                       -387.1182812907081825
  Basis Set: 6-31G*
  Basis Set:
  Basis Set: 6-31G*
  Basis Set:
  @DF-RHF Final Energy:  -387.12193557047942
    Total Energy =                       -387.1219355704793088
  Basis Set: 6-31G*
  Basis Set:
  Basis Set: 6-31G*
  Basis Set:
  @DF-RHF Final Energy:  -387.12203011038491
    Total Energy =                       -387.1220301103851398
  Basis Set: 6-31G*
  Basis Set:
  Basis Set: 6-31G*
  Basis Set:
  @DF-RHF Final Energy:  -387.12203906681225
    Total Energy =                       -387.1220390668122491
  Basis Set: 6-31G*
  Basis Set:
  Charge       = 0
  Multiplicity = 1
  Basis Set: 6-31G*
  Basis Set:

    Orbital Energies (a.u.)
    -----------------------

    Doubly Occupied:

       1A    -20.562023     2A    -11.326178     3A    -11.235377
       4A    -11.234691     5A    -11.223997     6A    -11.219930
       7A    -11.218062     8A    -11.216995     9A    -11.210686
      10A     -1.401966    11A     -1.104007    12A     -1.069703
      13A     -1.013472    14A     -0.942528    15A     -0.875051
      16A     -0.820440    17A     -0.788086    18A     -0.781972
      19A     -0.664272    20A     -0.662289    21A     -0.631512
      22A     -0.624593    23A     -0.609308    24A     -0.590280
      25A     -0.566796    26A     -0.562934    27A     -0.525350
      28A     -0.521995    29A     -0.517786    30A     -0.496848
      31A     -0.487451    32A     -0.480397    33A     -0.464834
      34A     -0.458820    35A     -0.441364    36A     -0.409549

  @DF-RHF Final Energy:  -387.12203936100087

   => Energetics <=

    Nuclear Repulsion Energy =            439.4001700671884123
    One-Electron Energy =               -1395.1213372174061078
    Two-Electron Energy =                 568.5991277892167091
    DFT Exchange-Correlation Energy =       0.0000000000000000
    Empirical Dispersion Energy =           0.0000000000000000
    PCM Polarization Energy =               0.0000000000000000
    EFP Energy =                            0.0000000000000000
    Total Energy =                       -387.1220393610010433
    Molecular point group: c1
  Basis Set: 6-31G*
  Basis Set:

  -Total Gradient:
     Atom            X                  Y                   Z
    ------   -----------------  -----------------  -----------------
       1       -0.000027860040     0.000018204872    -0.000004290058
       2        0.000080755854    -0.000063346031    -0.000018256170
       3       -0.000027991886     0.000005232828     0.000014734088
       4       -0.000023091264     0.000013091607     0.000007201270
       5        0.000009159307     0.000002004784    -0.000001746716
       6       -0.000000078219     0.000007628371     0.000006690650
       7        0.000003309219     0.000003757942     0.000012178095
       8        0.000000721158     0.000001978443    -0.000010603007
       9       -0.000003056963    -0.000009047482    -0.000015372819
      10        0.000007879422     0.000018910233     0.000005520031
      11       -0.000001026736    -0.000000349905    -0.000021174345
      12        0.000014651005     0.000010414829    -0.000000553118
      13       -0.000009957174     0.000002217501    -0.000007599389
      14       -0.000075499968     0.000347087187     0.000018652401
      15       -0.000020706240     0.000004924171    -0.000011398546
      16        0.000010557844    -0.000002471964    -0.000018323967
      17       -0.000052356586     0.000374031864     0.000057508789
      18        0.000050851736    -0.000387987259     0.000032513925
      19       -0.000026126612    -0.000031733762    -0.000004965028
      20        0.000057256988    -0.000325339862    -0.000043283259
      21        0.000015988663     0.000012076877     0.000001079845
      22        0.000006455818     0.000005430155     0.000014389039
      23        0.000013593614    -0.000003892937    -0.000015519482
      24        0.000000010654    -0.000000584923     0.000006026537
      25       -0.000003439593    -0.000002237539    -0.000003408766

  **** Optimization is complete! (in 7 steps) ****
    Final optimized geometry and variables:
    Molecular point group: c1

    Geometry (in Angstrom), charge = 0, multiplicity = 1:

    H           -3.254089467879    -0.162550341750     1.162426401788
    C           -3.263861293675    -0.109629111360     0.066564465166
    C           -2.585324263363     1.102649318665    -0.518924081583
    O           -3.790257023249    -0.965482922855    -0.567673870387
    C           -1.156982906727     1.291241442285     0.010974204431
    H           -2.601166379768     1.014951821990    -1.599136440478
    H           -3.186219483437     1.969023531518    -0.245375659785
    C           -0.189591785400     0.192349983463    -0.436197887074
    H           -0.788874965288     2.255554631123    -0.327102063253
    H           -1.179018756926     1.340319217067     1.098399710390
    C            1.233429273977     0.402556230099     0.084903013032
    H           -0.175946825672     0.151575509923    -1.523326928380
    H           -0.553457566492    -0.777985386609    -0.103150496247
    C            2.199407043524    -0.695888874524    -0.366618656935
    H            1.602421978861     1.367782306360    -0.258739522699
    H            1.208895597618     0.453531571941     1.170601490199
    C            3.653392463168    -0.488550676831     0.073362549654
    H            2.171526968556    -0.761422212420    -1.452210928554
    H            1.848204095023    -1.658381899055     0.002048785200
    C            3.884292400216    -0.617555880860     1.580119583453
    H            3.996971502573     0.487053094404    -0.264566445732
    H            4.274404629455    -1.220953483303    -0.436313853018
    H            3.358418635663     0.149003126829     2.139821201971
    H            3.546916200546    -1.584143057749     1.944382274327
    H            4.939711581966    -0.526151408822     1.817484164689

  Mulliken Charges: (a.u.)
   Center  Symbol    Alpha    Beta     Spin     Total
       1     H     0.43261  0.43261  0.00000  0.13477
       2     C     2.83083  2.83083  0.00000  0.33834
       3     C     3.20816  3.20816  0.00000 -0.41631
       4     O     4.23775  4.23775  0.00000 -0.47551
       5     C     3.16654  3.16654  0.00000 -0.33308
       6     H     0.39971  0.39971  0.00000  0.20059
       7     H     0.40661  0.40661  0.00000  0.18677
       8     C     3.15481  3.15481  0.00000 -0.30962
       9     H     0.41281  0.41281  0.00000  0.17439
      10     H     0.41970  0.41970  0.00000  0.16060
      11     C     3.15399  3.15399  0.00000 -0.30798
      12     H     0.41810  0.41810  0.00000  0.16380
      13     H     0.41832  0.41832  0.00000  0.16337
      14     C     3.15324  3.15324  0.00000 -0.30648
      15     H     0.42329  0.42329  0.00000  0.15341
      16     H     0.42138  0.42138  0.00000  0.15723
      17     C     3.15295  3.15295  0.00000 -0.30589
      18     H     0.42097  0.42097  0.00000  0.15805
      19     H     0.42263  0.42263  0.00000  0.15475
      20     C     3.24119  3.24119  0.00000 -0.48239
      21     H     0.42326  0.42326  0.00000  0.15348
      22     H     0.41996  0.41996  0.00000  0.16008
      23     H     0.42090  0.42090  0.00000  0.15820
      24     H     0.42161  0.42161  0.00000  0.15678
      25     H     0.41867  0.41867  0.00000  0.16266

   Total alpha = 36.00000, Total beta = 36.00000, Total charge =  0.00000
