  ==> Input File <==

--------------------------------------------------------------------------
set {
	reference rhf
	basis 6-31G*
}

set_num_threads( 1 )
memory 2 gb

molecule MOL {
0 1

H	 2.221905	 -1.187076	 -0.616917
N	 2.434251	 -0.367735	 -0.081097
C	 1.267428	 0.496480	 0.024474
H	 3.179121	 0.104633	 -0.557493
C	 -0.016086	 -0.325158	 -0.029487
H	 1.288818	 1.183521	 -0.816092
H	 1.267576	 1.109062	 0.929528
C	 -1.282277	 0.529072	 0.046735
H	 -0.012495	 -0.908639	 -0.945788
H	 -0.015903	 -1.041248	 0.791956
C	 -2.563920	 -0.301775	 -0.006060
H	 -1.284084	 1.244622	 -0.773004
H	 -1.271387	 1.115393	 0.963286
H	 -2.621848	 -0.873522	 -0.927727
H	 -3.445135	 0.329952	 0.047812
H	 -2.609542	 -1.004582	 0.821105

	symmetry c1
}
set optking {
	frozen_dihedral = ("
		6 3 5 9,
		12 8 5 9
	")
}

ee = energy('scf')
oeprop('DIPOLE', 'QUADRUPOLE', 'MULLIKEN_CHARGES')
f=open( 'psi4out.xyz', 'w' )
f.write( "16  " )
f.write( str(ee) + "\n" )
f.write( MOL.save_string_xyz() )
f.close()
--------------------------------------------------------------------------

    Molecular point group: c1

    Geometry (in Angstrom), charge = 0, multiplicity = 1:

       Center              X                  Y                   Z               Mass
    ------------   -----------------  -----------------  -----------------  -----------------
           H          2.227105265451    -1.183062926764    -0.592296732400     1.007825032070
           N          2.439451265451    -0.363721926764    -0.056476732400    14.003074004780
           C          1.272628265451     0.500493073236     0.049094267600    12.000000000000
           H          3.184321265451     0.108646073236    -0.532872732400     1.007825032070
           C         -0.010885734549    -0.321144926764    -0.004866732400    12.000000000000
           H          1.294018265451     1.187534073236    -0.791471732400     1.007825032070
           H          1.272776265451     1.113075073236     0.954148267600     1.007825032070
           C         -1.277076734549     0.533085073236     0.071355267600    12.000000000000
           H         -0.007294734549    -0.904625926764    -0.921167732400     1.007825032070
           H         -0.010702734549    -1.037234926764     0.816576267600     1.007825032070
           C         -2.558719734549    -0.297761926764     0.018560267600    12.000000000000
           H         -1.278883734549     1.248635073236    -0.748383732400     1.007825032070
           H         -1.266186734549     1.119406073236     0.987906267600     1.007825032070
           H         -2.616647734549    -0.869508926764    -0.903106732400     1.007825032070
           H         -3.439934734549     0.333965073236     0.072432267600     1.007825032070
           H         -2.604341734549    -1.000568926764     0.845725267600     1.007825032070

  Charge       = 0
  Multiplicity = 1
  Basis Set: 6-31G*
  Basis Set:

    Orbital Energies (a.u.)
    -----------------------

    Doubly Occupied:

       1A    -15.529458     2A    -11.239863     3A    -11.218296
       4A    -11.215709     5A    -11.210403     6A     -1.176811
       7A     -1.062084     8A     -0.959967     9A     -0.845539
      10A     -0.798027    11A     -0.651245    12A     -0.649869
      13A     -0.598058    14A     -0.581414    15A     -0.571957
      16A     -0.522143    17A     -0.510930    18A     -0.474308
      19A     -0.468959    20A     -0.461730    21A     -0.375830

  @DF-RHF Final Energy:  -212.31264031716503

   => Energetics <=

    Nuclear Repulsion Energy =            186.5383417915924440
    One-Electron Energy =                -655.4568564015794436
    Two-Electron Energy =                 256.6058742928223637
    DFT Exchange-Correlation Energy =       0.0000000000000000
    Empirical Dispersion Energy =           0.0000000000000000
    PCM Polarization Energy =               0.0000000000000000
    EFP Energy =                            0.0000000000000000
    Total Energy =                       -212.3126403171646643

  Mulliken Charges: (a.u.)
   Center  Symbol    Alpha    Beta     Spin     Total
       1     H     0.33348  0.33348  0.00000  0.33304
       2     N     3.92652  3.92652  0.00000 -0.85303
       3     C     3.04834  3.04834  0.00000 -0.09668
       4     H     0.33343  0.33343  0.00000  0.33314
       5     C     3.16306  3.16306  0.00000 -0.32612
       6     H     0.43393  0.43393  0.00000  0.13214
       7     H     0.42085  0.42085  0.00000  0.15830
       8     C     3.15463  3.15463  0.00000 -0.30926
       9     H     0.42684  0.42684  0.00000  0.14631
      10     H     0.41515  0.41515  0.00000  0.16969
      11     C     3.23920  3.23920  0.00000 -0.47839
      12     H     0.42262  0.42262  0.00000  0.15477
      13     H     0.42079  0.42079  0.00000  0.15842
      14     H     0.42181  0.42181  0.00000  0.15639
      15     H     0.41877  0.41877  0.00000  0.16246
      16     H     0.42058  0.42058  0.00000  0.15884

   Total alpha = 21.00000, Total beta = 21.00000, Total charge =  0.00000
