  ==> Input File <==

--------------------------------------------------------------------------
set {
	reference rhf
	basis 6-31G*
}

set_num_threads( 4 )
memory 2 gb

molecule MOL {
0 1

O	 3.225979	 0.970355	 -0.599647
C	 2.701189	 0.057885	 -0.047330
C	 1.245376	 -0.013843	 0.345420
O	 3.347903	 -1.046386	 0.304773
C	 0.455112	 1.231400	 -0.050772
H	 0.838542	 -0.913825	 -0.103701
H	 1.208210	 -0.175333	 1.419774
C	 -0.998893	 1.219485	 0.433193
H	 0.482531	 1.345121	 -1.130325
H	 0.957290	 2.103070	 0.354729
C	 -1.883438	 0.145884	 -0.207175
H	 -1.431207	 2.195402	 0.224832
H	 -1.019646	 1.105716	 1.516076
C	 -1.338054	 -0.353044	 -1.546812
H	 -1.978036	 -0.695111	 0.478097
H	 -2.889291	 0.530790	 -0.359099
C	 -2.216626	 -1.422421	 -2.198484
H	 -0.335861	 -0.752491	 -1.400917
H	 -1.233101	 0.489142	 -2.229020
C	 -1.663003	 -1.918061	 -3.533978
H	 -2.323372	 -2.264307	 -1.517695
H	 -3.217628	 -1.023563	 -2.349106
H	 -2.307324	 -2.674756	 -3.970865
H	 -0.675975	 -2.354993	 -3.411257
H	 -1.576583	 -1.104517	 -4.248787
C	 4.728119	 -1.109107	 -0.004993
H	 4.882018	 -1.033965	 -1.071845
H	 5.068212	 -2.067527	 0.355250
H	 5.265056	 -0.311663	 0.488280

	symmetry c1
}
set optking {
	frozen_dihedral = ("
		15 11 8 5
	")
}

ee = optimize('scf')
oeprop('DIPOLE', 'QUADRUPOLE', 'MULLIKEN_CHARGES')
f=open( 'psi4out.xyz', 'w' )
f.write( "29  " )
f.write( str(ee) + "\n" )
f.write( MOL.save_string_xyz() )
f.close()
--------------------------------------------------------------------------

    Molecular point group: c1
  Charge       = 0
  Multiplicity = 1
  Basis Set: 6-31G*
  Basis Set:
  @DF-RHF Final Energy:  -501.02994091823962
    Total Energy =                       -501.0299409182391628
    Molecular point group: c1
  Basis Set: 6-31G*
  Basis Set:
  Basis Set: 6-31G*
  Basis Set:
  @DF-RHF Final Energy:  -501.03577226536788
    Total Energy =                       -501.0357722653682231
  Basis Set: 6-31G*
  Basis Set:
  Basis Set: 6-31G*
  Basis Set:
  @DF-RHF Final Energy:  -501.03676330065582
    Total Energy =                       -501.0367633006557071
  Basis Set: 6-31G*
  Basis Set:
  Basis Set: 6-31G*
  Basis Set:
  @DF-RHF Final Energy:  -501.03656504354808
    Total Energy =                       -501.0365650435481939
  Basis Set: 6-31G*
  Basis Set:
  Basis Set: 6-31G*
  Basis Set:
  @DF-RHF Final Energy:  -501.03651701322156
    Total Energy =                       -501.0365170132209869
  Basis Set: 6-31G*
  Basis Set:
  Basis Set: 6-31G*
  Basis Set:
  @DF-RHF Final Energy:  -501.03693656171299
    Total Energy =                       -501.0369365617136737
  Basis Set: 6-31G*
  Basis Set:
  Basis Set: 6-31G*
  Basis Set:
  @DF-RHF Final Energy:  -501.03694652513786
    Total Energy =                       -501.0369465251387737
  Basis Set: 6-31G*
  Basis Set:
  Charge       = 0
  Multiplicity = 1
  Basis Set: 6-31G*
  Basis Set:

    Orbital Energies (a.u.)
    -----------------------

    Doubly Occupied:

       1A    -20.603184     2A    -20.544962     3A    -11.371620
       4A    -11.280536     5A    -11.234066     6A    -11.218387
       7A    -11.217809     8A    -11.216382     9A    -11.216167
      10A    -11.215387    11A    -11.208994    12A     -1.468809
      13A     -1.362237    14A     -1.096878    15A     -1.064904
      16A     -1.017794    17A     -0.975628    18A     -0.930339
      19A     -0.867374    20A     -0.809030    21A     -0.778315
      22A     -0.758809    23A     -0.700565    24A     -0.682438
      25A     -0.671592    26A     -0.646941    27A     -0.634365
      28A     -0.602704    29A     -0.594224    30A     -0.580076
      31A     -0.564576    32A     -0.551850    33A     -0.540220
      34A     -0.526108    35A     -0.521717    36A     -0.506776
      37A     -0.493031    38A     -0.480737    39A     -0.472207
      40A     -0.456400    41A     -0.456058    42A     -0.451796
      43A     -0.442496    44A     -0.434813

  @DF-RHF Final Energy:  -501.03694685033201

   => Energetics <=

    Nuclear Repulsion Energy =            628.9040387063423623
    One-Electron Energy =               -1928.9433790814011900
    Two-Electron Energy =                 799.0023935247274949
    DFT Exchange-Correlation Energy =       0.0000000000000000
    Empirical Dispersion Energy =           0.0000000000000000
    PCM Polarization Energy =               0.0000000000000000
    EFP Energy =                            0.0000000000000000
    Total Energy =                       -501.0369468503313328
    Molecular point group: c1
  Basis Set: 6-31G*
  Basis Set:

  -Total Gradient:
     Atom            X                  Y                   Z
    ------   -----------------  -----------------  -----------------
       1       -0.000000330101     0.000031221047     0.000079528798
       2       -0.000047891863    -0.000097897937    -0.000157932985
       3       -0.000005735374    -0.000001054723    -0.000012763392
       4        0.000001309813     0.000027919596     0.000032262780
       5       -0.001338344356     0.003569443577    -0.004009473878
       6        0.000022700187     0.000025485407     0.000012271088
       7       -0.000015777623     0.000005777622     0.000017620262
       8        0.000495003307    -0.004424953654     0.006564985782
       9       -0.000032178030    -0.000010099435    -0.000023857810
      10       -0.000004316575     0.000002307550    -0.000019339829
      11        0.006873794661    -0.002135636369    -0.005570346618
      12       -0.000006491581     0.000014263354     0.000017710216
      13        0.000014593952    -0.000033394337    -0.000009936734
      14        0.000091281998    -0.000115737064     0.000114781553
      15       -0.005990419848     0.003077284184     0.002972427447
      16       -0.000043711814    -0.000016027385    -0.000010789362
      17        0.000001148519     0.000027640126    -0.000011179066
      18       -0.000057803056    -0.000008085485    -0.000006158413
      19        0.000062632437     0.000029695430     0.000019636959
      20       -0.000017415213     0.000025110676    -0.000008295087
      21        0.000018958534     0.000008596750    -0.000007996780
      22       -0.000019412995    -0.000009610789     0.000009626716
      23       -0.000003528285     0.000007271007    -0.000001249559
      24       -0.000004417392    -0.000000888561     0.000008385694
      25        0.000005434775    -0.000001903948    -0.000005393027
      26       -0.000000868325     0.000001861488     0.000003765022
      27       -0.000002450892     0.000000364301     0.000000726842
      28        0.000000964019     0.000000758028     0.000001070682
      29        0.000003271116     0.000000289541    -0.000000087304

  **** Optimization is complete! (in 8 steps) ****
    Final optimized geometry and variables:
    Molecular point group: c1

    Geometry (in Angstrom), charge = 0, multiplicity = 1:

    O            2.556494407945     1.170787236028     0.027666511751
    C            2.071813702714     0.316049195314     0.696833393580
    C            0.623829677210     0.244080194235     1.116323121849
    O            2.763349809644    -0.710797531573     1.175401990754
    C           -0.217399232690     1.405011867613     0.588463710657
    H            0.240654458839    -0.717918313619     0.791157017135
    H            0.603639391605     0.214870157574     2.202647564499
    C           -1.689292259950     1.328996470685     1.013440467241
    H           -0.133296148420     1.457322618738    -0.489832695814
    H            0.204047216448     2.331447756677     0.964240077294
    C           -2.570915560843     0.240553101383     0.353961087858
    H           -2.127249800325     2.296597661703     0.781950699007
    H           -1.751436534997     1.229696267325     2.094116655772
    C           -2.184862186851    -0.218211792775    -1.053135363700
    H           -2.678144928046    -0.610486492188     1.023542304344
    H           -3.579565220068     0.646181094199     0.298673023100
    C           -3.199407321316    -1.198443372139    -1.646565833159
    H           -1.205024744304    -0.687851570830    -1.050513936027
    H           -2.104306950979     0.648307039817    -1.706818121476
    C           -2.828709146937    -1.660509863846    -3.055366606108
    H           -3.286971758604    -2.064656394231    -0.994060102167
    H           -4.181869964220    -0.731956233366    -1.666986088516
    H           -3.567163730434    -2.351897485931    -3.449403897038
    H           -1.866605845768    -2.165038611813    -3.062768921990
    H           -2.764730446947    -0.819397086714    -3.739854285892
    C            4.142043336423    -0.761340299794     0.856856876982
    H            4.283294358655    -0.815220229221    -0.213042094447
    H            4.521694105145    -1.653790619468     1.329514255188
    H            4.652713897030     0.110887220413     1.238930065602

  Mulliken Charges: (a.u.)
   Center  Symbol    Alpha    Beta     Spin     Total
       1     O     4.28598  4.28598  0.00000 -0.57197
       2     C     2.60565  2.60565  0.00000  0.78870
       3     C     3.20892  3.20892  0.00000 -0.41785
       4     O     4.30744  4.30744  0.00000 -0.61488
       5     C     3.15719  3.15719  0.00000 -0.31438
       6     H     0.39935  0.39935  0.00000  0.20129
       7     H     0.40091  0.40091  0.00000  0.19817
       8     C     3.15898  3.15898  0.00000 -0.31796
       9     H     0.40797  0.40797  0.00000  0.18406
      10     H     0.41052  0.41052  0.00000  0.17895
      11     C     3.15808  3.15808  0.00000 -0.31615
      12     H     0.41807  0.41807  0.00000  0.16386
      13     H     0.42113  0.42113  0.00000  0.15773
      14     C     3.15447  3.15447  0.00000 -0.30895
      15     H     0.42238  0.42238  0.00000  0.15523
      16     H     0.42052  0.42052  0.00000  0.15897
      17     C     3.15142  3.15142  0.00000 -0.30285
      18     H     0.42348  0.42348  0.00000  0.15305
      19     H     0.42125  0.42125  0.00000  0.15749
      20     C     3.23935  3.23935  0.00000 -0.47870
      21     H     0.42314  0.42314  0.00000  0.15371
      22     H     0.42249  0.42249  0.00000  0.15501
      23     H     0.41916  0.41916  0.00000  0.16169
      24     H     0.42183  0.42183  0.00000  0.15634
      25     H     0.42108  0.42108  0.00000  0.15785
      26     C     3.09236  3.09236  0.00000 -0.18471
      27     H     0.40917  0.40917  0.00000  0.18167
      28     H     0.40857  0.40857  0.00000  0.18286
      29     H     0.40913  0.40913  0.00000  0.18174

   Total alpha = 44.00000, Total beta = 44.00000, Total charge = -0.00000
