  ==> Input File <==

--------------------------------------------------------------------------
set {
	reference rhf
	basis 6-31G*
}

set_num_threads( 1 )
memory 2 gb

molecule MOL {
0 1

H	 -3.420663	 1.227371	 -1.044276
O	 -3.452007	 0.283848	 -0.965577
C	 -3.181085	 -0.079926	 0.364119
C	 -1.765924	 0.277073	 0.805136
H	 -3.327791	 -1.152017	 0.410903
H	 -3.905698	 0.375695	 1.036898
C	 -0.677594	 -0.417312	 -0.014550
H	 -1.637766	 1.358238	 0.744969
H	 -1.659588	 0.017670	 1.857098
C	 0.738335	 -0.034840	 0.421385
H	 -0.814977	 -0.178223	 -1.064632
H	 -0.802730	 -1.495410	 0.071702
C	 1.822265	 -0.738362	 -0.399735
H	 0.853533	 1.043532	 0.342250
H	 0.871597	 -0.279636	 1.474438
C	 1.608949	 -2.244896	 -0.586837
H	 2.792297	 -0.568776	 0.064995
H	 1.871916	 -0.272583	 -1.381774
C	 1.699519	 -3.064814	 0.701549
H	 2.354475	 -2.613712	 -1.287162
H	 0.642171	 -2.415622	 -1.056301
H	 2.651886	 -2.904181	 1.199878
H	 1.613477	 -4.126236	 0.489847
H	 0.911981	 -2.808800	 1.402551

	symmetry c1
}
set optking {
	frozen_dihedral = ("
		20 16 13 17,
		13 10 7 11,
		11 7 4 3,
		1 2 3 5,
		7 4 3 2
	")
}

ee = energy('scf')
oeprop('DIPOLE', 'QUADRUPOLE', 'MULLIKEN_CHARGES')
f=open( 'psi4out.xyz', 'w' )
f.write( "24  " )
f.write( str(ee) + "\n" )
f.write( MOL.save_string_xyz() )
f.close()
--------------------------------------------------------------------------

    Molecular point group: c1

    Geometry (in Angstrom), charge = 0, multiplicity = 1:

       Center              X                  Y                   Z               Mass
    ------------   -----------------  -----------------  -----------------  -----------------
           H         -2.961700931167     1.968028573845    -1.072999591576     1.007825032070
           O         -2.993044931167     1.024505573845    -0.994300591576    15.994914619560
           C         -2.722122931167     0.660731573845     0.335395408424    12.000000000000
           C         -1.306961931167     1.017730573845     0.776412408424    12.000000000000
           H         -2.868828931167    -0.411359426155     0.382179408424     1.007825032070
           H         -3.446735931167     1.116352573845     1.008174408424     1.007825032070
           C         -0.218631931167     0.323345573845    -0.043273591576    12.000000000000
           H         -1.178803931167     2.098895573845     0.716245408424     1.007825032070
           H         -1.200625931167     0.758327573845     1.828374408424     1.007825032070
           C          1.197297068833     0.705817573845     0.392661408424    12.000000000000
           H         -0.356014931167     0.562434573845    -1.093355591576     1.007825032070
           H         -0.343767931167    -0.754752426155     0.042978408424     1.007825032070
           C          2.281227068833     0.002295573845    -0.428458591576    12.000000000000
           H          1.312495068833     1.784189573845     0.313526408424     1.007825032070
           H          1.330559068833     0.461021573845     1.445714408424     1.007825032070
           C          2.067911068833    -1.504238426155    -0.615560591576    12.000000000000
           H          3.251259068833     0.171881573845     0.036271408424     1.007825032070
           H          2.330878068833     0.468074573845    -1.410497591576     1.007825032070
           C          2.158481068833    -2.324156426155     0.672825408424    12.000000000000
           H          2.813437068833    -1.873054426155    -1.315885591576     1.007825032070
           H          1.101133068833    -1.674964426155    -1.085024591576     1.007825032070
           H          3.110848068833    -2.163523426155     1.171154408424     1.007825032070
           H          2.072439068833    -3.385578426155     0.461123408424     1.007825032070
           H          1.370943068833    -2.068142426155     1.373827408424     1.007825032070

  Charge       = 0
  Multiplicity = 1
  Basis Set: 6-31G*
  Basis Set:

    Orbital Energies (a.u.)
    -----------------------

    Doubly Occupied:

       1A    -20.553622     2A    -11.267701     3A    -11.217302
       4A    -11.212363     5A    -11.212115     6A    -11.211254
       7A    -11.210251     8A    -11.207307     9A     -1.360211
      10A     -1.091141    11A     -1.045040    12A     -0.984034
      13A     -0.916380    14A     -0.853009    15A     -0.811389
      16A     -0.759545    17A     -0.680653    18A     -0.653958
      19A     -0.624036    20A     -0.618048    21A     -0.610637
      22A     -0.573721    23A     -0.555564    24A     -0.544576
      25A     -0.521992    26A     -0.510731    27A     -0.493655
      28A     -0.475461    29A     -0.468764    30A     -0.461099
      31A     -0.449823    32A     -0.444242    33A     -0.420199

  @DF-RHF Final Energy:  -349.24366808396422

   => Energetics <=

    Nuclear Repulsion Energy =            394.8822177432066951
    One-Electron Energy =               -1256.2127712762421652
    Two-Electron Energy =                 512.0868854490714739
    DFT Exchange-Correlation Energy =       0.0000000000000000
    Empirical Dispersion Energy =           0.0000000000000000
    PCM Polarization Energy =               0.0000000000000000
    EFP Energy =                            0.0000000000000000
    Total Energy =                       -349.2436680839640530

  Mulliken Charges: (a.u.)
   Center  Symbol    Alpha    Beta     Spin     Total
       1     H     0.28337  0.28337  0.00000  0.43327
       2     O     4.36837  4.36837  0.00000 -0.73673
       3     C     2.99605  2.99605  0.00000  0.00789
       4     C     3.16794  3.16794  0.00000 -0.33587
       5     H     0.41655  0.41655  0.00000  0.16690
       6     H     0.42820  0.42820  0.00000  0.14361
       7     C     3.15710  3.15710  0.00000 -0.31421
       8     H     0.42855  0.42855  0.00000  0.14290
       9     H     0.42259  0.42259  0.00000  0.15483
      10     C     3.15438  3.15438  0.00000 -0.30876
      11     H     0.41234  0.41234  0.00000  0.17531
      12     H     0.42037  0.42037  0.00000  0.15925
      13     C     3.15219  3.15219  0.00000 -0.30438
      14     H     0.42211  0.42211  0.00000  0.15578
      15     H     0.42401  0.42401  0.00000  0.15198
      16     C     3.15939  3.15939  0.00000 -0.31878
      17     H     0.42279  0.42279  0.00000  0.15443
      18     H     0.42210  0.42210  0.00000  0.15580
      19     C     3.24063  3.24063  0.00000 -0.48126
      20     H     0.42039  0.42039  0.00000  0.15923
      21     H     0.41772  0.41772  0.00000  0.16456
      22     H     0.42209  0.42209  0.00000  0.15582
      23     H     0.41918  0.41918  0.00000  0.16165
      24     H     0.42160  0.42160  0.00000  0.15681

   Total alpha = 33.00000, Total beta = 33.00000, Total charge = -0.00000
