  ==> Input File <==

--------------------------------------------------------------------------
set {
	reference rhf
	basis 6-31G*
}

set_num_threads( 4 )
memory 2 gb

molecule MOL {
0 1

H	 1.148083	 -1.049780	 0.784252
O	 1.319262	 -0.618148	 -0.041729
C	 0.709265	 0.639550	 -0.033818
C	 1.367396	 1.638938	 0.880876
H	 -0.315109	 0.476821	 0.281429
H	 0.662731	 1.053427	 -1.040578
C	 2.326623	 1.366435	 1.742498
H	 0.993830	 2.647825	 0.796744
H	 2.710041	 0.369840	 1.865867
H	 2.752603	 2.131857	 2.365912

	symmetry c1
}
set optking {
	frozen_dihedral = ("
		5 3 2 1
	")
}

ee = optimize('scf')
oeprop('DIPOLE', 'QUADRUPOLE', 'MULLIKEN_CHARGES')
f=open( 'psi4out.xyz', 'w' )
f.write( "10  " )
f.write( str(ee) + "\n" )
f.write( MOL.save_string_xyz() )
f.close()
--------------------------------------------------------------------------

    Molecular point group: c1
  Charge       = 0
  Multiplicity = 1
  Basis Set: 6-31G*
  Basis Set:
  @DF-RHF Final Energy:  -191.91432369451996
    Total Energy =                       -191.9143236945200783
    Molecular point group: c1
  Basis Set: 6-31G*
  Basis Set:
  Basis Set: 6-31G*
  Basis Set:
  @DF-RHF Final Energy:  -191.91632325632975
    Total Energy =                       -191.9163232563297470
  Basis Set: 6-31G*
  Basis Set:
  Basis Set: 6-31G*
  Basis Set:
  @DF-RHF Final Energy:  -191.91702763710981
    Total Energy =                       -191.9170276371099817
  Basis Set: 6-31G*
  Basis Set:
  Basis Set: 6-31G*
  Basis Set:
  @DF-RHF Final Energy:  -191.91707057690039
    Total Energy =                       -191.9170705769003007
  Basis Set: 6-31G*
  Basis Set:
  Basis Set: 6-31G*
  Basis Set:
  @DF-RHF Final Energy:  -191.91707698045749
    Total Energy =                       -191.9170769804574377
  Basis Set: 6-31G*
  Basis Set:
  Charge       = 0
  Multiplicity = 1
  Basis Set: 6-31G*
  Basis Set:

    Orbital Energies (a.u.)
    -----------------------

    Doubly Occupied:

       1A    -20.560787     2A    -11.278547     3A    -11.228931
       4A    -11.217090     5A     -1.369223     6A     -1.056456
       7A     -0.927476     8A     -0.766587     9A     -0.690756
      10A     -0.659438    11A     -0.614550    12A     -0.570987
      13A     -0.532693    14A     -0.495567    15A     -0.446232
      16A     -0.363005

  @DF-RHF Final Energy:  -191.91707711001402

   => Energetics <=

    Nuclear Repulsion Energy =            119.3428820140325257
    One-Electron Energy =                -496.9632629943657776
    Two-Electron Energy =                 185.7033038703192460
    DFT Exchange-Correlation Energy =       0.0000000000000000
    Empirical Dispersion Energy =           0.0000000000000000
    PCM Polarization Energy =               0.0000000000000000
    EFP Energy =                            0.0000000000000000
    Total Energy =                       -191.9170771100140200
    Molecular point group: c1
  Basis Set: 6-31G*
  Basis Set:

  -Total Gradient:
     Atom            X                  Y                   Z
    ------   -----------------  -----------------  -----------------
       1       -0.000881465253    -0.000438525133    -0.000552647126
       2        0.001138261969     0.000542149621     0.000965644855
       3       -0.000440673781    -0.000274899358    -0.001346711109
       4        0.000046897501     0.000036442185    -0.000069588353
       5        0.000131187315     0.000115667554     0.000956529250
       6        0.000011866777     0.000029939930     0.000016078582
       7        0.000045710473     0.000027338363    -0.000037939808
       8       -0.000014682371    -0.000006949182     0.000023414365
       9       -0.000015359782    -0.000015795016     0.000018697299
      10       -0.000021742847    -0.000015368962     0.000026522046

  **** Optimization is complete! (in 6 steps) ****
    Final optimized geometry and variables:
    Molecular point group: c1

    Geometry (in Angstrom), charge = 0, multiplicity = 1:

    H           -0.417766240300    -1.746248125942     0.197830182905
    O           -0.123045477913    -1.320236706349    -0.595083224212
    C           -0.684202349214    -0.041295577820    -0.665515962026
    C           -0.078613691110     0.947027481865     0.296695746866
    H           -1.760345774619    -0.080771112990    -0.500441233088
    H           -0.535990076893     0.302738237062    -1.682746741669
    C            0.964955173390     0.717093694596     1.067445395472
    H           -0.566344480806     1.909331654267     0.326815386603
    H            1.481882100274    -0.224896917880     1.050245797591
    H            1.344549471028     1.470254480879     1.734288881071

  Mulliken Charges: (a.u.)
   Center  Symbol    Alpha    Beta     Spin     Total
       1     H     0.28019  0.28019  0.00000  0.43961
       2     O     4.36665  4.36665  0.00000 -0.73331
       3     C     3.00213  3.00213  0.00000 -0.00426
       4     C     3.09245  3.09245  0.00000 -0.18490
       5     H     0.42595  0.42595  0.00000  0.14811
       6     H     0.40855  0.40855  0.00000  0.18290
       7     C     3.19588  3.19588  0.00000 -0.39176
       8     H     0.41117  0.41117  0.00000  0.17765
       9     H     0.40518  0.40518  0.00000  0.18964
      10     H     0.41184  0.41184  0.00000  0.17632

   Total alpha = 16.00000, Total beta = 16.00000, Total charge = -0.00000
