                              Psi4 1.0.54 Driver

  ==> Input File <==

--------------------------------------------------------------------------
set {
	reference rhf
	basis cc-pvtz
}

set_num_threads( 4 )
memory 2 gb

molecule MOL {
0 1

H	 3.733458	 -0.909733	 0.011750
O	 2.836357	 -1.129893	 0.212834
C	 2.076458	 -0.067370	 -0.038225
C	 0.626018	 -0.337582	 0.258241
O	 2.528957	 0.946579	 -0.444418
C	 -0.267326	 0.883135	 0.076490
H	 0.325620	 -1.161483	 -0.378003
H	 0.574537	 -0.713685	 1.275261
C	 -1.726822	 0.642622	 0.463839
H	 -0.210803	 1.217591	 -0.953497
H	 0.129920	 1.693110	 0.675679
C	 -2.480891	 -0.340606	 -0.429852
H	 -2.243098	 1.597649	 0.438609
H	 -1.776542	 0.301208	 1.495542
C	 -3.955933	 -0.460128	 -0.060472
H	 -2.393755	 -0.020485	 -1.464726
H	 -2.024244	 -1.323637	 -0.374360
H	 -4.467673	 -1.160944	 -0.709827
H	 -4.458917	 0.497287	 -0.144505
H	 -4.076458	 -0.806900	 0.960497

	symmetry c1
}
set optking {
	frozen_dihedral = ("
		5 3 4 7
	")
}

ee,wfn = optimize('scf', return_wfn=True)
oeprop( wfn, 'DIPOLE', 'QUADRUPOLE', 'MULLIKEN_CHARGES')
f=open( 'psi4out.xyz', 'w' )
f.write( "20  " )
f.write( str(ee) + "\n" )
f.write( MOL.save_string_xyz() )
f.close()
--------------------------------------------------------------------------

    Molecular point group: c1
  Charge       = 0
  Multiplicity = 1
  Basis Set: CC-PVTZ
  Basis Set:
  @DF-RHF Final Energy:  -384.09500558258645
    Total Energy =                       -384.0950055825862819
    Molecular point group: c1
  Basis Set: CC-PVTZ
  Basis Set:
  Basis Set: CC-PVTZ
  Basis Set:
  @DF-RHF Final Energy:  -384.09493065621410
    Total Energy =                       -384.0949306562142738
  Basis Set: CC-PVTZ
  Basis Set:
  Basis Set: CC-PVTZ
  Basis Set:
  @DF-RHF Final Energy:  -384.09501255957514
    Total Energy =                       -384.0950125595750251
  Basis Set: CC-PVTZ
  Basis Set:
  Basis Set: CC-PVTZ
  Basis Set:
  @DF-RHF Final Energy:  -384.09501410134249
    Total Energy =                       -384.0950141013421444
  Basis Set: CC-PVTZ
  Basis Set:
  Charge       = 0
  Multiplicity = 1
  Basis Set: CC-PVTZ
  Basis Set:

    Orbital Energies (a.u.)
    -----------------------

    Doubly Occupied:

       1A    -20.603856     2A    -20.540419     3A    -11.373387
       4A    -11.238644     5A    -11.221063     6A    -11.218792
       7A    -11.218181     8A    -11.210562     9A     -1.477408
      10A     -1.368922    11A     -1.097575    12A     -1.042225
      13A     -0.962530    14A     -0.870340    15A     -0.817933
      16A     -0.777919    17A     -0.703614    18A     -0.692969
      19A     -0.666934    20A     -0.636997    21A     -0.605155
      22A     -0.596497    23A     -0.577024    24A     -0.556965
      25A     -0.540998    26A     -0.513806    27A     -0.495973
      28A     -0.484628    29A     -0.471559    30A     -0.468243
      31A     -0.458471    32A     -0.446268

  @DF-RHF Final Energy:  -384.09501384253531

   => Energetics <=

    Nuclear Repulsion Energy =            376.6181983316589594
    One-Electron Energy =               -1269.5147031286869606
    Two-Electron Energy =                 508.8014909544924080
    DFT Exchange-Correlation Energy =       0.0000000000000000
    Empirical Dispersion Energy =           0.0000000000000000
    PCM Polarization Energy =               0.0000000000000000
    EFP Energy =                            0.0000000000000000
    Total Energy =                       -384.0950138425355931
    Molecular point group: c1
  Basis Set: CC-PVTZ
  Basis Set:

  -Total Gradient:
     Atom            X                  Y                   Z
    ------   -----------------  -----------------  -----------------
       1        0.000025067262     0.000006369623     0.000046515146
       2        0.000008982176    -0.000021627358    -0.000047508823
       3        0.000058817469     0.000109986301     0.000309272366
       4       -0.000014872036    -0.000164095301    -0.000114569202
       5       -0.000061693046    -0.000081978710    -0.000193222358
       6        0.000018894229     0.000053012733     0.000175757406
       7       -0.000081973085     0.000029679519    -0.000101083602
       8        0.000034807094     0.000049358059    -0.000041356414
       9       -0.000025539276     0.000047073919    -0.000047794462
      10        0.000005367609    -0.000013583784     0.000001509207
      11        0.000000722337     0.000017123435    -0.000001291917
      12        0.000014014597    -0.000022901176     0.000020529660
      13       -0.000020518148     0.000002284361    -0.000007676647
      14        0.000001929431     0.000012111882    -0.000005184950
      15        0.000001794173    -0.000002839285    -0.000002059935
      16       -0.000003292894     0.000004216833     0.000018373402
      17        0.000037013826    -0.000025148197    -0.000007106537
      18       -0.000003994874    -0.000000689273    -0.000005579712
      19        0.000001819975     0.000006839300     0.000002898320
      20        0.000002653185    -0.000005192883    -0.000000420947

  **** Optimization is complete! (in 5 steps) ****
    Final optimized geometry and variables:
    Molecular point group: c1

    Geometry (in Angstrom), charge = 0, multiplicity = 1:

    H            3.727612083346    -0.922550679331    -0.012881096633
    O            2.831332020306    -1.138514872224     0.196377386100
    C            2.074957491181    -0.070331492327    -0.041209949415
    C            0.624630327654    -0.336802380541     0.259210347640
    O            2.528821422377     0.943664679966    -0.445888201681
    C           -0.266295101513     0.885737951801     0.076596879390
    H            0.322591196510    -1.158325583066    -0.380086716379
    H            0.571020476556    -0.714797138426     1.274921140256
    C           -1.726833719704     0.647368403537     0.461507980985
    H           -0.207078874075     1.220401718427    -0.952948101332
    H            0.130936397918     1.695143539707     0.677011949550
    C           -2.479217586159    -0.338496851142    -0.430811844915
    H           -2.242588729179     1.602576077832     0.432005181480
    H           -1.779205570135     0.309319873001     1.494199083056
    C           -3.953645384401    -0.461762125820    -0.059917630478
    H           -2.393838546434    -0.018938367468    -1.466008624498
    H           -2.019876767120    -1.320294257625    -0.375040285161
    H           -4.463699881475    -1.165824073467    -0.707096740807
    H           -4.459761478590     0.493836758689    -0.145964195915
    H           -4.072324130763    -0.806348827863     0.962022127746

  Mulliken Charges: (a.u.)
   Center  Symbol    Alpha    Beta     Spin     Total
       1     H     0.38236  0.38236  0.00000  0.23528
       2     O     4.16023  4.16023  0.00000 -0.32046
       3     C     2.80364  2.80364  0.00000  0.39272
       4     C     3.11175  3.11175  0.00000 -0.22351
       5     O     4.19136  4.19136  0.00000 -0.38271
       6     C     3.09265  3.09265  0.00000 -0.18529
       7     H     0.43752  0.43752  0.00000  0.12496
       8     H     0.43743  0.43743  0.00000  0.12513
       9     C     3.09914  3.09914  0.00000 -0.19828
      10     H     0.44495  0.44495  0.00000  0.11009
      11     H     0.44005  0.44005  0.00000  0.11990
      12     C     3.08697  3.08697  0.00000 -0.17395
      13     H     0.44552  0.44552  0.00000  0.10896
      14     H     0.45403  0.45403  0.00000  0.09194
      15     C     3.14956  3.14956  0.00000 -0.29913
      16     H     0.45237  0.45237  0.00000  0.09526
      17     H     0.45432  0.45432  0.00000  0.09136
      18     H     0.44771  0.44771  0.00000  0.10458
      19     H     0.45360  0.45360  0.00000  0.09280
      20     H     0.45482  0.45482  0.00000  0.09035

   Total alpha = 32.00000, Total beta = 32.00000, Total charge =  0.00000

*** Psi4 exiting successfully. Buy a developer a beer!
