  ==> Input File <==

--------------------------------------------------------------------------
set {
	reference rhf
	basis 6-31G*
}

set_num_threads( 4 )
memory 2 gb

molecule MOL {
0 1

H	 3.300686	 -0.424974	 0.019734
C	 2.240608	 -0.244311	 0.015492
C	 1.495484	 -0.535789	 -1.120594
C	 1.626680	 0.277256	 1.142007
H	 1.979279	 -0.940430	 -1.991073
C	 0.133897	 -0.304995	 -1.129436
H	 2.206316	 0.501471	 2.018931
C	 0.260640	 0.508339	 1.131874
H	 -0.459777	 -0.523410	 -1.997190
C	 -0.488460	 0.219100	 0.000000
H	 -0.222326	 0.913622	 2.004477
C	 -1.949954	 0.470334	 0.000000
O	 -2.781584	 -0.381627	 0.000000
H	 -2.238022	 1.526388	 0.000000

	symmetry c1
}
set optking {
	frozen_dihedral = ("
		8 10 12 14
	")
}

ee = optimize('scf')
oeprop('DIPOLE', 'QUADRUPOLE', 'MULLIKEN_CHARGES')
f=open( 'psi4out.xyz', 'w' )
f.write( "14  " )
f.write( str(ee) + "\n" )
f.write( MOL.save_string_xyz() )
f.close()
--------------------------------------------------------------------------

    Molecular point group: c1
  Charge       = 0
  Multiplicity = 1
  Basis Set: 6-31G*
  Basis Set:
  @DF-RHF Final Energy:  -343.42024583646452
    Total Energy =                       -343.4202458364644599
    Molecular point group: c1
  Basis Set: 6-31G*
  Basis Set:
  Basis Set: 6-31G*
  Basis Set:
  @DF-RHF Final Energy:  -343.41874853517936
    Total Energy =                       -343.4187485351791338
  Basis Set: 6-31G*
  Basis Set:
  Basis Set: 6-31G*
  Basis Set:
  @DF-RHF Final Energy:  -343.42087994352778
    Total Energy =                       -343.4208799435278365
  Basis Set: 6-31G*
  Basis Set:
  Basis Set: 6-31G*
  Basis Set:
  @DF-RHF Final Energy:  -343.42097598923158
    Total Energy =                       -343.4209759892314651
  Basis Set: 6-31G*
  Basis Set:
  Basis Set: 6-31G*
  Basis Set:
  @DF-RHF Final Energy:  -343.42097722496209
    Total Energy =                       -343.4209772249621437
  Basis Set: 6-31G*
  Basis Set:
  Charge       = 0
  Multiplicity = 1
  Basis Set: 6-31G*
  Basis Set:

    Orbital Energies (a.u.)
    -----------------------

    Doubly Occupied:

       1A    -20.571135     2A    -11.335281     3A    -11.250514
       4A    -11.248562     5A    -11.246375     6A    -11.244548
       7A    -11.243353     8A    -11.242399     9A     -1.410262
      10A     -1.168883    11A     -1.044537    12A     -1.028943
      13A     -0.886880    14A     -0.840780    15A     -0.794171
      16A     -0.720454    17A     -0.676514    18A     -0.651582
      19A     -0.636354    20A     -0.616406    21A     -0.600566
      22A     -0.535808    23A     -0.527489    24A     -0.509702
      25A     -0.501909    26A     -0.422062    27A     -0.346667
      28A     -0.345749

  @DF-RHF Final Energy:  -343.42097750235882

   => Energetics <=

    Nuclear Repulsion Energy =            322.6720766089587187
    One-Electron Energy =               -1104.8903394783551448
    Two-Electron Energy =                 438.7972853670376026
    DFT Exchange-Correlation Energy =       0.0000000000000000
    Empirical Dispersion Energy =           0.0000000000000000
    PCM Polarization Energy =               0.0000000000000000
    EFP Energy =                            0.0000000000000000
    Total Energy =                       -343.4209775023588236
    Molecular point group: c1
  Basis Set: 6-31G*
  Basis Set:

  -Total Gradient:
     Atom            X                  Y                   Z
    ------   -----------------  -----------------  -----------------
       1        0.000000650791    -0.000008994720    -0.000003143670
       2       -0.000002642304     0.000019400546     0.000033425807
       3       -0.000022788162     0.000002150336    -0.000014088824
       4        0.000051416264    -0.000009907321    -0.000019702523
       5        0.000007054179    -0.000001611620     0.000005770907
       6        0.000036839849     0.000008478633    -0.000020910725
       7       -0.000000511625    -0.000000024299    -0.000002412816
       8       -0.000722746704    -0.004779458352     0.001571703132
       9       -0.000000971904     0.000006736494     0.000009086918
      10        0.000947204804     0.007047658708    -0.004323830141
      11       -0.000001460098     0.000002447012    -0.000001951599
      12       -0.000284204551    -0.002498375379     0.008983611382
      13        0.000010527743     0.000028445083     0.000001292092
      14       -0.000018368272     0.000183054879    -0.006218849939

  **** Optimization is complete! (in 6 steps) ****
    Final optimized geometry and variables:
    Molecular point group: c1

    Geometry (in Angstrom), charge = 0, multiplicity = 1:

    H            3.297652919261    -0.447670008540     0.022104666129
    C            2.240387873781    -0.252137873557     0.018946563540
    C            1.486869429387    -0.534316932739    -1.109785824272
    C            1.630205488423     0.275243000147     1.145517807508
    H            1.957714665778    -0.951714757571    -1.981493749165
    C            0.123441027080    -0.293742727073    -1.111922524464
    H            2.210052506876     0.481918521215     2.026874497909
    C            0.269590468626     0.534586646999     1.138039433977
    H           -0.467758773202    -0.535925574269    -1.976469748538
    C           -0.485272176578     0.261971492461     0.005510255382
    H           -0.201217288921     0.947786590291     2.013455737484
    C           -1.968489680719     0.472291781367     0.016066121423
    O           -2.756095857608    -0.411414249620    -0.086462067521
    H           -2.308830980057     1.511525018951     0.048820473037

  Mulliken Charges: (a.u.)
   Center  Symbol    Alpha    Beta     Spin     Total
       1     H     0.39568  0.39568  0.00000  0.20864
       2     C     3.09695  3.09695  0.00000 -0.19390
       3     C     3.09977  3.09977  0.00000 -0.19955
       4     C     3.09911  3.09911  0.00000 -0.19821
       5     H     0.39503  0.39503  0.00000  0.20995
       6     C     3.09791  3.09791  0.00000 -0.19582
       7     H     0.39540  0.39540  0.00000  0.20921
       8     C     3.10430  3.10430  0.00000 -0.20860
       9     H     0.38828  0.38828  0.00000  0.22345
      10     C     3.03364  3.03364  0.00000 -0.06727
      11     H     0.39394  0.39394  0.00000  0.21213
      12     C     2.85250  2.85250  0.00000  0.29500
      13     O     4.22439  4.22439  0.00000 -0.44879
      14     H     0.42311  0.42311  0.00000  0.15377

   Total alpha = 28.00000, Total beta = 28.00000, Total charge =  0.00000
