  ==> Input File <==

--------------------------------------------------------------------------
set {
	reference rhf
	basis 6-31G*
}

set_num_threads( 4 )
memory 2 gb

molecule MOL {
0 1

O	 2.862325	 1.357334	 0.000267
C	 2.843464	 0.164689	 -0.000222
C	 1.546494	 -0.624492	 -0.000609
C	 4.124123	 -0.644674	 -0.000428
C	 0.291004	 0.242674	 0.000989
H	 1.557904	 -1.283758	 -0.867573
H	 1.558622	 -1.285963	 0.864672
C	 0.473578	 1.540089	 -0.788406
H	 0.016853	 0.469802	 1.026359
H	 -0.535559	 -0.327278	 -0.411439
C	 -0.778731	 2.418403	 -0.792572
H	 1.306193	 2.105032	 -0.371705
H	 0.749964	 1.305048	 -1.815262
C	 -0.603970	 3.718142	 -1.580069
H	 -1.055532	 2.654571	 0.233403
H	 -1.611511	 1.854971	 -1.209727
C	 -1.859040	 4.590198	 -1.579424
H	 0.227453	 4.282781	 -1.163246
H	 -0.328735	 3.483327	 -2.606211
H	 -2.141033	 4.870501	 -0.568454
H	 -1.703942	 5.503999	 -2.144767
H	 -2.700882	 4.065832	 -2.022693
H	 4.165367	 -1.288615	 -0.874074
H	 4.976217	 0.020734	 -0.001915
H	 4.166763	 -1.286207	 0.874930

	symmetry c1
}
set optking {
	frozen_dihedral = ("
		9 5 3 6
	")
}

ee = optimize('scf')
oeprop('DIPOLE', 'QUADRUPOLE', 'MULLIKEN_CHARGES')
f=open( 'psi4out.xyz', 'w' )
f.write( "25  " )
f.write( str(ee) + "\n" )
f.write( MOL.save_string_xyz() )
f.close()
--------------------------------------------------------------------------

    Molecular point group: c1
  Charge       = 0
  Multiplicity = 1
  Basis Set: 6-31G*
  Basis Set:
  @DF-RHF Final Energy:  -387.11148517086872
    Total Energy =                       -387.1114851708678088
    Molecular point group: c1
  Basis Set: 6-31G*
  Basis Set:
  Basis Set: 6-31G*
  Basis Set:
  @DF-RHF Final Energy:  -387.12570059552081
    Total Energy =                       -387.1257005955203567
  Basis Set: 6-31G*
  Basis Set:
  Basis Set: 6-31G*
  Basis Set:
  @DF-RHF Final Energy:  -387.12910167054230
    Total Energy =                       -387.1291016705422408
  Basis Set: 6-31G*
  Basis Set:
  Basis Set: 6-31G*
  Basis Set:
  @DF-RHF Final Energy:  -387.12857882744680
    Total Energy =                       -387.1285788274471997
  Basis Set: 6-31G*
  Basis Set:
  @DF-RHF Final Energy:  -387.13066654685917
    Total Energy =                       -387.1306665468591746
  @DF-RHF Final Energy:  -387.13139022042816
    Total Energy =                       -387.1313902204281021
  @DF-RHF Final Energy:  -387.13163739280299
    Total Energy =                       -387.1316373928024177
  Basis Set: 6-31G*
  Basis Set:
  @DF-RHF Final Energy:  -387.13166780347279
    Total Energy =                       -387.1316678034725101
  Basis Set: 6-31G*
  Basis Set:
  Basis Set: 6-31G*
  Basis Set:
  @DF-RHF Final Energy:  -387.13168422027564
    Total Energy =                       -387.1316842202760427
  Basis Set: 6-31G*
  Basis Set:
  Basis Set: 6-31G*
  Basis Set:
  @DF-RHF Final Energy:  -387.13168712585565
    Total Energy =                       -387.1316871258561605
  Basis Set: 6-31G*
  Basis Set:
  Charge       = 0
  Multiplicity = 1
  Basis Set: 6-31G*
  Basis Set:

    Orbital Energies (a.u.)
    -----------------------

    Doubly Occupied:

       1A    -20.549187     2A    -11.327366     3A    -11.232574
       4A    -11.228763     5A    -11.221503     6A    -11.211796
       7A    -11.210499     8A    -11.209264     9A    -11.205868
      10A     -1.395361    11A     -1.089932    12A     -1.054353
      13A     -1.013435    14A     -0.968042    15A     -0.890000
      16A     -0.817232    17A     -0.788382    18A     -0.725687
      19A     -0.664721    20A     -0.639657    21A     -0.630184
      22A     -0.621635    23A     -0.595741    24A     -0.584627
      25A     -0.567216    26A     -0.560256    27A     -0.535556
      28A     -0.528810    29A     -0.513460    30A     -0.495197
      31A     -0.482147    32A     -0.471882    33A     -0.460978
      34A     -0.458348    35A     -0.440395    36A     -0.398574

  @DF-RHF Final Energy:  -387.13168739286743

   => Energetics <=

    Nuclear Repulsion Energy =            448.7056584403421766
    One-Electron Energy =               -1414.0974321065218646
    Two-Electron Energy =                 578.2600862733115719
    DFT Exchange-Correlation Energy =       0.0000000000000000
    Empirical Dispersion Energy =           0.0000000000000000
    PCM Polarization Energy =               0.0000000000000000
    EFP Energy =                            0.0000000000000000
    Total Energy =                       -387.1316873928681161
    Molecular point group: c1
  Basis Set: 6-31G*
  Basis Set:

  -Total Gradient:
     Atom            X                  Y                   Z
    ------   -----------------  -----------------  -----------------
       1        0.000006849768    -0.000002334720     0.000000522656
       2        0.000027077317    -0.000011224758     0.000009665312
       3        0.003544315309     0.004330060429    -0.004428495083
       4       -0.000000599712     0.000052820341    -0.000017726107
       5        0.004286566589     0.005397379449     0.000629094683
       6       -0.003635605966    -0.004495479860     0.003571076032
       7       -0.000005629935     0.000010582176     0.000011561666
       8       -0.000011414735    -0.000011071860     0.000006244751
       9       -0.004206957018    -0.005258430638     0.000211803369
      10        0.000001854031     0.000005255719    -0.000013708634
      11        0.000010006096    -0.000001564520     0.000003835083
      12       -0.000003944217    -0.000010633906     0.000012881290
      13        0.000008565655    -0.000003735013    -0.000024396103
      14       -0.000000995014     0.000000301470     0.000009423290
      15        0.000003269076     0.000002375910     0.000005934866
      16       -0.000011640988     0.000009966126     0.000007753668
      17       -0.000004099821    -0.000005118008    -0.000018010039
      18       -0.000003774628     0.000002955431     0.000007158799
      19        0.000005413526     0.000006713502     0.000001240854
      20        0.000007980162     0.000000370206    -0.000002186593
      21       -0.000003626033    -0.000001463029    -0.000004145619
      22       -0.000004500617    -0.000000763146     0.000003272750
      23       -0.000000965676    -0.000010285381    -0.000000372314
      24        0.000000509969    -0.000007156224     0.000004591957
      25       -0.000008653147     0.000000480303     0.000012979467

  **** Optimization is complete! (in 11 steps) ****
    Final optimized geometry and variables:
    Molecular point group: c1

    Geometry (in Angstrom), charge = 0, multiplicity = 1:

    O            2.084899830757    -0.341804527325     1.330014702679
    C            1.919883995298    -1.360859790542     0.731294305777
    C            0.544209777516    -1.973639013553     0.552984980412
    C            3.084739584235    -2.138137013954     0.158150858824
    C           -0.654687713493    -1.012613264882     0.551860751795
    H            0.512463225828    -2.633229537495    -0.309791198724
    H            0.435852152016    -2.652968071988     1.400377044619
    C           -0.511212659132     0.238770479655    -0.315666189434
    H           -0.921097761924    -0.758598322357     1.572815004587
    H           -1.503221136951    -1.587432757638     0.184505169161
    C           -1.808729208755     1.045567881762    -0.394921232566
    H            0.281184455969     0.865843847075     0.073542678968
    H           -0.213147823637    -0.056906710624    -1.321836755356
    C           -1.681825248875     2.307175691783    -1.250677140724
    H           -2.118286111965     1.325472227355     0.610710352273
    H           -2.604508807502     0.419221212505    -0.795556181459
    C           -2.979613980111     3.110719238228    -1.326647525680
    H           -0.890885773669     2.935883178817    -0.848131630141
    H           -1.369871872014     2.030655280155    -2.255786101196
    H           -3.299209883264     3.432888713782    -0.339598199158
    H           -2.858188779790     3.997982422423    -1.940461090054
    H           -3.783162444225     2.518900679691    -1.756283925743
    H            3.038893124420    -2.116277962733    -0.927357587243
    H            4.016977046816    -1.700171454411     0.486620879422
    H            3.039692066450    -3.180170652112     0.460858950563

  Mulliken Charges: (a.u.)
   Center  Symbol    Alpha    Beta     Spin     Total
       1     O     4.26499  4.26499  0.00000 -0.52999
       2     C     2.73133  2.73133  0.00000  0.53734
       3     C     3.21542  3.21542  0.00000 -0.43084
       4     C     3.28829  3.28829  0.00000 -0.57658
       5     C     3.14603  3.14603  0.00000 -0.29205
       6     H     0.41211  0.41211  0.00000  0.17577
       7     H     0.40288  0.40288  0.00000  0.19424
       8     C     3.16114  3.16114  0.00000 -0.32229
       9     H     0.41273  0.41273  0.00000  0.17455
      10     H     0.42165  0.42165  0.00000  0.15671
      11     C     3.15192  3.15192  0.00000 -0.30384
      12     H     0.40067  0.40067  0.00000  0.19867
      13     H     0.42925  0.42925  0.00000  0.14150
      14     C     3.15146  3.15146  0.00000 -0.30291
      15     H     0.42246  0.42246  0.00000  0.15508
      16     H     0.42627  0.42627  0.00000  0.14745
      17     C     3.23926  3.23926  0.00000 -0.47853
      18     H     0.42072  0.42072  0.00000  0.15857
      19     H     0.42432  0.42432  0.00000  0.15136
      20     H     0.42151  0.42151  0.00000  0.15698
      21     H     0.41966  0.41966  0.00000  0.16068
      22     H     0.42275  0.42275  0.00000  0.15450
      23     H     0.40653  0.40653  0.00000  0.18694
      24     H     0.39699  0.39699  0.00000  0.20602
      25     H     0.40967  0.40967  0.00000  0.18066

   Total alpha = 36.00000, Total beta = 36.00000, Total charge =  0.00000
