                              Psi4 1.0.54 Driver

  ==> Input File <==

--------------------------------------------------------------------------
set {
	reference rhf
	basis cc-pvtz
}

set_num_threads( 4 )
memory 2 gb

molecule MOL {
0 1

H	 -2.642241	 0.708167	 0.202964
O	 -2.313989	 -0.142475	 -0.025864
C	 -0.943808	 -0.065018	 -0.330000
H	 -0.812293	 -0.225641	 -1.398673
C	 -0.231030	 -1.182113	 0.407592
C	 -0.353797	 1.300461	 0.050970
H	 -0.312800	 -0.992012	 1.473041
H	 -0.738841	 -2.119564	 0.220514
C	 1.246176	 -1.268044	 -0.015480
H	 -0.539537	 2.008579	 -0.751815
H	 -0.889989	 1.662858	 0.920677
C	 1.153605	 1.231851	 0.356834
H	 1.823096	 -1.684665	 0.802361
H	 1.352335	 -1.958223	 -0.845114
C	 1.826409	 0.100723	 -0.416008
H	 1.622968	 2.181508	 0.128734
H	 1.301983	 1.066493	 1.419367
H	 2.897299	 0.112407	 -0.249665
H	 1.683458	 0.265621	 -1.480024

	symmetry c1
}
set optking {
	frozen_dihedral = ("
		1 2 3 4
	")
}

ee,wfn = optimize('scf', return_wfn=True)
oeprop( wfn, 'DIPOLE', 'QUADRUPOLE', 'MULLIKEN_CHARGES')
f=open( 'psi4out.xyz', 'w' )
f.write( "19  " )
f.write( str(ee) + "\n" )
f.write( MOL.save_string_xyz() )
f.close()
--------------------------------------------------------------------------

    Molecular point group: c1
  Charge       = 0
  Multiplicity = 1
  Basis Set: CC-PVTZ
  Basis Set:
  @DF-RHF Final Energy:  -309.16152454349225
    Total Energy =                       -309.1615245434925328
    Molecular point group: c1
  Basis Set: CC-PVTZ
  Basis Set:
  Basis Set: CC-PVTZ
  Basis Set:
  @DF-RHF Final Energy:  -309.16171329050775
    Total Energy =                       -309.1617132905077483
  Basis Set: CC-PVTZ
  Basis Set:
  Basis Set: CC-PVTZ
  Basis Set:
  @DF-RHF Final Energy:  -309.16181526574667
    Total Energy =                       -309.1618152657468954
  Basis Set: CC-PVTZ
  Basis Set:
  Charge       = 0
  Multiplicity = 1
  Basis Set: CC-PVTZ
  Basis Set:

    Orbital Energies (a.u.)
    -----------------------

    Doubly Occupied:

       1A    -20.541168     2A    -11.267134     3A    -11.219494
       4A    -11.218444     5A    -11.215135     6A    -11.213615
       7A    -11.206150     8A     -1.361560     9A     -1.111872
      10A     -1.005704    11A     -0.990230    12A     -0.847410
      13A     -0.840842    14A     -0.743999    15A     -0.679814
      16A     -0.670034    17A     -0.624590    18A     -0.602618
      19A     -0.582807    20A     -0.552280    21A     -0.529314
      22A     -0.521522    23A     -0.502580    24A     -0.486914
      25A     -0.469725    26A     -0.450407    27A     -0.427920
      28A     -0.413710

  @DF-RHF Final Energy:  -309.16181695406817

   => Energetics <=

    Nuclear Repulsion Energy =            332.0051467442904141
    One-Electron Energy =               -1077.7399367620726025
    Two-Electron Energy =                 436.5729730637141301
    DFT Exchange-Correlation Energy =       0.0000000000000000
    Empirical Dispersion Energy =           0.0000000000000000
    PCM Polarization Energy =               0.0000000000000000
    EFP Energy =                            0.0000000000000000
    Total Energy =                       -309.1618169540680583
    Molecular point group: c1
  Basis Set: CC-PVTZ
  Basis Set:

  -Total Gradient:
     Atom            X                  Y                   Z
    ------   -----------------  -----------------  -----------------
       1        0.000242406455    -0.000221714207     0.001109782742
       2       -0.000405093603     0.000013173779    -0.001308407773
       3       -0.000054227196     0.001122156776     0.000084420027
       4        0.000157644474    -0.000949369278     0.000244669091
       5       -0.000005665174    -0.000062553102    -0.000084593561
       6        0.000042801580     0.000008625153    -0.000057033179
       7       -0.000003353102     0.000010516961    -0.000045826683
       8       -0.000018795223     0.000002608354     0.000018961942
       9       -0.000015658574     0.000005445583     0.000020850907
      10        0.000009516770    -0.000000381849     0.000022708786
      11        0.000012376466    -0.000012105096    -0.000013576744
      12        0.000000318322     0.000048366253    -0.000039151063
      13        0.000000313800     0.000004808074    -0.000005852253
      14       -0.000005221506     0.000004279918     0.000025782467
      15        0.000035717037     0.000001175816     0.000022925928
      16        0.000011229372     0.000003737682     0.000027056555
      17        0.000009301310    -0.000008206315    -0.000026713591
      18       -0.000018306043     0.000007548296    -0.000017412570
      19        0.000004694834     0.000021887200     0.000021408974

  **** Optimization is complete! (in 4 steps) ****
    Final optimized geometry and variables:
    Molecular point group: c1

    Geometry (in Angstrom), charge = 0, multiplicity = 1:

    H           -2.691722034709     0.610053202524     0.148307504701
    O           -2.318817631205    -0.226442188267    -0.055680521299
    C           -0.940895538097    -0.106733172539    -0.317304982504
    H           -0.796436555876    -0.284004686146    -1.379966059126
    C           -0.182294657542    -1.181991330169     0.440591134260
    C           -0.402050719242     1.284391769822     0.035597134310
    H           -0.259955011247    -0.972895703258     1.503304020552
    H           -0.659490032537    -2.140205142010     0.279071356082
    C            1.292419121415    -1.225579832067     0.002342120095
    H           -0.632739577112     1.972835349327    -0.771090211181
    H           -0.927440903680     1.643386836705     0.916517227951
    C            1.111744426960     1.278052671538     0.318869218648
    H            1.894261741409    -1.601672899594     0.821876534635
    H            1.414520786941    -1.929875658110    -0.812963675200
    C            1.816522207703     0.154433771669    -0.436488559649
    H            1.540523041055     2.239067827580     0.061034253459
    H            1.281607470659     1.144020548301     1.382417086568
    H            2.887681565709     0.211341165188    -0.282170662320
    H            1.656308090605     0.289738548171    -1.501857044169

  Mulliken Charges: (a.u.)
   Center  Symbol    Alpha    Beta     Spin     Total
       1     H     0.39229  0.39229  0.00000  0.21542
       2     O     4.20779  4.20779  0.00000 -0.41557
       3     C     2.92305  2.92305  0.00000  0.15390
       4     H     0.45708  0.45708  0.00000  0.08583
       5     C     3.09490  3.09490  0.00000 -0.18979
       6     C     3.12536  3.12536  0.00000 -0.25072
       7     H     0.45825  0.45825  0.00000  0.08350
       8     H     0.44114  0.44114  0.00000  0.11773
       9     C     3.11410  3.11410  0.00000 -0.22819
      10     H     0.44398  0.44398  0.00000  0.11203
      11     H     0.45496  0.45496  0.00000  0.09008
      12     C     3.10032  3.10032  0.00000 -0.20064
      13     H     0.44716  0.44716  0.00000  0.10569
      14     H     0.44695  0.44695  0.00000  0.10610
      15     C     3.10255  3.10255  0.00000 -0.20510
      16     H     0.44186  0.44186  0.00000  0.11628
      17     H     0.45242  0.45242  0.00000  0.09515
      18     H     0.44267  0.44267  0.00000  0.11465
      19     H     0.45317  0.45317  0.00000  0.09365

   Total alpha = 28.00000, Total beta = 28.00000, Total charge =  0.00000

*** Psi4 exiting successfully. Buy a developer a beer!
