                              Psi4 1.0.54 Driver

  ==> Input File <==

--------------------------------------------------------------------------
set {
	reference rhf
	basis cc-pvtz
}

set_num_threads( 4 )
memory 2 gb

molecule MOL {
0 1

H	 3.273419	 0.176595	 -0.102789
N	 2.433987	 -0.362316	 -0.080024
C	 1.263552	 0.494993	 0.021953
H	 2.497638	 -0.973615	 0.707122
C	 -0.016533	 -0.325589	 -0.026925
H	 1.280915	 1.180773	 -0.818522
H	 1.263064	 1.106893	 0.925038
C	 -1.280353	 0.525521	 0.047747
H	 -0.016686	 -0.912532	 -0.939714
H	 -0.014099	 -1.037598	 0.796369
C	 -2.535395	 -0.293475	 0.330778
H	 -1.406669	 1.063219	 -0.888144
H	 -1.163721	 1.281636	 0.819474
H	 -2.699019	 -1.037227	 -0.441743
H	 -3.415360	 0.337989	 0.373968
H	 -2.456226	 -0.815602	 1.278563

	symmetry c1
}
set optking {
	frozen_dihedral = ("
		12 8 5 9
	")
}

ee,wfn = optimize('scf', return_wfn=True)
oeprop( wfn, 'DIPOLE', 'QUADRUPOLE', 'MULLIKEN_CHARGES')
f=open( 'psi4out.xyz', 'w' )
f.write( "16  " )
f.write( str(ee) + "\n" )
f.write( MOL.save_string_xyz() )
f.close()
--------------------------------------------------------------------------

    Molecular point group: c1
  Charge       = 0
  Multiplicity = 1
  Basis Set: CC-PVTZ
  Basis Set:
  @DF-RHF Final Energy:  -212.39967018225644
    Total Energy =                       -212.3996701822563864
    Molecular point group: c1
  Basis Set: CC-PVTZ
  Basis Set:
  Basis Set: CC-PVTZ
  Basis Set:
  @DF-RHF Final Energy:  -212.39975187085494
    Total Energy =                       -212.3997518708550842
  Basis Set: CC-PVTZ
  Basis Set:
  Basis Set: CC-PVTZ
  Basis Set:
  @DF-RHF Final Energy:  -212.39977552489148
    Total Energy =                       -212.3997755248915951
  Basis Set: CC-PVTZ
  Basis Set:
  Charge       = 0
  Multiplicity = 1
  Basis Set: CC-PVTZ
  Basis Set:

    Orbital Energies (a.u.)
    -----------------------

    Doubly Occupied:

       1A    -15.526494     2A    -11.237971     3A    -11.212967
       4A    -11.207929     5A    -11.205853     6A     -1.178221
       7A     -1.060593     8A     -0.959713     9A     -0.843816
      10A     -0.792273    11A     -0.664906    12A     -0.640566
      13A     -0.603012    14A     -0.580078    15A     -0.565806
      16A     -0.522177    17A     -0.503632    18A     -0.469414
      19A     -0.465675    20A     -0.461784    21A     -0.384038

  @DF-RHF Final Energy:  -212.39977581570011

   => Energetics <=

    Nuclear Repulsion Energy =            186.5693456794154770
    One-Electron Energy =                -655.7644063395246121
    Two-Electron Energy =                 256.7952848444091956
    DFT Exchange-Correlation Energy =       0.0000000000000000
    Empirical Dispersion Energy =           0.0000000000000000
    PCM Polarization Energy =               0.0000000000000000
    EFP Energy =                            0.0000000000000000
    Total Energy =                       -212.3997758156999112
    Molecular point group: c1
  Basis Set: CC-PVTZ
  Basis Set:

  -Total Gradient:
     Atom            X                  Y                   Z
    ------   -----------------  -----------------  -----------------
       1        0.000020265630    -0.000002395301     0.000002191948
       2        0.000048808894    -0.000026550363     0.000008550600
       3       -0.000048211833    -0.000010404303    -0.000018474418
       4        0.000015625207    -0.000002201599     0.000001390309
       5       -0.001687505862    -0.002512232569     0.001192190613
       6       -0.000008226380     0.000001561220     0.000012017535
       7       -0.000001691000     0.000004304593    -0.000006881007
       8        0.001805702590     0.002583422371     0.000785805202
       9        0.001120377262     0.001720180915    -0.001136252013
      10        0.000003881189     0.000015920184    -0.000006816555
      11       -0.000018314432     0.000008435193    -0.000001796780
      12       -0.001246945847    -0.001779022316    -0.000825456081
      13        0.000000111195     0.000000268945     0.000000005428
      14       -0.000000782238     0.000004387860     0.000016130021
      15        0.000004727224    -0.000020325411    -0.000002469905
      16       -0.000007821595     0.000014650584    -0.000020134901

  **** Optimization is complete! (in 4 steps) ****
    Final optimized geometry and variables:
    Molecular point group: c1

    Geometry (in Angstrom), charge = 0, multiplicity = 1:

    H            3.265252361508     0.171184116638    -0.243130783221
    N            2.426550578411    -0.367726925975    -0.200111268163
    C            1.260159957179     0.488464408450    -0.052660405877
    H            2.514547538644    -0.987059162568     0.578450969577
    C           -0.022173474644    -0.332031655120    -0.063446446736
    H            1.248643338938     1.180385963486    -0.888450462310
    H            1.290248735086     1.093977105690     0.854102441599
    C           -1.281723095633     0.528720079807     0.002479798519
    H           -0.028354643959    -0.927444828079    -0.970265478067
    H           -0.007422102251    -1.025807929899     0.774347482679
    C           -2.544634742757    -0.285946438675     0.267673088514
    H           -1.401472502169     1.055347537508    -0.939952555439
    H           -1.173517224608     1.284606713257     0.775005081824
    H           -2.686889741835    -1.044454125716    -0.494933713496
    H           -3.425860010421     0.345309739405     0.274208332895
    H           -2.491225125255    -0.790000565419     1.226834995214

  Mulliken Charges: (a.u.)
   Center  Symbol    Alpha    Beta     Spin     Total
       1     H     0.43017  0.43017  0.00000  0.13966
       2     N     3.68954  3.68954  0.00000 -0.37909
       3     C     3.02523  3.02523  0.00000 -0.05045
       4     H     0.43101  0.43101  0.00000  0.13798
       5     C     3.08092  3.08092  0.00000 -0.16183
       6     H     0.45748  0.45748  0.00000  0.08503
       7     H     0.46876  0.46876  0.00000  0.06248
       8     C     3.08854  3.08854  0.00000 -0.17708
       9     H     0.44870  0.44870  0.00000  0.10260
      10     H     0.46104  0.46104  0.00000  0.07791
      11     C     3.14922  3.14922  0.00000 -0.29845
      12     H     0.45346  0.45346  0.00000  0.09308
      13     H     0.45700  0.45700  0.00000  0.08599
      14     H     0.45415  0.45415  0.00000  0.09170
      15     H     0.44898  0.44898  0.00000  0.10203
      16     H     0.45579  0.45579  0.00000  0.08843

   Total alpha = 21.00000, Total beta = 21.00000, Total charge = -0.00000

*** Psi4 exiting successfully. Buy a developer a beer!
