  ==> Input File <==

--------------------------------------------------------------------------
set {
	reference rhf
	basis 6-31G*
}

set_num_threads( 4 )
memory 2 gb

molecule MOL {
0 1

H	 -3.650283	 0.221984	 0.000000
C	 -2.577024	 0.154109	 0.000000
C	 -1.960329	 -1.089307	 0.000000
C	 -1.811733	 1.307557	 0.000000
H	 -2.554473	 -1.985285	 0.000000
C	 -0.581547	 -1.175855	 0.000000
H	 -2.287118	 2.271701	 0.000000
C	 -0.428719	 1.219221	 0.000000
H	 -0.090826	 -2.129898	 0.000000
C	 0.198341	 -0.021559	 0.000000
H	 0.149947	 2.124040	 0.000000
C	 1.691355	 -0.173192	 0.000000
C	 2.290360	 -1.564140	 -0.000000
O	 2.399861	 0.789821	 0.000000
H	 1.976365	 -2.121286	 0.876798
H	 3.367108	 -1.474111	 -0.000000
H	 1.976365	 -2.121286	 -0.876798

	symmetry c1
}
set optking {
	frozen_dihedral = ("
		13 12 10 8
	")
}

ee = optimize('scf')
oeprop('DIPOLE', 'QUADRUPOLE', 'MULLIKEN_CHARGES')
f=open( 'psi4out.xyz', 'w' )
f.write( "17  " )
f.write( str(ee) + "\n" )
f.write( MOL.save_string_xyz() )
f.close()
--------------------------------------------------------------------------

    Molecular point group: c1
  Charge       = 0
  Multiplicity = 1
  Basis Set: 6-31G*
  Basis Set:
  @DF-RHF Final Energy:  -382.47379571532343
    Total Energy =                       -382.4737957153238312
    Molecular point group: c1
  Basis Set: 6-31G*
  Basis Set:
  Basis Set: 6-31G*
  Basis Set:
  @DF-RHF Final Energy:  -382.47546391997236
    Total Energy =                       -382.4754639199720714
  Basis Set: 6-31G*
  Basis Set:
  Basis Set: 6-31G*
  Basis Set:
  @DF-RHF Final Energy:  -382.47578594653703
    Total Energy =                       -382.4757859465371439
  Basis Set: 6-31G*
  Basis Set:
  Basis Set: 6-31G*
  Basis Set:
  @DF-RHF Final Energy:  -382.47579901288668
    Total Energy =                       -382.4757990128871370
  Basis Set: 6-31G*
  Basis Set:
  Charge       = 0
  Multiplicity = 1
  Basis Set: 6-31G*
  Basis Set:

    Orbital Energies (a.u.)
    -----------------------

    Doubly Occupied:

       1A    -20.550048     2A    -11.331679     3A    -11.248900
       4A    -11.246222     5A    -11.242953     6A    -11.240484
       7A    -11.240228     8A    -11.237874     9A    -11.229606
      10A     -1.396608    11A     -1.165594    12A     -1.049748
      13A     -1.026405    14A     -0.996168    15A     -0.861117
      16A     -0.834689    17A     -0.759576    18A     -0.709400
      19A     -0.654735    20A     -0.646618    21A     -0.625366
      22A     -0.606269    23A     -0.598300    24A     -0.597234
      25A     -0.552817    26A     -0.524255    27A     -0.518579
      28A     -0.500204    29A     -0.491276    30A     -0.410604
      31A     -0.345684    32A     -0.341348

  @DF-RHF Final Energy:  -382.47580083022126

   => Energetics <=

    Nuclear Repulsion Energy =            403.5714351066144445
    One-Electron Energy =               -1318.5332989301946327
    Two-Electron Energy =                 532.4860629933585869
    DFT Exchange-Correlation Energy =       0.0000000000000000
    Empirical Dispersion Energy =           0.0000000000000000
    PCM Polarization Energy =               0.0000000000000000
    EFP Energy =                            0.0000000000000000
    Total Energy =                       -382.4758008302216012
    Molecular point group: c1
  Basis Set: 6-31G*
  Basis Set:

  -Total Gradient:
     Atom            X                  Y                   Z
    ------   -----------------  -----------------  -----------------
       1       -0.000002421052    -0.000029711573     0.000000004156
       2        0.000049422780     0.000222599257     0.000000007893
       3        0.000171181403    -0.000124076332    -0.000000064550
       4       -0.000185479836    -0.000091618069    -0.000000025372
       5       -0.000021414089     0.000011976644    -0.000000011681
       6       -0.000166106253    -0.000098588110     0.000000073279
       7        0.000017503551     0.000003434153     0.000000002718
       8        0.000091391754    -0.000081448599    -0.000000028598
       9       -0.000001747831     0.000020794756     0.000000029343
      10        0.000033207310     0.000162890190     0.000000826192
      11        0.000016934555     0.000002179606    -0.000000010443
      12        0.000072798435     0.000045463611    -0.000002469318
      13        0.000014330622     0.000012572873     0.000000764811
      14       -0.000057509232    -0.000024946058     0.000000885923
      15       -0.000007065638    -0.000004479429     0.000011090851
      16       -0.000017906481    -0.000022850376     0.000000016094
      17       -0.000007119996    -0.000004192543    -0.000011091297

  **** Optimization is complete! (in 5 steps) ****
    Final optimized geometry and variables:
    Molecular point group: c1

    Geometry (in Angstrom), charge = 0, multiplicity = 1:

    H           -3.640646241405     0.346049138941     0.000001362888
    C           -2.569763792487     0.247157300351     0.000000519621
    C           -1.992131082538    -1.011069814268     0.000001209173
    C           -1.768132161964     1.379863184112    -0.000001487864
    H           -2.611279489704    -1.889908943334     0.000002529371
    C           -0.612405747967    -1.138142982178     0.000000148094
    H           -2.216218200849     2.357086365528    -0.000002240804
    C           -0.392369183741     1.251674331186    -0.000002677074
    H           -0.180797516516    -2.121591332346     0.000000552874
    C            0.199366962642    -0.009181535501    -0.000001559137
    H            0.240136675531     2.118317644520    -0.000004516702
    C            1.697856616974    -0.090898643940    -0.000004123074
    C            2.360967103854    -1.452481467171    -0.000002406088
    O            2.360489057641     0.904198260230     0.000008317095
    H            2.073232939631    -2.023610227658     0.876838390103
    H            3.432337590067    -1.312750169278     0.000004254100
    H            2.073243433297    -2.023606910121    -0.876848780750

  Mulliken Charges: (a.u.)
   Center  Symbol    Alpha    Beta     Spin     Total
       1     H     0.39527  0.39527  0.00000  0.20945
       2     C     3.09209  3.09209  0.00000 -0.18419
       3     C     3.10439  3.10439  0.00000 -0.20877
       4     C     3.10401  3.10401  0.00000 -0.20802
       5     H     0.39643  0.39643  0.00000  0.20714
       6     C     3.10294  3.10294  0.00000 -0.20589
       7     H     0.39517  0.39517  0.00000  0.20965
       8     C     3.08826  3.08826  0.00000 -0.17653
       9     H     0.39336  0.39336  0.00000  0.21328
      10     C     3.05938  3.05938  0.00000 -0.11876
      11     H     0.37599  0.37599  0.00000  0.24802
      12     C     2.72512  2.72512  0.00000  0.54975
      13     C     3.29297  3.29297  0.00000 -0.58594
      14     O     4.26904  4.26904  0.00000 -0.53807
      15     H     0.40620  0.40620  0.00000  0.18761
      16     H     0.39317  0.39317  0.00000  0.21365
      17     H     0.40620  0.40620  0.00000  0.18761

   Total alpha = 32.00000, Total beta = 32.00000, Total charge = -0.00000
