  ==> Input File <==

--------------------------------------------------------------------------
set {
	reference rhf
	basis 6-31G*
}

set_num_threads( 4 )
memory 2 gb

molecule MOL {
0 1

H	 -2.798360	 -0.862255	 -0.071053
N	 -1.863561	 -0.715187	 0.256814
C	 -1.344686	 0.554728	 -0.219830
H	 -1.300452	 -1.461917	 -0.101532
C	 -2.213802	 1.689113	 0.281114
H	 -0.315380	 0.750189	 0.084022
H	 -1.369281	 0.554141	 -1.305268
O	 -2.115824	 1.733680	 1.675926
H	 -1.882951	 2.634739	 -0.147800
H	 -3.245400	 1.519645	 -0.019422
C	 -2.936144	 2.682742	 2.279188
H	 -2.774262	 2.625088	 3.346974
H	 -2.695599	 3.689187	 1.941269
H	 -3.986548	 2.490522	 2.070593

	symmetry c1
}
set optking {
	frozen_dihedral = ("
		6 3 2 4
	")
}

ee = optimize('scf')
oeprop('DIPOLE', 'QUADRUPOLE', 'MULLIKEN_CHARGES')
f=open( 'psi4out.xyz', 'w' )
f.write( "14  " )
f.write( str(ee) + "\n" )
f.write( MOL.save_string_xyz() )
f.close()
--------------------------------------------------------------------------

    Molecular point group: c1
  Charge       = 0
  Multiplicity = 1
  Basis Set: 6-31G*
  Basis Set:
  @DF-RHF Final Energy:  -248.11686878183590
    Total Energy =                       -248.1168687818357057
    Molecular point group: c1
  Basis Set: 6-31G*
  Basis Set:
  Basis Set: 6-31G*
  Basis Set:
  @DF-RHF Final Energy:  -248.11921601359316
    Total Energy =                       -248.1192160135931317
  Basis Set: 6-31G*
  Basis Set:
  Basis Set: 6-31G*
  Basis Set:
  @DF-RHF Final Energy:  -248.11950184027779
    Total Energy =                       -248.1195018402778487
  Basis Set: 6-31G*
  Basis Set:
  Basis Set: 6-31G*
  Basis Set:
  @DF-RHF Final Energy:  -248.11951872527931
    Total Energy =                       -248.1195187252790788
  Basis Set: 6-31G*
  Basis Set:
  Charge       = 0
  Multiplicity = 1
  Basis Set: 6-31G*
  Basis Set:

    Orbital Energies (a.u.)
    -----------------------

    Doubly Occupied:

       1A    -20.550124     2A    -15.532347     3A    -11.267846
       4A    -11.261587     5A    -11.243147     6A     -1.377278
       7A     -1.176526     8A     -0.998964     9A     -0.903569
      10A     -0.818927    11A     -0.681591    12A     -0.665795
      13A     -0.648478    14A     -0.615858    15A     -0.593288
      16A     -0.556760    17A     -0.519278    18A     -0.500939
      19A     -0.463452    20A     -0.413165    21A     -0.380548

  @DF-RHF Final Energy:  -248.11951952951202

   => Energetics <=

    Nuclear Repulsion Energy =            193.4271773161235899
    One-Electron Energy =                -720.7544560841724888
    Two-Electron Energy =                 279.2077592385370508
    DFT Exchange-Correlation Energy =       0.0000000000000000
    Empirical Dispersion Energy =           0.0000000000000000
    PCM Polarization Energy =               0.0000000000000000
    EFP Energy =                            0.0000000000000000
    Total Energy =                       -248.1195195295118765
    Molecular point group: c1
  Basis Set: 6-31G*
  Basis Set:

  -Total Gradient:
     Atom            X                  Y                   Z
    ------   -----------------  -----------------  -----------------
       1        0.000010911600     0.000003824942     0.000012119834
       2        0.000545880807     0.000219851132     0.001070434285
       3        0.000255850448    -0.000462059756    -0.000971392026
       4       -0.000500647577    -0.000050981042    -0.000770880927
       5       -0.000069420855    -0.000074819931    -0.000004985059
       6       -0.000289620331     0.000349821094     0.000700624135
       7       -0.000023305256    -0.000005366044     0.000012974839
       8        0.000054422062    -0.000000096264    -0.000033324380
       9        0.000022967060     0.000004668089     0.000045860662
      10       -0.000018148423    -0.000000154903    -0.000044325907
      11        0.000021037192     0.000034463291    -0.000018990088
      12       -0.000000694932    -0.000008962613    -0.000003707977
      13       -0.000008833317     0.000002667079     0.000009449520
      14       -0.000000398479    -0.000012855074    -0.000003856914

  **** Optimization is complete! (in 5 steps) ****
    Final optimized geometry and variables:
    Molecular point group: c1

    Geometry (in Angstrom), charge = 0, multiplicity = 1:

    H           -0.653749210782    -2.114692087324    -1.047442168693
    N            0.254789170059    -1.942511268473    -0.660355151690
    C            0.746260747238    -0.638806544148    -1.071070121706
    H            0.855386435971    -2.668110162003    -1.000679766064
    C           -0.129019572606     0.482563950028    -0.541740739848
    H            1.741619196739    -0.505230692575    -0.663469984310
    H            0.816444293084    -0.522570499589    -2.155560273363
    O            0.000231215024     0.574769305766     0.840145371281
    H            0.169833787646     1.421049167644    -1.010539304381
    H           -1.170749496593     0.304343081754    -0.816076794699
    C           -0.805803885925     1.545358536521     1.424131915016
    H           -0.616673073822     1.529522748998     2.488623272390
    H           -0.578851887081     2.539577883644     1.041195689977
    H           -1.861875669252     1.344070993525     1.252006280170

  Mulliken Charges: (a.u.)
   Center  Symbol    Alpha    Beta     Spin     Total
       1     H     0.33669  0.33669  0.00000  0.32661
       2     N     3.91366  3.91366  0.00000 -0.82732
       3     C     3.07027  3.07027  0.00000 -0.14053
       4     H     0.33199  0.33199  0.00000  0.33602
       5     C     2.98630  2.98630  0.00000  0.02739
       6     H     0.40998  0.40998  0.00000  0.18004
       7     H     0.43453  0.43453  0.00000  0.13093
       8     O     4.29545  4.29545  0.00000 -0.59090
       9     H     0.43161  0.43161  0.00000  0.13678
      10     H     0.43627  0.43627  0.00000  0.12745
      11     C     3.07906  3.07906  0.00000 -0.15813
      12     H     0.41113  0.41113  0.00000  0.17775
      13     H     0.43240  0.43240  0.00000  0.13519
      14     H     0.43064  0.43064  0.00000  0.13871

   Total alpha = 21.00000, Total beta = 21.00000, Total charge =  0.00000
