  ==> Input File <==

--------------------------------------------------------------------------
set {
	reference rhf
	basis cc-pvtz
}

set_num_threads( 4 )
memory 2 gb

molecule MOL {
0 1

H	 -2.498963	 -0.741158	 -0.729149
O	 -2.346257	 -0.289210	 0.080372
C	 -1.183935	 0.486039	 -0.009831
C	 0.062853	 -0.375310	 0.027457
H	 -1.178881	 1.094526	 -0.908634
H	 -1.184406	 1.155156	 0.838676
O	 1.172093	 0.457955	 -0.054438
H	 0.052476	 -1.081302	 -0.804627
H	 0.076323	 -0.955658	 0.947560
C	 1.269963	 1.394396	 0.967678
H	 1.345944	 0.914142	 1.940744
H	 2.162492	 1.978391	 0.797307
H	 0.411061	 2.061237	 0.979113

	symmetry c1
}
set optking {
	frozen_dihedral = ("
		10 7 4 8
	")
}

ee = optimize('scf')
oeprop('DIPOLE', 'QUADRUPOLE', 'MULLIKEN_CHARGES')
f=open( 'psi4out.xyz', 'w' )
f.write( "13  " )
f.write( str(ee) + "\n" )
f.write( MOL.save_string_xyz() )
f.close()
--------------------------------------------------------------------------

    Molecular point group: c1
  Charge       = 0
  Multiplicity = 1
  Basis Set: CC-PVTZ
  Basis Set:
  @DF-RHF Final Energy:  -268.05249875563163
    Total Energy =                       -268.0524987556316887
    Molecular point group: c1
  Basis Set: CC-PVTZ
  Basis Set:
  Basis Set: CC-PVTZ
  Basis Set:
  @DF-RHF Final Energy:  -268.05431737948186
    Total Energy =                       -268.0543173794818586
  Basis Set: CC-PVTZ
  Basis Set:
  Basis Set: CC-PVTZ
  Basis Set:
  @DF-RHF Final Energy:  -268.05782947325378
    Total Energy =                       -268.0578294732537756
  Basis Set: CC-PVTZ
  Basis Set:
  Basis Set: CC-PVTZ
  Basis Set:
  @DF-RHF Final Energy:  -268.05821412038881
    Total Energy =                       -268.0582141203890387
  Basis Set: CC-PVTZ
  Basis Set:
  Basis Set: CC-PVTZ
  Basis Set:
  @DF-RHF Final Energy:  -268.05826557910433
    Total Energy =                       -268.0582655791041589
  Basis Set: CC-PVTZ
  Basis Set:
  Basis Set: CC-PVTZ
  Basis Set:
  @DF-RHF Final Energy:  -268.05826948555750
    Total Energy =                       -268.0582694855577301
  Basis Set: CC-PVTZ
  Basis Set:
  Charge       = 0
  Multiplicity = 1
  Basis Set: CC-PVTZ
  Basis Set:

    Orbital Energies (a.u.)
    -----------------------

    Doubly Occupied:

       1A    -20.556076     2A    -20.554714     3A    -11.271142
       4A    -11.270016     5A    -11.267603     6A     -1.388941
       7A     -1.371659     8A     -1.014056     9A     -0.933548
      10A     -0.833483    11A     -0.714529    12A     -0.676130
      13A     -0.660603    14A     -0.643566    15A     -0.598473
      16A     -0.567580    17A     -0.538713    18A     -0.520465
      19A     -0.472237    20A     -0.458393    21A     -0.410359

  @DF-RHF Final Energy:  -268.05826972741755

   => Energetics <=

    Nuclear Repulsion Energy =            192.8079705313732006
    One-Electron Energy =                -748.2879049306534398
    Two-Electron Energy =                 287.4216646718626293
    DFT Exchange-Correlation Energy =       0.0000000000000000
    Empirical Dispersion Energy =           0.0000000000000000
    PCM Polarization Energy =               0.0000000000000000
    EFP Energy =                            0.0000000000000000
    Total Energy =                       -268.0582697274175530
    Molecular point group: c1
  Basis Set: CC-PVTZ
  Basis Set:

  -Total Gradient:
     Atom            X                  Y                   Z
    ------   -----------------  -----------------  -----------------
       1       -0.000007037999     0.000007558350     0.000000078201
       2       -0.000011785525    -0.000021517154    -0.000002851363
       3        0.000002200133     0.000023098303     0.000011560788
       4        0.001201268968    -0.001555485644     0.001222388899
       5       -0.000003516851    -0.000004886052     0.000002644418
       6        0.000000616471     0.000008562289    -0.000003684430
       7        0.001457553186    -0.001890951976     0.001440382056
       8       -0.001410743791     0.001880081338    -0.001447626438
       9        0.000010483613     0.000006133557    -0.000005066333
      10       -0.001240897419     0.001550787315    -0.001205456213
      11        0.000005379170     0.000001809654    -0.000000675616
      12       -0.000001418725    -0.000011982785    -0.000012378076
      13       -0.000002101236     0.000006792806     0.000000684106

  **** Optimization is complete! (in 7 steps) ****
    Final optimized geometry and variables:
    Molecular point group: c1

    Geometry (in Angstrom), charge = 0, multiplicity = 1:

    H           -2.168242555649    -1.186616023574    -1.012558708446
    O           -2.130351592095    -0.732602005261    -0.190345047657
    C           -1.036586779935     0.141135412365    -0.170448436494
    C            0.274157671053    -0.635684109743    -0.139715546618
    H           -1.042814986775     0.807943549876    -1.028693025296
    H           -1.155763094096     0.746075310429     0.716918113655
    O            1.412163928503     0.160723107588    -0.246410084893
    H            0.290570482068    -1.291767353152    -1.001944255634
    H            0.310244756099    -1.249356241496     0.757740432660
    C            1.611702006530     1.098390896416     0.763745355366
    H            1.518923984399     0.647922318836     1.749657307552
    H            2.615447162233     1.482197745120     0.653551530551
    H            0.917646750880     1.929888186397     0.696233810364

  Mulliken Charges: (a.u.)
   Center  Symbol    Alpha    Beta     Spin     Total
       1     H     0.39327  0.39327  0.00000  0.21346
       2     O     4.20256  4.20256  0.00000 -0.40513
       3     C     2.97962  2.97962  0.00000  0.04076
       4     C     2.98434  2.98434  0.00000  0.03131
       5     H     0.46476  0.46476  0.00000  0.07049
       6     H     0.45697  0.45697  0.00000  0.08607
       7     O     4.17684  4.17684  0.00000 -0.35368
       8     H     0.45998  0.45998  0.00000  0.08004
       9     H     0.46430  0.46430  0.00000  0.07140
      10     C     3.03575  3.03575  0.00000 -0.07150
      11     H     0.46996  0.46996  0.00000  0.06009
      12     H     0.44321  0.44321  0.00000  0.11358
      13     H     0.46845  0.46845  0.00000  0.06311

   Total alpha = 21.00000, Total beta = 21.00000, Total charge =  0.00000
