  ==> Input File <==

--------------------------------------------------------------------------
set {
	reference rhf
	basis 6-31G*
}

set_num_threads( 4 )
memory 2 gb

molecule MOL {
0 1

H	 -3.765697	 1.129019	 0.687726
O	 -2.907897	 1.431994	 0.426647
C	 -2.026376	 0.340750	 0.341611
C	 -0.673256	 0.843270	 -0.132153
H	 -1.920400	 -0.137732	 1.313599
H	 -2.409229	 -0.406646	 -0.352274
C	 0.486613	 -0.083066	 0.235839
H	 -0.715586	 0.970948	 -1.210718
H	 -0.508072	 1.829858	 0.297090
C	 1.840406	 0.433480	 -0.254303
H	 0.300215	 -1.068318	 -0.178947
H	 0.519509	 -0.203625	 1.318070
C	 3.000220	 -0.489290	 0.118523
H	 1.809207	 0.553576	 -1.335192
H	 2.021860	 1.424500	 0.157276
H	 2.864959	 -1.479103	 -0.307933
H	 3.946603	 -0.099227	 -0.243630
H	 3.080049	 -0.602997	 1.196117

	symmetry c1
}
set optking {
	frozen_dihedral = ("
		2 3 4 8
	")
}

ee = optimize('scf')
oeprop('DIPOLE', 'QUADRUPOLE', 'MULLIKEN_CHARGES')
f=open( 'psi4out.xyz', 'w' )
f.write( "18  " )
f.write( str(ee) + "\n" )
f.write( MOL.save_string_xyz() )
f.close()
--------------------------------------------------------------------------

    Molecular point group: c1
  Charge       = 0
  Multiplicity = 1
  Basis Set: 6-31G*
  Basis Set:
  @DF-RHF Final Energy:  -271.17785910227190
    Total Energy =                       -271.1778591022718388
    Molecular point group: c1
  Basis Set: 6-31G*
  Basis Set:
  Basis Set: 6-31G*
  Basis Set:
  @DF-RHF Final Energy:  -271.17806815553365
    Total Energy =                       -271.1780681555338788
  Basis Set: 6-31G*
  Basis Set:
  Basis Set: 6-31G*
  Basis Set:
  @DF-RHF Final Energy:  -271.17809124683754
    Total Energy =                       -271.1780912468373117
  Basis Set: 6-31G*
  Basis Set:
  Basis Set: 6-31G*
  Basis Set:
  @DF-RHF Final Energy:  -271.17809882707252
    Total Energy =                       -271.1780988270727448
  Basis Set: 6-31G*
  Basis Set:
  Basis Set: 6-31G*
  Basis Set:
  @DF-RHF Final Energy:  -271.17810104380271
    Total Energy =                       -271.1781010438027693
  Basis Set: 6-31G*
  Basis Set:
  Charge       = 0
  Multiplicity = 1
  Basis Set: 6-31G*
  Basis Set:

    Orbital Energies (a.u.)
    -----------------------

    Doubly Occupied:

       1A    -20.551781     2A    -11.267345     3A    -11.215964
       4A    -11.215265     5A    -11.210991     6A    -11.208691
       7A     -1.358391     8A     -1.080140     9A     -1.010605
      10A     -0.912738    11A     -0.820086    12A     -0.792192
      13A     -0.695216    14A     -0.658040    15A     -0.622153
      16A     -0.586283    17A     -0.570893    18A     -0.557682
      19A     -0.529993    20A     -0.495287    21A     -0.489962
      22A     -0.468429    23A     -0.464328    24A     -0.450670
      25A     -0.432544

  @DF-RHF Final Energy:  -271.17810141610596

   => Energetics <=

    Nuclear Repulsion Energy =            245.2533469461130835
    One-Electron Energy =                -853.5315605481441708
    Two-Electron Energy =                 337.1001121859250134
    DFT Exchange-Correlation Energy =       0.0000000000000000
    Empirical Dispersion Energy =           0.0000000000000000
    PCM Polarization Energy =               0.0000000000000000
    EFP Energy =                            0.0000000000000000
    Total Energy =                       -271.1781014161060739
    Molecular point group: c1
  Basis Set: 6-31G*
  Basis Set:

  -Total Gradient:
     Atom            X                  Y                   Z
    ------   -----------------  -----------------  -----------------
       1        0.000022201857    -0.000019551816    -0.000000286196
       2        0.000839066425     0.000420881033     0.002925401292
       3       -0.000738205362    -0.001475578609    -0.003891503495
       4       -0.001372775621     0.004667935715     0.001479234884
       5       -0.000042715850     0.000031068236     0.000003364296
       6       -0.000025689543     0.000001226052    -0.000002372206
       7        0.000019764576    -0.000040518333    -0.000042728239
       8        0.001320020850    -0.003694143246    -0.000476952390
       9        0.000020426334     0.000054303321    -0.000011365696
      10       -0.000015934306     0.000012860140    -0.000000480264
      11        0.000013892820     0.000025270461     0.000008077187
      12       -0.000019499990     0.000026276968     0.000000652676
      13       -0.000010278893    -0.000019206944    -0.000001540302
      14       -0.000002846071     0.000010453646    -0.000004455137
      15       -0.000011246831    -0.000001046475     0.000010106634
      16        0.000000497412    -0.000003274685     0.000007700609
      17       -0.000003578371     0.000001100944    -0.000004989102
      18        0.000006900559     0.000001943590     0.000002135450

  **** Optimization is complete! (in 6 steps) ****
    Final optimized geometry and variables:
    Molecular point group: c1

    Geometry (in Angstrom), charge = 0, multiplicity = 1:

    H           -3.671931343928     0.660803328710     0.504721963649
    O           -2.811558018033     0.985449945118     0.280197283549
    C           -1.907480908956    -0.087491065161     0.204413423150
    C           -0.556330995036     0.451038729651    -0.246033806540
    H           -1.809881513758    -0.559139219507     1.181467764881
    H           -2.261696584912    -0.848124515008    -0.488853056318
    C            0.598442529135    -0.486999159666     0.114527288570
    H           -0.568919263095     0.589924816679    -1.323775083844
    H           -0.407236516527     1.423579035788     0.211484915462
    C            1.953009580046     0.004938656175    -0.397825827415
    H            0.403453062153    -1.479435054885    -0.290757885849
    H            0.645372130415    -0.603710598625     1.195811873785
    C            3.106162959596    -0.926072438832    -0.025320724186
    H            1.911130979097     0.112962252323    -1.479408353075
    H            2.147331888603     0.998405063207     0.000330427552
    H            2.955984207443    -1.920509135485    -0.436346745414
    H            4.052122291941    -0.551521447111    -0.404008253022
    H            3.197669573615    -1.025342329858     1.052641676303

  Mulliken Charges: (a.u.)
   Center  Symbol    Alpha    Beta     Spin     Total
       1     H     0.28151  0.28151  0.00000  0.43699
       2     O     4.37170  4.37170  0.00000 -0.74341
       3     C     2.99067  2.99067  0.00000  0.01866
       4     C     3.16046  3.16046  0.00000 -0.32091
       5     H     0.43230  0.43230  0.00000  0.13540
       6     H     0.43162  0.43162  0.00000  0.13675
       7     C     3.15948  3.15948  0.00000 -0.31896
       8     H     0.41815  0.41815  0.00000  0.16370
       9     H     0.40962  0.40962  0.00000  0.18076
      10     C     3.15104  3.15104  0.00000 -0.30209
      11     H     0.42511  0.42511  0.00000  0.14978
      12     H     0.42251  0.42251  0.00000  0.15499
      13     C     3.23940  3.23940  0.00000 -0.47880
      14     H     0.42234  0.42234  0.00000  0.15532
      15     H     0.42135  0.42135  0.00000  0.15729
      16     H     0.42215  0.42215  0.00000  0.15570
      17     H     0.41890  0.41890  0.00000  0.16219
      18     H     0.42168  0.42168  0.00000  0.15664

   Total alpha = 25.00000, Total beta = 25.00000, Total charge =  0.00000
