  ==> Input File <==

--------------------------------------------------------------------------
set {
	reference rhf
	basis 6-31G*
}

set_num_threads( 1 )
memory 2 gb

molecule MOL {
0 1

O	 0.888184	 4.454318	 -0.126443
C	 -0.199540	 4.938481	 -0.198563
C	 -1.462455	 4.095876	 -0.197609
C	 -0.390744	 6.438144	 -0.296583
C	 -1.208222	 2.594625	 -0.098376
H	 -2.088947	 4.435507	 0.626131
H	 -2.021770	 4.332700	 -1.101757
C	 -2.502525	 1.779433	 -0.099988
H	 -0.643143	 2.388483	 0.805129
H	 -0.576091	 2.285457	 -0.924798
C	 -2.259874	 0.272531	 0.000494
H	 -3.133166	 2.096985	 0.729168
H	 -3.065034	 1.992157	 -1.007953
C	 -3.549786	 -0.549746	 -0.000374
H	 -1.698239	 0.058641	 0.908148
H	 -1.630268	 -0.046186	 -0.828368
C	 -4.809590	 0.315458	 -0.000369
H	 -3.560515	 -1.202009	 -0.871156
H	 -3.561123	 -1.202955	 0.869711
H	 -4.844746	 0.956611	 -0.876632
H	 -5.706986	 -0.295590	 -0.001609
H	 -4.845960	 0.954827	 0.877144
H	 -0.991012	 6.798749	 0.533635
H	 0.571922	 6.930085	 -0.286440
H	 -0.918706	 6.693607	 -1.210710

	symmetry c1
}
set optking {
	frozen_dihedral = ("
		9 5 8 12,
		15 11 8 12,
		1 2 3 6,
		9 5 3 6
	")
}

ee = energy('scf')
oeprop('DIPOLE', 'QUADRUPOLE', 'MULLIKEN_CHARGES')
f=open( 'psi4out.xyz', 'w' )
f.write( "25  " )
f.write( str(ee) + "\n" )
f.write( MOL.save_string_xyz() )
f.close()
--------------------------------------------------------------------------

    Molecular point group: c1

    Geometry (in Angstrom), charge = 0, multiplicity = 1:

       Center              X                  Y                   Z               Mass
    ------------   -----------------  -----------------  -----------------  -----------------
           O          2.616274277827     1.743330420135    -0.013322645525    15.994914619560
           C          1.528550277827     2.227493420135    -0.085442645525    12.000000000000
           C          0.265635277827     1.384888420135    -0.084488645525    12.000000000000
           C          1.337346277827     3.727156420135    -0.183462645525    12.000000000000
           C          0.519868277827    -0.116362579865     0.014744354475    12.000000000000
           H         -0.360856722173     1.724519420135     0.739251354475     1.007825032070
           H         -0.293679722173     1.621712420135    -0.988636645525     1.007825032070
           C         -0.774434722173    -0.931554579865     0.013132354475    12.000000000000
           H          1.084947277827    -0.322504579865     0.918249354475     1.007825032070
           H          1.151999277827    -0.425530579865    -0.811677645525     1.007825032070
           C         -0.531783722173    -2.438456579865     0.113614354475    12.000000000000
           H         -1.405075722173    -0.614002579865     0.842288354475     1.007825032070
           H         -1.336943722173    -0.718830579865    -0.894832645525     1.007825032070
           C         -1.821695722173    -3.260733579865     0.112746354475    12.000000000000
           H          0.029851277827    -2.652346579865     1.021268354475     1.007825032070
           H          0.097822277827    -2.757173579865    -0.715247645525     1.007825032070
           C         -3.081499722173    -2.395529579865     0.112751354475    12.000000000000
           H         -1.832424722173    -3.912996579865    -0.758035645525     1.007825032070
           H         -1.833032722173    -3.913942579865     0.982831354475     1.007825032070
           H         -3.116655722173    -1.754376579865    -0.763511645525     1.007825032070
           H         -3.978895722173    -3.006577579865     0.111511354475     1.007825032070
           H         -3.117869722173    -1.756160579865     0.990264354475     1.007825032070
           H          0.737078277827     4.087761420135     0.646755354475     1.007825032070
           H          2.300012277827     4.219097420135    -0.173319645525     1.007825032070
           H          0.809384277827     3.982619420135    -1.097589645525     1.007825032070

  Charge       = 0
  Multiplicity = 1
  Basis Set: 6-31G*
  Basis Set:

    Orbital Energies (a.u.)
    -----------------------

    Doubly Occupied:

       1A    -20.550080     2A    -11.325914     3A    -11.231322
       4A    -11.228099     5A    -11.215598     6A    -11.214870
       7A    -11.213927     8A    -11.211960     9A    -11.207847
      10A     -1.395380    11A     -1.095723    12A     -1.056846
      13A     -1.011861    14A     -0.962969    15A     -0.899677
      16A     -0.829991    17A     -0.767397    18A     -0.728759
      19A     -0.662566    20A     -0.652031    21A     -0.632053
      22A     -0.624335    23A     -0.601404    24A     -0.593108
      25A     -0.555885    26A     -0.555423    27A     -0.552161
      28A     -0.526612    29A     -0.511128    30A     -0.491734
      31A     -0.490040    32A     -0.478726    33A     -0.459549
      34A     -0.452051    35A     -0.442295    36A     -0.399136

  @DF-RHF Final Energy:  -387.12211777481957

   => Energetics <=

    Nuclear Repulsion Energy =            446.8241975631433434
    One-Electron Energy =               -1410.2356873700773576
    Two-Electron Energy =                 576.2893720321143292
    DFT Exchange-Correlation Energy =       0.0000000000000000
    Empirical Dispersion Energy =           0.0000000000000000
    PCM Polarization Energy =               0.0000000000000000
    EFP Energy =                            0.0000000000000000
    Total Energy =                       -387.1221177748196851

  Mulliken Charges: (a.u.)
   Center  Symbol    Alpha    Beta     Spin     Total
       1     O     4.26123  4.26123  0.00000 -0.52247
       2     C     2.73568  2.73568  0.00000  0.52864
       3     C     3.21070  3.21070  0.00000 -0.42140
       4     C     3.28659  3.28659  0.00000 -0.57318
       5     C     3.14526  3.14526  0.00000 -0.29053
       6     H     0.41032  0.41032  0.00000  0.17936
       7     H     0.41036  0.41036  0.00000  0.17928
       8     C     3.16034  3.16034  0.00000 -0.32068
       9     H     0.41272  0.41272  0.00000  0.17455
      10     H     0.41276  0.41276  0.00000  0.17448
      11     C     3.15506  3.15506  0.00000 -0.31011
      12     H     0.42266  0.42266  0.00000  0.15468
      13     H     0.42327  0.42327  0.00000  0.15346
      14     C     3.15493  3.15493  0.00000 -0.30986
      15     H     0.41979  0.41979  0.00000  0.16042
      16     H     0.41948  0.41948  0.00000  0.16105
      17     C     3.24535  3.24535  0.00000 -0.49069
      18     H     0.42012  0.42012  0.00000  0.15975
      19     H     0.41977  0.41977  0.00000  0.16046
      20     H     0.42070  0.42070  0.00000  0.15861
      21     H     0.41784  0.41784  0.00000  0.16431
      22     H     0.42098  0.42098  0.00000  0.15804
      23     H     0.40880  0.40880  0.00000  0.18240
      24     H     0.39653  0.39653  0.00000  0.20695
      25     H     0.40876  0.40876  0.00000  0.18248

   Total alpha = 36.00000, Total beta = 36.00000, Total charge =  0.00000
