  ==> Input File <==

--------------------------------------------------------------------------
set {
	reference rhf
	basis 6-31G*
}

set_num_threads( 4 )
memory 2 gb

molecule MOL {
0 1

H	 -2.646374	 -0.642757	 1.268656
C	 -2.083525	 -0.384536	 0.393091
O	 -0.807605	 -0.127164	 0.768327
F	 -2.118945	 -1.383102	 -0.486752
F	 -2.621877	 0.670592	 -0.209486
C	 0.084052	 0.273579	 -0.209957
C	 0.125331	 -0.834072	 -1.254737
Cl	 1.694368	 0.544244	 0.476221
H	 -0.221628	 1.184402	 -0.694453
F	 0.949010	 -0.515041	 -2.230396
F	 -1.080224	 -0.978623	 -1.767748
F	 0.499713	 -1.981840	 -0.744403

	symmetry c1
}
set optking {
	frozen_dihedral = ("
		9 6 3 2
	")
}

ee = optimize('scf')
oeprop('DIPOLE', 'QUADRUPOLE', 'MULLIKEN_CHARGES')
f=open( 'psi4out.xyz', 'w' )
f.write( "12  " )
f.write( str(ee) + "\n" )
f.write( MOL.save_string_xyz() )
f.close()
--------------------------------------------------------------------------

    Molecular point group: c1
  Charge       = 0
  Multiplicity = 1
  Basis Set: 6-31G*
  Basis Set:
  @DF-RHF Final Energy: -1146.20883670061312
    Total Energy =                      -1146.2088367006133467
    Molecular point group: c1
  Basis Set: 6-31G*
  Basis Set:
  Basis Set: 6-31G*
  Basis Set:
  @DF-RHF Final Energy: -1146.26718594272620
    Total Energy =                      -1146.2671859427257459
  Basis Set: 6-31G*
  Basis Set:
  Basis Set: 6-31G*
  Basis Set:
  @DF-RHF Final Energy: -1146.28564716396932
    Total Energy =                      -1146.2856471639693154
  Basis Set: 6-31G*
  Basis Set:
  Basis Set: 6-31G*
  Basis Set:
  @DF-RHF Final Energy: -1146.29709344264461
    Total Energy =                      -1146.2970934426448366
  Basis Set: 6-31G*
  Basis Set:
  @DF-RHF Final Energy: -1146.30272366601207
    Total Energy =                      -1146.3027236660120707
  @DF-RHF Final Energy: -1146.30528110509545
    Total Energy =                      -1146.3052811050963555
  @DF-RHF Final Energy: -1146.30610280436940
    Total Energy =                      -1146.3061028043694023
  @DF-RHF Final Energy: -1146.30628623936059
    Total Energy =                      -1146.3062862393605883
  @DF-RHF Final Energy: -1146.30632278931444
    Total Energy =                      -1146.3063227893146632
  @DF-RHF Final Energy: -1146.30633068270072
    Total Energy =                      -1146.3063306827002634
  Basis Set: 6-31G*
  Basis Set:
  @DF-RHF Final Energy: -1146.30633519340540
    Total Energy =                      -1146.3063351934060847
  Basis Set: 6-31G*
  Basis Set:
  Basis Set: 6-31G*
  Basis Set:
  @DF-RHF Final Energy: -1146.30634317767453
    Total Energy =                      -1146.3063431776749894
  Basis Set: 6-31G*
  Basis Set:
  Basis Set: 6-31G*
  Basis Set:
  @DF-RHF Final Energy: -1146.30634515410657
    Total Energy =                      -1146.3063451541072482
  Basis Set: 6-31G*
  Basis Set:
  Charge       = 0
  Multiplicity = 1
  Basis Set: 6-31G*
  Basis Set:

    Orbital Energies (a.u.)
    -----------------------

    Doubly Occupied:

       1A   -104.846500     2A    -26.359593     3A    -26.359453
       4A    -26.358099     5A    -26.347568     6A    -26.339381
       7A    -20.644636     8A    -11.528132     9A    -11.487884
      10A    -11.402540    11A    -10.581113    12A     -8.050512
      13A     -8.046888    14A     -8.046804    15A     -1.761904
      16A     -1.714166    17A     -1.658013    18A     -1.656492
      19A     -1.636808    20A     -1.478001    21A     -1.182762
      22A     -1.043050    23A     -0.992327    24A     -0.918440
      25A     -0.853779    26A     -0.849809    27A     -0.846769
      28A     -0.829609    29A     -0.815113    30A     -0.782164
      31A     -0.728082    32A     -0.725841    33A     -0.706350
      34A     -0.692093    35A     -0.677012    36A     -0.673932
      37A     -0.660490    38A     -0.655378    39A     -0.646237
      40A     -0.641256    41A     -0.590470    42A     -0.553185
      43A     -0.532414    44A     -0.479781    45A     -0.469370

  @DF-RHF Final Energy: -1146.30634444286329

   => Energetics <=

    Nuclear Repulsion Energy =            750.7915916622009718
    One-Electron Energy =               -3084.4954728728343980
    Two-Electron Energy =                1187.3975367677703616
    DFT Exchange-Correlation Energy =       0.0000000000000000
    Empirical Dispersion Energy =           0.0000000000000000
    PCM Polarization Energy =               0.0000000000000000
    EFP Energy =                            0.0000000000000000
    Total Energy =                      -1146.3063444428630646
    Molecular point group: c1
  Basis Set: 6-31G*
  Basis Set:

  -Total Gradient:
     Atom            X                  Y                   Z
    ------   -----------------  -----------------  -----------------
       1       -0.000001577316     0.000009610057    -0.000001357792
       2        0.000614266835    -0.003026763393    -0.000701145416
       3       -0.000399800450     0.005123314185     0.001825181908
       4        0.000019649776    -0.000018447612    -0.000022675703
       5       -0.000006228319     0.000003445501     0.000032878703
       6       -0.002177563474    -0.003830361521    -0.003125344535
       7       -0.000098126998     0.000121882106    -0.000168694084
       8        0.000016824184    -0.000011686047     0.000036860221
       9        0.002021817817     0.001558215326     0.002149776266
      10        0.000052491295     0.000011127328    -0.000014524445
      11       -0.000026321256    -0.000027878036    -0.000018804125
      12       -0.000015432126     0.000087542113     0.000007848985

  **** Optimization is complete! (in 14 steps) ****
    Final optimized geometry and variables:
    Molecular point group: c1

    Geometry (in Angstrom), charge = 0, multiplicity = 1:

    H           -2.313468762630     0.087291822041     1.938535695736
    C           -1.808046771761     0.034648064886     0.993426826094
    O           -0.486187928907     0.244007487585     1.221314887236
    F           -2.022540821916    -1.153408735684     0.445413748371
    F           -2.298299140569     0.952208207020     0.162863221976
    C            0.389030982811     0.649936921394     0.220490206790
    C            0.559183529121    -0.365015653204    -0.912005950416
    CL           1.942813685878     0.909243917640     1.024518164611
    H            0.093720974492     1.596496637711    -0.198946267550
    F            1.531699463971     0.016946937079    -1.712634426055
    F           -0.543958293752    -0.420809132437    -1.631906717542
    F            0.827292062453    -1.565113959128    -0.460698548197

  Mulliken Charges: (a.u.)
   Center  Symbol    Alpha    Beta     Spin     Total
       1     H     0.40370  0.40370  0.00000  0.19260
       2     C     2.56125  2.56125  0.00000  0.87750
       3     O     4.30868  4.30868  0.00000 -0.61736
       4     F     4.68114  4.68114  0.00000 -0.36227
       5     F     4.68795  4.68795  0.00000 -0.37591
       6     C     3.03326  3.03326  0.00000 -0.06653
       7     C     2.44653  2.44653  0.00000  1.10693
       8    CL     8.49376  8.49376  0.00000  0.01248
       9     H     0.36909  0.36909  0.00000  0.26182
      10     F     4.67262  4.67262  0.00000 -0.34524
      11     F     4.67512  4.67512  0.00000 -0.35023
      12     F     4.66689  4.66689  0.00000 -0.33378

   Total alpha = 45.00000, Total beta = 45.00000, Total charge = -0.00000
