  ==> Input File <==

--------------------------------------------------------------------------
set {
	reference rhf
	basis cc-pvtz
}

set_num_threads( 4 )
memory 2 gb

molecule MOL {
0 1

H	 -1.067474	 0.931788	 -0.125583
N	 -0.712187	 0.000026	 -0.093397
C	 0.734067	 -0.000020	 0.038424
H	 -0.993506	 -0.451157	 -0.937635
H	 1.140372	 -0.872115	 -0.458226
H	 1.140363	 0.872301	 -0.457869
H	 1.095085	 -0.000244	 1.065614

	symmetry c1
}
set optking {
	frozen_dihedral = ("
		1 2 3 7
	")
}

ee = optimize('scf')
oeprop('DIPOLE', 'QUADRUPOLE', 'MULLIKEN_CHARGES')
f=open( 'psi4out.xyz', 'w' )
f.write( "7  " )
f.write( str(ee) + "\n" )
f.write( MOL.save_string_xyz() )
f.close()
--------------------------------------------------------------------------

    Molecular point group: c1
  Charge       = 0
  Multiplicity = 1
  Basis Set: CC-PVTZ
  Basis Set:
  @DF-RHF Final Energy:   -95.25075975163625
    Total Energy =                        -95.2507597516362665
    Molecular point group: c1
  Basis Set: CC-PVTZ
  Basis Set:
  Basis Set: CC-PVTZ
  Basis Set:
  @DF-RHF Final Energy:   -95.25213854778184
    Total Energy =                        -95.2521385477817972
  Basis Set: CC-PVTZ
  Basis Set:
  Basis Set: CC-PVTZ
  Basis Set:
  @DF-RHF Final Energy:   -95.25229143810729
    Total Energy =                        -95.2522914381073349
  Basis Set: CC-PVTZ
  Basis Set:
  Basis Set: CC-PVTZ
  Basis Set:
  @DF-RHF Final Energy:   -95.25229445430688
    Total Energy =                        -95.2522944543068917
  Basis Set: CC-PVTZ
  Basis Set:
  Charge       = 0
  Multiplicity = 1
  Basis Set: CC-PVTZ
  Basis Set:

    Orbital Energies (a.u.)
    -----------------------

    Doubly Occupied:

       1A    -15.528685     2A    -11.235683     3A     -1.171647
       4A     -0.897744     5A     -0.664010     6A     -0.603439
       7A     -0.559452     8A     -0.515346     9A     -0.388054

  @DF-RHF Final Energy:   -95.25229463981536

   => Energetics <=

    Nuclear Repulsion Energy =             42.3410541023375941
    One-Electron Energy =                -212.0585761135394307
    Two-Electron Energy =                  74.4652273713864474
    DFT Exchange-Correlation Energy =       0.0000000000000000
    Empirical Dispersion Energy =           0.0000000000000000
    PCM Polarization Energy =               0.0000000000000000
    EFP Energy =                            0.0000000000000000
    Total Energy =                        -95.2522946398153749
    Molecular point group: c1
  Basis Set: CC-PVTZ
  Basis Set:

  -Total Gradient:
     Atom            X                  Y                   Z
    ------   -----------------  -----------------  -----------------
       1        0.000176011781     0.000064751737    -0.002925376763
       2       -0.000185887055    -0.000775520392     0.003632242948
       3       -0.000064244113     0.003408589936    -0.000644346411
       4       -0.000027495071    -0.000000685558    -0.000016858228
       5        0.000007767544    -0.000003169467     0.000004921920
       6        0.000015920544    -0.000006370733    -0.000001594062
       7        0.000077926372    -0.002687595523    -0.000048989404

  **** Optimization is complete! (in 5 steps) ****
    Final optimized geometry and variables:
    Molecular point group: c1

    Geometry (in Angstrom), charge = 0, multiplicity = 1:

    H           -1.098254925117     0.893902914695    -0.028636085143
    N           -0.719830157690    -0.029235559180    -0.021318595598
    C            0.733052743151     0.001232490439     0.074247966221
    H           -1.003430679708    -0.451343239306    -0.879531604096
    H            1.140448821771    -0.895233078539    -0.376814210888
    H            1.194763228584     0.854301883455    -0.416084706366
    H            1.039712470320    -0.010094433277     1.113216827045

  Mulliken Charges: (a.u.)
   Center  Symbol    Alpha    Beta     Spin     Total
       1     H     0.42994  0.42994  0.00000  0.14013
       2     N     3.68466  3.68466  0.00000 -0.36932
       3     C     3.07017  3.07017  0.00000 -0.14034
       4     H     0.42861  0.42861  0.00000  0.14278
       5     H     0.45870  0.45870  0.00000  0.08259
       6     H     0.46973  0.46973  0.00000  0.06055
       7     H     0.45820  0.45820  0.00000  0.08361

   Total alpha =  9.00000, Total beta =  9.00000, Total charge = -0.00000
