                              Psi4 1.0.54 Driver

  ==> Input File <==

--------------------------------------------------------------------------
set {
	reference rhf
	basis cc-pvtz
}

set_num_threads( 4 )
memory 2 gb

molecule MOL {
0 1

H	 -1.088256	 -1.364742	 0.152233
O	 -1.432053	 -0.565244	 -0.200812
C	 -0.727158	 0.534527	 0.310686
C	 0.680222	 0.664433	 -0.252229
H	 -1.306802	 1.408001	 0.044211
H	 -0.690821	 0.490158	 1.397609
C	 0.794639	 1.651875	 -1.409775
H	 1.348013	 0.960917	 0.549883
H	 1.000487	 -0.319486	 -0.583865
H	 0.539893	 2.659577	 -1.100315
H	 1.806592	 1.682510	 -1.795216
H	 0.138421	 1.375152	 -2.229385

	symmetry c1
}
set optking {
	frozen_dihedral = ("
		8 4 3 2
	")
}

ee,wfn = optimize('scf', return_wfn=True)
oeprop( wfn, 'DIPOLE', 'QUADRUPOLE', 'MULLIKEN_CHARGES')
f=open( 'psi4out.xyz', 'w' )
f.write( "12  " )
f.write( str(ee) + "\n" )
f.write( MOL.save_string_xyz() )
f.close()
--------------------------------------------------------------------------

    Molecular point group: c1
  Charge       = 0
  Multiplicity = 1
  Basis Set: CC-PVTZ
  Basis Set:
  @DF-RHF Final Energy:  -193.18617314653065
    Total Energy =                       -193.1861731465305638
    Molecular point group: c1
  Basis Set: CC-PVTZ
  Basis Set:
  Basis Set: CC-PVTZ
  Basis Set:
  @DF-RHF Final Energy:  -193.18656483314021
    Total Energy =                       -193.1865648331401246
  Basis Set: CC-PVTZ
  Basis Set:
  Basis Set: CC-PVTZ
  Basis Set:
  @DF-RHF Final Energy:  -193.18662404982780
    Total Energy =                       -193.1866240498277989
  Basis Set: CC-PVTZ
  Basis Set:
  Basis Set: CC-PVTZ
  Basis Set:
  @DF-RHF Final Energy:  -193.18662811940229
    Total Energy =                       -193.1866281194021440
  Basis Set: CC-PVTZ
  Basis Set:
  Charge       = 0
  Multiplicity = 1
  Basis Set: CC-PVTZ
  Basis Set:

    Orbital Energies (a.u.)
    -----------------------

    Doubly Occupied:

       1A    -20.545441     2A    -11.266035     3A    -11.217933
       4A    -11.209859     5A     -1.363603     6A     -1.049855
       7A     -0.920111     8A     -0.819798     9A     -0.684732
      10A     -0.629145    11A     -0.626263    12A     -0.572839
      13A     -0.533621    14A     -0.524101    15A     -0.485746
      16A     -0.467070    17A     -0.430332

  @DF-RHF Final Energy:  -193.18662839515042

   => Energetics <=

    Nuclear Repulsion Energy =            131.8847020543275335
    One-Electron Energy =                -523.4496947834204548
    Two-Electron Energy =                 198.3783643339422724
    DFT Exchange-Correlation Energy =       0.0000000000000000
    Empirical Dispersion Energy =           0.0000000000000000
    PCM Polarization Energy =               0.0000000000000000
    EFP Energy =                            0.0000000000000000
    Total Energy =                       -193.1866283951506489
    Molecular point group: c1
  Basis Set: CC-PVTZ
  Basis Set:

  -Total Gradient:
     Atom            X                  Y                   Z
    ------   -----------------  -----------------  -----------------
       1       -0.000030501662     0.000028136207    -0.000020713239
       2        0.001365068070    -0.002256863102     0.002803880337
       3       -0.001603824849     0.001972101006    -0.003556934954
       4       -0.000546214157     0.004921312828    -0.000197605684
       5        0.000004281583     0.000009701567     0.000001238483
       6       -0.000009333668    -0.000028718417    -0.000007156673
       7        0.000009569500    -0.000001785391     0.000036749572
       8        0.000817092715    -0.004599032955     0.000944291525
       9        0.000008977963    -0.000024200485    -0.000008145043
      10        0.000001102838    -0.000010989746     0.000002286138
      11       -0.000014265076     0.000016623300     0.000008328020
      12       -0.000001953258    -0.000026284810    -0.000006218480

  **** Optimization is complete! (in 5 steps) ****
    Final optimized geometry and variables:
    Molecular point group: c1

    Geometry (in Angstrom), charge = 0, multiplicity = 1:

    H           -0.812394161647    -1.887393815533     0.438440456961
    O           -1.233901107407    -1.085762467294     0.188813257878
    C           -0.522831689365     0.005501808176     0.712120264659
    C            0.890774775333     0.138494245326     0.134687740272
    H           -1.112582377682     0.883384911807     0.485048353827
    H           -0.474745430209    -0.076133866636     1.794741164404
    C            0.988847781819     1.093194299423    -1.048742206599
    H            1.582063962437     0.421173897159     0.922331174528
    H            1.211976297908    -0.851116706517    -0.179650280394
    H            0.731471309144     2.105373848576    -0.755523570350
    H            1.991999934418     1.112312059649    -1.458508638358
    H            0.310040037798     0.793224364451    -1.839086136899

  Mulliken Charges: (a.u.)
   Center  Symbol    Alpha    Beta     Spin     Total
       1     H     0.39452  0.39452  0.00000  0.21096
       2     O     4.20436  4.20436  0.00000 -0.40872
       3     C     2.96896  2.96896  0.00000  0.06208
       4     C     3.08418  3.08418  0.00000 -0.16836
       5     H     0.45988  0.45988  0.00000  0.08025
       6     H     0.46703  0.46703  0.00000  0.06594
       7     C     3.15020  3.15020  0.00000 -0.30041
       8     H     0.45442  0.45442  0.00000  0.09116
       9     H     0.46180  0.46180  0.00000  0.07640
      10     H     0.45577  0.45577  0.00000  0.08846
      11     H     0.45016  0.45016  0.00000  0.09968
      12     H     0.44872  0.44872  0.00000  0.10256

   Total alpha = 17.00000, Total beta = 17.00000, Total charge = -0.00000

*** Psi4 exiting successfully. Buy a developer a beer!
