  ==> Input File <==

--------------------------------------------------------------------------
set {
	reference rhf
	basis 6-31G*
}

set_num_threads( 4 )
memory 2 gb

molecule MOL {
0 1

O	 3.225979	 0.970355	 -0.599647
C	 2.701189	 0.057885	 -0.047330
C	 1.245376	 -0.013843	 0.345420
O	 3.347903	 -1.046386	 0.304773
C	 0.383787	 -0.751343	 -0.677261
H	 1.202458	 -0.479166	 1.324615
H	 0.898121	 1.006591	 0.486220
C	 -1.112267	 -0.741881	 -0.345254
H	 0.733687	 -1.775175	 -0.769221
H	 0.534711	 -0.295125	 -1.649634
C	 -1.498294	 -1.519402	 0.916313
H	 -1.647791	 -1.165388	 -1.191764
H	 -1.457076	 0.287169	 -0.254845
C	 -3.010487	 -1.572287	 1.143194
H	 -1.109951	 -2.534175	 0.843899
H	 -1.027655	 -1.073804	 1.789762
C	 -3.407679	 -2.342329	 2.403910
H	 -3.488241	 -2.029546	 0.278381
H	 -3.401045	 -0.557719	 1.204973
C	 -4.919591	 -2.393722	 2.621119
H	 -3.017337	 -3.356094	 2.344282
H	 -2.934586	 -1.884127	 3.269943
H	 -5.169452	 -2.945769	 3.521908
H	 -5.419206	 -2.878369	 1.787034
H	 -5.335796	 -1.395009	 2.719197
C	 4.728119	 -1.109107	 -0.004993
H	 4.882018	 -1.033965	 -1.071845
H	 5.068212	 -2.067527	 0.355250
H	 5.265056	 -0.311663	 0.488280

	symmetry c1
}
set optking {
	frozen_dihedral = ("
		6 3 2 1
	")
}

ee = optimize('scf')
oeprop('DIPOLE', 'QUADRUPOLE', 'MULLIKEN_CHARGES')
f=open( 'psi4out.xyz', 'w' )
f.write( "29  " )
f.write( str(ee) + "\n" )
f.write( MOL.save_string_xyz() )
f.close()
--------------------------------------------------------------------------

    Molecular point group: c1
  Charge       = 0
  Multiplicity = 1
  Basis Set: 6-31G*
  Basis Set:
  @DF-RHF Final Energy:  -501.04216696622154
    Total Energy =                       -501.0421669662209752
    Molecular point group: c1
  Basis Set: 6-31G*
  Basis Set:
  Basis Set: 6-31G*
  Basis Set:
  @DF-RHF Final Energy:  -501.04221436737919
    Total Energy =                       -501.0422143673789606
  Basis Set: 6-31G*
  Basis Set:
  Basis Set: 6-31G*
  Basis Set:
  @DF-RHF Final Energy:  -501.04275733257816
    Total Energy =                       -501.0427573325785033
  Basis Set: 6-31G*
  Basis Set:
  Basis Set: 6-31G*
  Basis Set:
  @DF-RHF Final Energy:  -501.04285501474021
    Total Energy =                       -501.0428550147406668
  Basis Set: 6-31G*
  Basis Set:
  Basis Set: 6-31G*
  Basis Set:
  @DF-RHF Final Energy:  -501.04284863563976
    Total Energy =                       -501.0428486356398707
  Basis Set: 6-31G*
  Basis Set:
  Basis Set: 6-31G*
  Basis Set:
  @DF-RHF Final Energy:  -501.04285591422195
    Total Energy =                       -501.0428559142219456
  Basis Set: 6-31G*
  Basis Set:
  Charge       = 0
  Multiplicity = 1
  Basis Set: 6-31G*
  Basis Set:

    Orbital Energies (a.u.)
    -----------------------

    Doubly Occupied:

       1A    -20.603854     2A    -20.542585     3A    -11.370124
       4A    -11.280277     5A    -11.232722     6A    -11.229631
       7A    -11.221787     8A    -11.218226     9A    -11.217144
      10A    -11.216163    11A    -11.210026    12A     -1.468043
      13A     -1.360569    14A     -1.101434    15A     -1.068959
      16A     -1.019876    17A     -0.975214    18A     -0.930899
      19A     -0.864562    20A     -0.800028    21A     -0.791486
      22A     -0.772490    23A     -0.697280    24A     -0.678467
      25A     -0.672529    26A     -0.652784    27A     -0.627858
      28A     -0.607185    29A     -0.591186    30A     -0.578224
      31A     -0.568636    32A     -0.554663    33A     -0.537286
      34A     -0.530334    35A     -0.519703    36A     -0.516302
      37A     -0.499684    38A     -0.481143    39A     -0.472613
      40A     -0.464723    41A     -0.461139    42A     -0.453294
      43A     -0.446776    44A     -0.427509

  @DF-RHF Final Energy:  -501.04285648571397

   => Energetics <=

    Nuclear Repulsion Energy =            613.1381918565524529
    One-Electron Energy =               -1897.2912699148471347
    Two-Electron Energy =                 783.1102215725818496
    DFT Exchange-Correlation Energy =       0.0000000000000000
    Empirical Dispersion Energy =           0.0000000000000000
    PCM Polarization Energy =               0.0000000000000000
    EFP Energy =                            0.0000000000000000
    Total Energy =                       -501.0428564857129459
    Molecular point group: c1
  Basis Set: 6-31G*
  Basis Set:

  -Total Gradient:
     Atom            X                  Y                   Z
    ------   -----------------  -----------------  -----------------
       1       -0.000067290297    -0.000135790554    -0.000270627584
       2        0.000083201585     0.000114069514     0.000380276166
       3       -0.000046032864     0.000277051339     0.000000512291
       4        0.000022028832     0.000008735866    -0.000016471860
       5       -0.000000200085    -0.000012745675     0.000000309429
       6       -0.000025685512    -0.000263097442    -0.000131580269
       7       -0.000008605013     0.000003709444     0.000006674273
       8       -0.000000220521    -0.000006237681     0.000010130560
       9        0.000006625357    -0.000007847833    -0.000003421360
      10        0.000008077928     0.000013436316     0.000018976998
      11        0.000007528626     0.000012510769     0.000008479436
      12        0.000001504536    -0.000000874832    -0.000001414264
      13        0.000006620919    -0.000001338475     0.000000244495
      14       -0.000002919213     0.000001401012    -0.000004106688
      15        0.000003954263     0.000006728314     0.000003802809
      16        0.000005948374     0.000006246456     0.000000704316
      17        0.000002098800    -0.000006724247    -0.000004788990
      18       -0.000004750959     0.000004407074    -0.000003470705
      19        0.000001445580     0.000000253975     0.000005876110
      20        0.000000225605    -0.000002333158    -0.000004071557
      21        0.000001604104    -0.000001408490     0.000002826692
      22       -0.000001053845     0.000001832917    -0.000002515282
      23        0.000001004661    -0.000000293274    -0.000000356306
      24       -0.000001083942     0.000000182056     0.000000134111
      25        0.000000764006     0.000000062199     0.000000034655
      26        0.000000452590    -0.000013540455    -0.000000797540
      27       -0.000001832051    -0.000000242278     0.000002786710
      28        0.000005266069    -0.000000860124    -0.000000075450
      29        0.000001322467     0.000002707267     0.000001928804

  **** Optimization is complete! (in 7 steps) ****
    Final optimized geometry and variables:
    Molecular point group: c1

    Geometry (in Angstrom), charge = 0, multiplicity = 1:

    O            3.015738282549     1.951257817020    -1.101119438536
    C            2.504603344743     1.026067773622    -0.556068341047
    C            1.056694520895     0.959771851159    -0.141498023360
    O            3.152019348934    -0.097614390083    -0.273146417011
    C            0.225961758111     0.185121943133    -1.178650362619
    H            0.994413702102     0.481888378839     0.828145272534
    H            0.696045860202     1.977297144114    -0.056872686214
    C           -1.278345824382     0.182484981497    -0.887111920846
    H            0.589548766124    -0.836911567530    -1.236526874502
    H            0.390934057501     0.633650668360    -2.154464251105
    C           -1.685676162297    -0.566837405124     0.384353722716
    H           -1.784270489364    -0.270455400424    -1.736690891930
    H           -1.635640161025     1.209188181951    -0.834039701329
    C           -3.202675237390    -0.635611601188     0.572021815558
    H           -1.280972336806    -1.577133638771     0.350274374877
    H           -1.244775416184    -0.090328276269     1.256643603010
    C           -3.622403008887    -1.377605589267     1.842207333369
    H           -3.650784690145    -1.122724223986    -0.292382378163
    H           -3.608697429654     0.374388224433     0.596113149048
    C           -5.138717190977    -1.445501413177     2.020630376330
    H           -3.216284382195    -2.386680368498     1.820380365625
    H           -3.179169897956    -0.889400001294     2.707572067346
    H           -5.404684932855    -1.976803575366     2.929211656580
    H           -5.608957237348    -1.959738828920     1.187182820142
    H           -5.571395038711    -0.450813324509     2.080510345830
    C            4.512086717644    -0.169852248068    -0.660191480343
    H            4.608588344046    -0.062222759242    -1.731013123436
    H            4.856401671493    -1.143953582328    -0.349393556627
    H            5.086979782342     0.604009100141    -0.172332655970

  Mulliken Charges: (a.u.)
   Center  Symbol    Alpha    Beta     Spin     Total
       1     O     4.28533  4.28533  0.00000 -0.57065
       2     C     2.61688  2.61688  0.00000  0.76623
       3     C     3.19539  3.19539  0.00000 -0.39078
       4     O     4.30293  4.30293  0.00000 -0.60585
       5     C     3.16758  3.16758  0.00000 -0.33516
       6     H     0.40244  0.40244  0.00000  0.19512
       7     H     0.40044  0.40044  0.00000  0.19912
       8     C     3.15455  3.15455  0.00000 -0.30911
       9     H     0.41100  0.41100  0.00000  0.17800
      10     H     0.40933  0.40933  0.00000  0.18133
      11     C     3.15522  3.15522  0.00000 -0.31044
      12     H     0.41822  0.41822  0.00000  0.16355
      13     H     0.42056  0.42056  0.00000  0.15887
      14     C     3.15068  3.15068  0.00000 -0.30137
      15     H     0.42230  0.42230  0.00000  0.15540
      16     H     0.42221  0.42221  0.00000  0.15557
      17     C     3.15157  3.15157  0.00000 -0.30315
      18     H     0.42345  0.42345  0.00000  0.15309
      19     H     0.42332  0.42332  0.00000  0.15335
      20     C     3.23944  3.23944  0.00000 -0.47888
      21     H     0.42281  0.42281  0.00000  0.15438
      22     H     0.42302  0.42302  0.00000  0.15397
      23     H     0.41901  0.41901  0.00000  0.16199
      24     H     0.42160  0.42160  0.00000  0.15680
      25     H     0.42154  0.42154  0.00000  0.15693
      26     C     3.09246  3.09246  0.00000 -0.18491
      27     H     0.40921  0.40921  0.00000  0.18158
      28     H     0.40890  0.40890  0.00000  0.18219
      29     H     0.40860  0.40860  0.00000  0.18281

   Total alpha = 44.00000, Total beta = 44.00000, Total charge =  0.00000
