  ==> Input File <==

--------------------------------------------------------------------------
set {
	reference rhf
	basis 6-31G*
}

set_num_threads( 4 )
memory 2 gb

molecule MOL {
0 1

H	 2.755374	 0.095757	 0.132873
N	 1.777673	 0.308958	 0.135786
C	 1.118673	 -0.346254	 1.250742
C	 1.173467	 -0.062445	 -1.130590
H	 1.589092	 -0.026899	 2.174586
H	 1.188052	 -1.435199	 1.195734
C	 -0.350415	 0.048782	 1.263270
H	 1.683568	 0.462438	 -1.931254
H	 1.246165	 -1.134201	 -1.329827
C	 -0.295655	 0.332415	 -1.116586
H	 -0.430092	 1.120230	 1.470028
H	 -0.862037	 -0.480762	 2.060373
N	 -0.975995	 -0.298722	 0.000000
H	 -0.767730	 0.007701	 -2.038135
H	 -0.371663	 1.422866	 -1.069270
C	 -2.393863	 -0.024976	 0.000000
H	 -2.854032	 -0.467193	 -0.876721
H	 -2.854032	 -0.467193	 0.876721
H	 -2.623281	 1.044943	 0.000000

	symmetry c1
}
set optking {
	frozen_dihedral = ("
		7 13 16 19
	")
}

ee = optimize('scf')
oeprop('DIPOLE', 'QUADRUPOLE', 'MULLIKEN_CHARGES')
f=open( 'psi4out.xyz', 'w' )
f.write( "19  " )
f.write( str(ee) + "\n" )
f.write( MOL.save_string_xyz() )
f.close()
--------------------------------------------------------------------------

    Molecular point group: c1
  Charge       = 0
  Multiplicity = 1
  Basis Set: 6-31G*
  Basis Set:
  @DF-RHF Final Energy:  -305.19948081212709
    Total Energy =                       -305.1994808121268079
    Molecular point group: c1
  Basis Set: 6-31G*
  Basis Set:
  Basis Set: 6-31G*
  Basis Set:
  @DF-RHF Final Energy:  -305.19951189614358
    Total Energy =                       -305.1995118961435765
  Basis Set: 6-31G*
  Basis Set:
  Charge       = 0
  Multiplicity = 1
  Basis Set: 6-31G*
  Basis Set:

    Orbital Energies (a.u.)
    -----------------------

    Doubly Occupied:

       1A    -15.540548     2A    -15.536653     3A    -11.238617
       4A    -11.238557     5A    -11.237200     6A    -11.237183
       7A    -11.234985     8A     -1.247286     9A     -1.185559
      10A     -1.023093    11A     -0.964627    12A     -0.860979
      13A     -0.857112    14A     -0.756810    15A     -0.691201
      16A     -0.633789    17A     -0.626728    18A     -0.607568
      19A     -0.603447    20A     -0.579849    21A     -0.543640
      22A     -0.528937    23A     -0.511948    24A     -0.490382
      25A     -0.466748    26A     -0.457075    27A     -0.363446
      28A     -0.344192

  @DF-RHF Final Energy:  -305.19951478708413

   => Energetics <=

    Nuclear Repulsion Energy =            339.8282883071923379
    One-Electron Energy =               -1086.8392876318523577
    Two-Electron Energy =                 441.8114845375757795
    DFT Exchange-Correlation Energy =       0.0000000000000000
    Empirical Dispersion Energy =           0.0000000000000000
    PCM Polarization Energy =               0.0000000000000000
    EFP Energy =                            0.0000000000000000
    Total Energy =                       -305.1995147870842402
    Molecular point group: c1
  Basis Set: 6-31G*
  Basis Set:

  -Total Gradient:
     Atom            X                  Y                   Z
    ------   -----------------  -----------------  -----------------
       1        0.000000154055    -0.000007676264     0.000009950562
       2        0.000008341936     0.000002432430     0.000012123867
       3       -0.000046867746    -0.000069185020    -0.000107682856
       4       -0.000035393756     0.000010934328     0.000019514996
       5       -0.000036426598     0.000009849586    -0.000003633724
       6        0.000031126178    -0.000016929957    -0.000003814787
       7       -0.000167298496    -0.000992470391     0.000518891948
       8        0.000003901621     0.000004017640    -0.000000551394
       9       -0.000003284322     0.000006080068     0.000004490175
      10        0.000045807260     0.000085933696    -0.000037395721
      11       -0.000028266549     0.000006310642    -0.000021348738
      12       -0.000004648216    -0.000019769188    -0.000048346003
      13        0.000311345549     0.001414357652    -0.001004966879
      14       -0.000020940151    -0.000023754728     0.000027714506
      15        0.000007630140    -0.000014892431    -0.000016921651
      16       -0.000151993788    -0.000367241734     0.002342962482
      17        0.000047987908     0.000004622254    -0.000015440672
      18        0.000024249702    -0.000027954740    -0.000013351247
      19        0.000014575276    -0.000004663846    -0.001662194864

  **** Optimization is complete! (in 3 steps) ****
    Final optimized geometry and variables:
    Molecular point group: c1

    Geometry (in Angstrom), charge = 0, multiplicity = 1:

    H            2.755845745327     0.096950255840     0.071750341124
    N            1.778204842223     0.310333407530     0.075572591157
    C            1.120624812788    -0.343431868481     1.192240184458
    C            1.172431105226    -0.062197764757    -1.189743191849
    H            1.594750078887    -0.026054681383     2.114897596639
    H            1.186977420562    -1.432548943058     1.136168716310
    C           -0.347501415225     0.055069149239     1.209992348695
    H            1.682548436623     0.460540309384    -1.991850265454
    H            1.243608771194    -1.134380849674    -1.387112933225
    C           -0.296071204814     0.334586811852    -1.174648137237
    H           -0.423632814224     1.125815731603     1.422079068607
    H           -0.858158138764    -0.477277639879     2.005538475117
    N           -0.974783865091    -0.287719641976    -0.053364635911
    H           -0.771493242097     0.005189967983    -2.092985835106
    H           -0.370755270767     1.425393729253    -1.133845581417
    C           -2.394349670160    -0.023168316938    -0.059318996753
    H           -2.842716270308    -0.456328826658    -0.947378400118
    H           -2.859809588921    -0.480494534422     0.805991895197
    H           -2.631181310858     1.045048859881    -0.056085788576

  Mulliken Charges: (a.u.)
   Center  Symbol    Alpha    Beta     Spin     Total
       1     H     0.32945  0.32945  0.00000  0.34110
       2     N     3.85426  3.85426  0.00000 -0.70851
       3     C     3.06369  3.06369  0.00000 -0.12738
       4     C     3.06352  3.06352  0.00000 -0.12703
       5     H     0.41763  0.41763  0.00000  0.16474
       6     H     0.42773  0.42773  0.00000  0.14455
       7     C     3.05396  3.05396  0.00000 -0.10792
       8     H     0.41760  0.41760  0.00000  0.16480
       9     H     0.42773  0.42773  0.00000  0.14455
      10     C     3.05417  3.05417  0.00000 -0.10834
      11     H     0.42825  0.42825  0.00000  0.14350
      12     H     0.41883  0.41883  0.00000  0.16234
      13     N     3.78904  3.78904  0.00000 -0.57807
      14     H     0.41879  0.41879  0.00000  0.16242
      15     H     0.42799  0.42799  0.00000  0.14402
      16     C     3.13951  3.13951  0.00000 -0.27901
      17     H     0.41700  0.41700  0.00000  0.16600
      18     H     0.41750  0.41750  0.00000  0.16499
      19     H     0.43336  0.43336  0.00000  0.13328

   Total alpha = 28.00000, Total beta = 28.00000, Total charge =  0.00000
