  ==> Input File <==

--------------------------------------------------------------------------
set {
	reference rhf
	basis 6-31G*
}

set_num_threads( 4 )
memory 2 gb

molecule MOL {
0 1

H	 -0.216825	 0.021369	 -3.357402
C	 0.374198	 0.036393	 -2.447010
C	 -0.521757	 -0.028637	 -1.217342
H	 0.969602	 0.942322	 -2.434777
H	 1.053364	 -0.811668	 -2.481329
N	 0.263400	 0.031178	 0.000000
H	 -1.199035	 0.820290	 -1.219355
H	 -1.147901	 -0.924895	 -1.265384
C	 -0.521757	 -0.028637	 1.217342
H	 0.935769	 -0.712709	 0.000000
C	 -0.704750	 -1.468823	 1.677154
H	 0.007781	 0.529970	 1.983458
H	 -1.500039	 0.449025	 1.105772
H	 0.258015	 -1.941913	 1.834101
H	 -1.267468	 -1.510200	 2.604507
H	 -1.247911	 -2.049894	 0.936220

	symmetry c1
}
set optking {
	frozen_dihedral = ("
		12 9 6 3
	")
}

ee = optimize('scf')
oeprop('DIPOLE', 'QUADRUPOLE', 'MULLIKEN_CHARGES')
f=open( 'psi4out.xyz', 'w' )
f.write( "16  " )
f.write( str(ee) + "\n" )
f.write( MOL.save_string_xyz() )
f.close()
--------------------------------------------------------------------------

    Molecular point group: c1
  Charge       = 0
  Multiplicity = 1
  Basis Set: 6-31G*
  Basis Set:
  @DF-RHF Final Energy:  -212.30839233917720
    Total Energy =                       -212.3083923391770895
    Molecular point group: c1
  Basis Set: 6-31G*
  Basis Set:
  Basis Set: 6-31G*
  Basis Set:
  @DF-RHF Final Energy:  -212.31016995875066
    Total Energy =                       -212.3101699587505777
  Basis Set: 6-31G*
  Basis Set:
  Basis Set: 6-31G*
  Basis Set:
  @DF-RHF Final Energy:  -212.31042518961425
    Total Energy =                       -212.3104251896143637
  Basis Set: 6-31G*
  Basis Set:
  Basis Set: 6-31G*
  Basis Set:
  @DF-RHF Final Energy:  -212.31043953258319
    Total Energy =                       -212.3104395325831319
  Basis Set: 6-31G*
  Basis Set:
  Basis Set: 6-31G*
  Basis Set:
  @DF-RHF Final Energy:  -212.31044118390216
    Total Energy =                       -212.3104411839021282
  Basis Set: 6-31G*
  Basis Set:
  Charge       = 0
  Multiplicity = 1
  Basis Set: 6-31G*
  Basis Set:

    Orbital Energies (a.u.)
    -----------------------

    Doubly Occupied:

       1A    -15.531404     2A    -11.240764     3A    -11.240339
       4A    -11.210067     5A    -11.207828     6A     -1.201679
       7A     -1.025768     8A     -0.964203     9A     -0.843038
      10A     -0.817048    11A     -0.648153    12A     -0.626944
      13A     -0.618387    14A     -0.566918    15A     -0.558579
      16A     -0.528476    17A     -0.509455    18A     -0.491804
      19A     -0.487801    20A     -0.473359    21A     -0.351397

  @DF-RHF Final Energy:  -212.31044127217547

   => Energetics <=

    Nuclear Repulsion Energy =            190.4319911492934239
    One-Electron Energy =                -663.1980439624394421
    Two-Electron Energy =                 260.4556115409705512
    DFT Exchange-Correlation Energy =       0.0000000000000000
    Empirical Dispersion Energy =           0.0000000000000000
    PCM Polarization Energy =               0.0000000000000000
    EFP Energy =                            0.0000000000000000
    Total Energy =                       -212.3104412721754670
    Molecular point group: c1
  Basis Set: 6-31G*
  Basis Set:

  -Total Gradient:
     Atom            X                  Y                   Z
    ------   -----------------  -----------------  -----------------
       1        0.000000259684    -0.000000312396     0.000003434184
       2        0.000005142752    -0.000010704147     0.000003310567
       3       -0.000252828231     0.002267904360     0.000009396801
       4       -0.000005166416     0.000001925100     0.000001147466
       5        0.000003182932    -0.000001071400    -0.000002414299
       6        0.000004507684    -0.002686672158    -0.000183364404
       7       -0.000004015103     0.000000796892     0.000000023291
       8        0.000002277589     0.000002435662    -0.000001316793
       9        0.001738143992    -0.001927335885     0.000886615287
      10        0.000009348730    -0.000003872759    -0.000006850098
      11        0.000005878184     0.000019064229     0.000000645966
      12       -0.001492681059     0.002353187949    -0.000722079257
      13       -0.000009505438     0.000010578006     0.000007753753
      14       -0.000001231469    -0.000008423774     0.000002432675
      15        0.000000784781    -0.000009106801    -0.000000698925
      16       -0.000004098613    -0.000008392877     0.000001963785

  **** Optimization is complete! (in 6 steps) ****
    Final optimized geometry and variables:
    Molecular point group: c1

    Geometry (in Angstrom), charge = 0, multiplicity = 1:

    H            0.004383054119     0.364955300554    -3.217627452905
    C            0.593372555394     0.384240780390    -2.305964239598
    C           -0.301559793599     0.262364538109    -1.079709094815
    H            1.154462328071     1.311373720315    -2.274216418290
    H            1.303532564977    -0.437310549580    -2.355604141386
    N            0.484365707811     0.341864660420     0.136338990876
    H           -1.010261203557     1.084484249632    -1.070291529152
    H           -0.890867604005    -0.656140678269    -1.153266823123
    C           -0.258002315188     0.255729213460     1.382393466491
    H            1.227116986462    -0.329730026945     0.120927228695
    C           -0.522641812711    -1.163276758667     1.887240073587
    H            0.268974973929     0.826913675049     2.141609222098
    H           -1.203632562296     0.768934938625     1.237193180805
    H            0.410759427033    -1.686826371527     2.078204019879
    H           -1.085627107703    -1.146481856691     2.816051784542
    H           -1.088356327909    -1.743165347655     1.164345186011

  Mulliken Charges: (a.u.)
   Center  Symbol    Alpha    Beta     Spin     Total
       1     H     0.42025  0.42025  0.00000  0.15949
       2     C     3.24274  3.24274  0.00000 -0.48549
       3     C     3.05201  3.05201  0.00000 -0.10402
       4     H     0.41200  0.41200  0.00000  0.17600
       5     H     0.42494  0.42494  0.00000  0.15011
       6     N     3.85311  3.85311  0.00000 -0.70623
       7     H     0.42023  0.42023  0.00000  0.15954
       8     H     0.43567  0.43567  0.00000  0.12865
       9     C     3.05499  3.05499  0.00000 -0.10998
      10     H     0.33463  0.33463  0.00000  0.33074
      11     C     3.24716  3.24716  0.00000 -0.49432
      12     H     0.41715  0.41715  0.00000  0.16570
      13     H     0.42164  0.42164  0.00000  0.15673
      14     H     0.42371  0.42371  0.00000  0.15258
      15     H     0.42030  0.42030  0.00000  0.15940
      16     H     0.41946  0.41946  0.00000  0.16109

   Total alpha = 21.00000, Total beta = 21.00000, Total charge =  0.00000
