  ==> Input File <==

--------------------------------------------------------------------------
set {
	reference rhf
	basis 6-31G*
}

set_num_threads( 1 )
memory 2 gb

molecule MOL {
0 1

H	 -3.420663	 1.227371	 -1.044276
O	 -3.452007	 0.283848	 -0.965577
C	 -3.181085	 -0.079926	 0.364119
C	 -1.765924	 0.277073	 0.805136
H	 -3.327791	 -1.152017	 0.410903
H	 -3.905698	 0.375695	 1.036898
C	 -0.677594	 -0.417312	 -0.014550
H	 -1.637766	 1.358238	 0.744969
H	 -1.659588	 0.017670	 1.857098
C	 -0.028044	 0.502006	 -1.050947
H	 -1.103014	 -1.284877	 -0.509584
H	 0.087321	 -0.796301	 0.661220
C	 1.064374	 -0.198407	 -1.863431
H	 -0.798282	 0.884645	 -1.716332
H	 0.399652	 1.368831	 -0.548656
C	 1.806260	 0.705832	 -2.854447
H	 0.629061	 -1.038846	 -2.401818
H	 1.791045	 -0.624281	 -1.174666
C	 0.942946	 1.235847	 -4.000823
H	 2.637895	 0.145837	 -3.275253
H	 2.246566	 1.543334	 -2.316930
H	 0.479116	 0.420118	 -4.549080
H	 1.542990	 1.805811	 -4.703621
H	 0.151788	 1.888025	 -3.646001

	symmetry c1
}
set optking {
	frozen_dihedral = ("
		20 16 13 17,
		17 13 10 7,
		13 10 7 11,
		1 2 3 5,
		7 4 3 2
	")
}

ee = energy('scf')
oeprop('DIPOLE', 'QUADRUPOLE', 'MULLIKEN_CHARGES')
f=open( 'psi4out.xyz', 'w' )
f.write( "24  " )
f.write( str(ee) + "\n" )
f.write( MOL.save_string_xyz() )
f.close()
--------------------------------------------------------------------------

    Molecular point group: c1

    Geometry (in Angstrom), charge = 0, multiplicity = 1:

       Center              X                  Y                   Z               Mass
    ------------   -----------------  -----------------  -----------------  -----------------
           H         -2.704018876977     0.925711177010     0.162788448541     1.007825032070
           O         -2.735362876977    -0.017811822990     0.241487448541    15.994914619560
           C         -2.464440876977    -0.381585822990     1.571183448541    12.000000000000
           C         -1.049279876977    -0.024586822990     2.012200448541    12.000000000000
           H         -2.611146876977    -1.453676822990     1.617967448541     1.007825032070
           H         -3.189053876977     0.074035177010     2.243962448541     1.007825032070
           C          0.039050123023    -0.718971822990     1.192514448541    12.000000000000
           H         -0.921121876977     1.056578177010     1.952033448541     1.007825032070
           H         -0.942943876977    -0.283989822990     3.064162448541     1.007825032070
           C          0.688600123023     0.200346177010     0.156117448541    12.000000000000
           H         -0.386369876977    -1.586536822990     0.697480448541     1.007825032070
           H          0.803965123023    -1.097960822990     1.868284448541     1.007825032070
           C          1.781018123023    -0.500066822990    -0.656366551459    12.000000000000
           H         -0.081637876977     0.582985177010    -0.509267551459     1.007825032070
           H          1.116296123023     1.067171177010     0.658408448541     1.007825032070
           C          2.522904123023     0.404172177010    -1.647382551459    12.000000000000
           H          1.345705123023    -1.340505822990    -1.194753551459     1.007825032070
           H          2.507689123023    -0.925940822990     0.032398448541     1.007825032070
           C          1.659590123023     0.934187177010    -2.793758551459    12.000000000000
           H          3.354539123023    -0.155822822990    -2.068188551459     1.007825032070
           H          2.963210123023     1.241674177010    -1.109865551459     1.007825032070
           H          1.195760123023     0.118458177010    -3.342015551459     1.007825032070
           H          2.259634123023     1.504151177010    -3.496556551459     1.007825032070
           H          0.868432123023     1.586365177010    -2.438936551459     1.007825032070

  Charge       = 0
  Multiplicity = 1
  Basis Set: 6-31G*
  Basis Set:

    Orbital Energies (a.u.)
    -----------------------

    Doubly Occupied:

       1A    -20.554814     2A    -11.267968     3A    -11.216391
       4A    -11.212414     5A    -11.211291     6A    -11.209759
       7A    -11.209135     8A    -11.205294     9A     -1.361211
      10A     -1.087165    11A     -1.047444    12A     -0.983899
      13A     -0.913921    14A     -0.851172    15A     -0.800029
      16A     -0.775054    17A     -0.679970    18A     -0.648979
      19A     -0.631904    20A     -0.613755    21A     -0.600276
      22A     -0.576854    23A     -0.555730    24A     -0.532587
      25A     -0.528417    26A     -0.509445    27A     -0.490085
      28A     -0.482126    29A     -0.468094    30A     -0.458063
      31A     -0.453299    32A     -0.440670    33A     -0.418972

  @DF-RHF Final Energy:  -349.24340181576713

   => Energetics <=

    Nuclear Repulsion Energy =            393.1130081336472131
    One-Electron Energy =               -1252.7209449233903342
    Two-Electron Energy =                 510.3645349739759354
    DFT Exchange-Correlation Energy =       0.0000000000000000
    Empirical Dispersion Energy =           0.0000000000000000
    PCM Polarization Energy =               0.0000000000000000
    EFP Energy =                            0.0000000000000000
    Total Energy =                       -349.2434018157671858

  Mulliken Charges: (a.u.)
   Center  Symbol    Alpha    Beta     Spin     Total
       1     H     0.28294  0.28294  0.00000  0.43413
       2     O     4.36805  4.36805  0.00000 -0.73609
       3     C     2.99821  2.99821  0.00000  0.00358
       4     C     3.17157  3.17157  0.00000 -0.34314
       5     H     0.41590  0.41590  0.00000  0.16820
       6     H     0.42893  0.42893  0.00000  0.14213
       7     C     3.15093  3.15093  0.00000 -0.30186
       8     H     0.42555  0.42555  0.00000  0.14890
       9     H     0.41970  0.41970  0.00000  0.16059
      10     C     3.15632  3.15632  0.00000 -0.31264
      11     H     0.41491  0.41491  0.00000  0.17017
      12     H     0.42244  0.42244  0.00000  0.15512
      13     C     3.15325  3.15325  0.00000 -0.30650
      14     H     0.41700  0.41700  0.00000  0.16600
      15     H     0.42694  0.42694  0.00000  0.14613
      16     C     3.15234  3.15234  0.00000 -0.30468
      17     H     0.42238  0.42238  0.00000  0.15523
      18     H     0.42366  0.42366  0.00000  0.15267
      19     C     3.24034  3.24034  0.00000 -0.48068
      20     H     0.42155  0.42155  0.00000  0.15690
      21     H     0.42457  0.42457  0.00000  0.15087
      22     H     0.42094  0.42094  0.00000  0.15813
      23     H     0.42027  0.42027  0.00000  0.15946
      24     H     0.42132  0.42132  0.00000  0.15737

   Total alpha = 33.00000, Total beta = 33.00000, Total charge =  0.00000
