  ==> Input File <==

--------------------------------------------------------------------------
set {
	reference rhf
	basis 6-31G*
}

set_num_threads( 1 )
memory 2 gb

molecule MOL {
0 1

H	 -0.845142	 2.167089	 -2.952414
O	 -1.286252	 1.469921	 -2.487907
C	 -0.695509	 1.294636	 -1.228031
C	 0.648712	 0.597635	 -1.341728
H	 -0.574088	 2.240120	 -0.706807
H	 -1.371099	 0.682965	 -0.646751
O	 1.171513	 0.459272	 -0.058250
H	 1.322810	 1.183967	 -1.969253
H	 0.518510	 -0.371299	 -1.820057
C	 2.397842	 -0.198080	 -0.002151
H	 2.508049	 -0.905315	 -0.822092
H	 3.173794	 0.550865	 -0.078850
H	 2.517602	 -0.735921	 0.936026

	symmetry c1
}
set optking {
	frozen_dihedral = ("
		8 4 3 5,
		1 2 3 5,
		10 7 4 8
	")
}

ee = energy('scf')
oeprop('DIPOLE', 'QUADRUPOLE', 'MULLIKEN_CHARGES')
f=open( 'psi4out.xyz', 'w' )
f.write( "13  " )
f.write( str(ee) + "\n" )
f.write( MOL.save_string_xyz() )
f.close()
--------------------------------------------------------------------------

    Molecular point group: c1

    Geometry (in Angstrom), charge = 0, multiplicity = 1:

       Center              X                  Y                   Z               Mass
    ------------   -----------------  -----------------  -----------------  -----------------
           H         -1.288053168112     1.430259178374    -1.904298198054     1.007825032070
           O         -1.729163168112     0.733091178374    -1.439791198054    15.994914619560
           C         -1.138420168112     0.557806178374    -0.179915198054    12.000000000000
           C          0.205800831888    -0.139194821626    -0.293612198054    12.000000000000
           H         -1.016999168112     1.503290178374     0.341308801946     1.007825032070
           H         -1.814010168112    -0.053864821626     0.401364801946     1.007825032070
           O          0.728601831888    -0.277557821626     0.989865801946    15.994914619560
           H          0.879898831888     0.447137178374    -0.921137198054     1.007825032070
           H          0.075598831888    -1.108128821626    -0.771941198054     1.007825032070
           C          1.954930831888    -0.934909821626     1.045964801946    12.000000000000
           H          2.065137831888    -1.642144821626     0.226023801946     1.007825032070
           H          2.730882831888    -0.185964821626     0.969265801946     1.007825032070
           H          2.074690831888    -1.472750821626     1.984141801946     1.007825032070

  Charge       = 0
  Multiplicity = 1
  Basis Set: 6-31G*
  Basis Set:

    Orbital Energies (a.u.)
    -----------------------

    Doubly Occupied:

       1A    -20.560143     2A    -20.560134     3A    -11.271513
       4A    -11.269882     5A    -11.268868     6A     -1.388112
       7A     -1.365122     8A     -1.018088     9A     -0.913151
      10A     -0.842540    11A     -0.709596    12A     -0.674391
      13A     -0.657618    14A     -0.637903    15A     -0.597227
      16A     -0.570327    17A     -0.544947    18A     -0.490230
      19A     -0.481919    20A     -0.438446    21A     -0.418497

  @DF-RHF Final Energy:  -267.94770545589722

   => Energetics <=

    Nuclear Repulsion Energy =            190.2877819324632753
    One-Electron Energy =                -743.1136862280071682
    Two-Electron Energy =                 284.8781988396472116
    DFT Exchange-Correlation Energy =       0.0000000000000000
    Empirical Dispersion Energy =           0.0000000000000000
    PCM Polarization Energy =               0.0000000000000000
    EFP Energy =                            0.0000000000000000
    Total Energy =                       -267.9477054558966529

  Mulliken Charges: (a.u.)
   Center  Symbol    Alpha    Beta     Spin     Total
       1     H     0.28126  0.28126  0.00000  0.43748
       2     O     4.37087  4.37087  0.00000 -0.74174
       3     C     3.00481  3.00481  0.00000 -0.00962
       4     C     2.99731  2.99731  0.00000  0.00537
       5     H     0.42226  0.42226  0.00000  0.15547
       6     H     0.40838  0.40838  0.00000  0.18324
       7     O     4.30904  4.30904  0.00000 -0.61807
       8     H     0.43797  0.43797  0.00000  0.12406
       9     H     0.42236  0.42236  0.00000  0.15528
      10     C     3.07888  3.07888  0.00000 -0.15776
      11     H     0.42889  0.42889  0.00000  0.14221
      12     H     0.42451  0.42451  0.00000  0.15098
      13     H     0.41345  0.41345  0.00000  0.17309

   Total alpha = 21.00000, Total beta = 21.00000, Total charge = -0.00000
