  ==> Input File <==

--------------------------------------------------------------------------
set {
	reference rhf
	basis cc-pvtz
}

set_num_threads( 4 )
memory 2 gb

molecule MOL {
0 1

H	 2.753258	 0.103515	 -0.061337
N	 1.779071	 0.312961	 -0.062321
C	 1.158107	 -0.133481	 1.168507
C	 1.132707	 -0.262860	 -1.224426
H	 1.653033	 0.340801	 2.007229
H	 1.233016	 -1.214311	 1.301972
C	 -0.309564	 0.253778	 1.161575
H	 1.609229	 0.117671	 -2.119677
H	 1.206012	 -1.351865	 -1.242147
C	 -0.334931	 0.124568	 -1.228222
H	 -0.389540	 1.344464	 1.186021
H	 -0.789072	 -0.130511	 2.054051
N	 -0.976577	 -0.298712	 -0.000000
H	 -0.832779	 -0.353147	 -2.063719
H	 -0.416653	 1.206353	 -1.368412
C	 -2.391156	 -0.021003	 -0.000000
H	 -2.853954	 -0.458728	 -0.875714
H	 -2.853954	 -0.458728	 0.875714
H	 -2.614037	 1.049773	 -0.000000

	symmetry c1
}
set optking {
	frozen_dihedral = ("
		7 13 16 19
	")
}

ee = optimize('scf')
oeprop('DIPOLE', 'QUADRUPOLE', 'MULLIKEN_CHARGES')
f=open( 'psi4out.xyz', 'w' )
f.write( "19  " )
f.write( str(ee) + "\n" )
f.write( MOL.save_string_xyz() )
f.close()
--------------------------------------------------------------------------

    Molecular point group: c1
  Charge       = 0
  Multiplicity = 1
  Basis Set: CC-PVTZ
  Basis Set:
  @DF-RHF Final Energy:  -305.30905129835213
    Total Energy =                       -305.3090512983521876
    Molecular point group: c1
  Basis Set: CC-PVTZ
  Basis Set:
  Basis Set: CC-PVTZ
  Basis Set:
  @DF-RHF Final Energy:  -305.30905653007000
    Total Energy =                       -305.3090565300699382
  Basis Set: CC-PVTZ
  Basis Set:
  Charge       = 0
  Multiplicity = 1
  Basis Set: CC-PVTZ
  Basis Set:

    Orbital Energies (a.u.)
    -----------------------

    Doubly Occupied:

       1A    -15.536759     2A    -15.531264     3A    -11.237333
       4A    -11.237302     5A    -11.235872     6A    -11.235857
       7A    -11.233253     8A     -1.249543     9A     -1.187929
      10A     -1.024008    11A     -0.965836    12A     -0.861799
      13A     -0.858284    14A     -0.757662    15A     -0.692875
      16A     -0.635269    17A     -0.627621    18A     -0.609627
      19A     -0.605392    20A     -0.581517    21A     -0.543680
      22A     -0.529015    23A     -0.512507    24A     -0.490601
      25A     -0.467828    26A     -0.458368    27A     -0.366102
      28A     -0.348509

  @DF-RHF Final Energy:  -305.30905682721180

   => Energetics <=

    Nuclear Repulsion Energy =            340.3477998095515318
    One-Electron Energy =               -1088.0704915509468265
    Two-Electron Energy =                 442.4136349141836035
    DFT Exchange-Correlation Energy =       0.0000000000000000
    Empirical Dispersion Energy =           0.0000000000000000
    PCM Polarization Energy =               0.0000000000000000
    EFP Energy =                            0.0000000000000000
    Total Energy =                       -305.3090568272116343
    Molecular point group: c1
  Basis Set: CC-PVTZ
  Basis Set:

  -Total Gradient:
     Atom            X                  Y                   Z
    ------   -----------------  -----------------  -----------------
       1        0.000001651585    -0.000001426673    -0.000004487173
       2        0.000004164557     0.000021924286    -0.000004894122
       3        0.000005556467     0.000018240939     0.000029348580
       4       -0.000003169854    -0.000029020851     0.000007383296
       5        0.000012683875    -0.000000594802    -0.000001519390
       6       -0.000009673883     0.000003975528     0.000000278635
       7        0.000079029225     0.000418220166    -0.000296658057
       8       -0.000004825243     0.000003248511     0.000005494542
       9        0.000006481417    -0.000005840056    -0.000002909853
      10       -0.000024208045    -0.000023212317     0.000009490080
      11        0.000010441752    -0.000000138609     0.000005664978
      12        0.000002429875     0.000009606426     0.000021927841
      13       -0.000117452982    -0.000596793746     0.000570769430
      14        0.000006808468     0.000006101955    -0.000015154729
      15       -0.000006233699     0.000009293019     0.000008665196
      16        0.000056305689     0.000156004732    -0.001083309225
      17       -0.000019024946    -0.000002708465    -0.000001820621
      18        0.000001800842     0.000007963181     0.000003797149
      19       -0.000002765098     0.000005156776     0.000747933450

  **** Optimization is complete! (in 3 steps) ****
    Final optimized geometry and variables:
    Molecular point group: c1

    Geometry (in Angstrom), charge = 0, multiplicity = 1:

    H            2.753865337357     0.104587313725    -0.033534816115
    N            1.779570815546     0.313871443762    -0.034829752922
    C            1.157754748698    -0.132622207335     1.195389751878
    C            1.133586703074    -0.260688718657    -1.197605355210
    H            1.651298691056     0.342104433351     2.034785736685
    H            1.233107138062    -1.213428771599     1.329322051812
    C           -0.310290455390     0.253542697429     1.186427954706
    H            1.610205091354     0.120595873118    -2.092576976091
    H            1.206850507705    -1.349769670269    -1.216434903758
    C           -0.334373951881     0.126213177950    -1.201691547242
    H           -0.390958789671     1.344227537257     1.208543583694
    H           -0.790510202685    -0.128947859882     2.079532223625
    N           -0.976717968404    -0.300643800456     0.025273280418
    H           -0.831000031253    -0.349795553438    -2.038887936653
    H           -0.416090691586     1.208382378005    -1.339495990165
    C           -2.390878096756    -0.020010873104     0.026955566236
    H           -2.857776031151    -0.461742135390    -0.844302211312
    H           -2.851687919474    -0.451602266457     0.907200117795
    H           -2.611347336406     1.051262915586     0.025796578278

  Mulliken Charges: (a.u.)
   Center  Symbol    Alpha    Beta     Spin     Total
       1     H     0.43996  0.43996  0.00000  0.12008
       2     N     3.64289  3.64289  0.00000 -0.28578
       3     C     3.04063  3.04063  0.00000 -0.08126
       4     C     3.04084  3.04084  0.00000 -0.08167
       5     H     0.45242  0.45242  0.00000  0.09516
       6     H     0.46533  0.46533  0.00000  0.06935
       7     C     3.03477  3.03477  0.00000 -0.06954
       8     H     0.45243  0.45243  0.00000  0.09514
       9     H     0.46535  0.46535  0.00000  0.06930
      10     C     3.03426  3.03426  0.00000 -0.06852
      11     H     0.46814  0.46814  0.00000  0.06371
      12     H     0.45413  0.45413  0.00000  0.09175
      13     N     3.61438  3.61438  0.00000 -0.22876
      14     H     0.45401  0.45401  0.00000  0.09198
      15     H     0.46859  0.46859  0.00000  0.06282
      16     C     3.09692  3.09692  0.00000 -0.19384
      17     H     0.45250  0.45250  0.00000  0.09500
      18     H     0.45220  0.45220  0.00000  0.09560
      19     H     0.47027  0.47027  0.00000  0.05947

   Total alpha = 28.00000, Total beta = 28.00000, Total charge =  0.00000
