  ==> Input File <==

--------------------------------------------------------------------------
set {
	reference rhf
	basis cc-pvtz
}

set_num_threads( 4 )
memory 2 gb

molecule MOL {
0 1

H	 1.914133	 2.240228	 0.851051
N	 1.063089	 1.725566	 0.770821
C	 1.263552	 0.494993	 0.021953
H	 0.402615	 2.318068	 0.312507
C	 -0.016533	 -0.325589	 -0.026925
H	 2.035909	 -0.077034	 0.525186
H	 1.616490	 0.669944	 -0.995304
C	 -1.280353	 0.525521	 0.047747
H	 -0.016686	 -0.912532	 -0.939714
H	 -0.014099	 -1.037598	 0.796369
C	 -2.560681	 -0.301323	 -0.007747
H	 -1.279957	 1.241025	 -0.770189
H	 -1.270445	 1.110526	 0.963468
H	 -2.617064	 -0.872870	 -0.928010
H	 -3.439525	 0.331102	 0.043462
H	 -2.609427	 -1.002736	 0.818585

	symmetry c1
}
set optking {
	frozen_dihedral = ("
		6 3 5 9
	")
}

ee = optimize('scf')
oeprop('DIPOLE', 'QUADRUPOLE', 'MULLIKEN_CHARGES')
f=open( 'psi4out.xyz', 'w' )
f.write( "16  " )
f.write( str(ee) + "\n" )
f.write( MOL.save_string_xyz() )
f.close()
--------------------------------------------------------------------------

    Molecular point group: c1
  Charge       = 0
  Multiplicity = 1
  Basis Set: CC-PVTZ
  Basis Set:
  @DF-RHF Final Energy:  -212.39235617207163
    Total Energy =                       -212.3923561720715156
    Molecular point group: c1
  Basis Set: CC-PVTZ
  Basis Set:
  Basis Set: CC-PVTZ
  Basis Set:
  @DF-RHF Final Energy:  -212.39305044616941
    Total Energy =                       -212.3930504461695818
  Basis Set: CC-PVTZ
  Basis Set:
  Basis Set: CC-PVTZ
  Basis Set:
  @DF-RHF Final Energy:  -212.39453722221481
    Total Energy =                       -212.3945372222147512
  Basis Set: CC-PVTZ
  Basis Set:
  Basis Set: CC-PVTZ
  Basis Set:
  @DF-RHF Final Energy:  -212.39464859194641
    Total Energy =                       -212.3946485919462930
  Basis Set: CC-PVTZ
  Basis Set:
  Basis Set: CC-PVTZ
  Basis Set:
  @DF-RHF Final Energy:  -212.39465469435731
    Total Energy =                       -212.3946546943573708
  Basis Set: CC-PVTZ
  Basis Set:
  Basis Set: CC-PVTZ
  Basis Set:
  @DF-RHF Final Energy:  -212.39465881886576
    Total Energy =                       -212.3946588188657643
  Basis Set: CC-PVTZ
  Basis Set:
  Charge       = 0
  Multiplicity = 1
  Basis Set: CC-PVTZ
  Basis Set:

    Orbital Energies (a.u.)
    -----------------------

    Doubly Occupied:

       1A    -15.526028     2A    -11.239254     3A    -11.209239
       4A    -11.208297     5A    -11.203999     6A     -1.177467
       7A     -1.055265     8A     -0.959204     9A     -0.852717
      10A     -0.776886    11A     -0.666365    12A     -0.647774
      13A     -0.597322    14A     -0.584277    15A     -0.547852
      16A     -0.525151    17A     -0.510201    18A     -0.471850
      19A     -0.465338    20A     -0.452420    21A     -0.381863

  @DF-RHF Final Energy:  -212.39465939502568

   => Energetics <=

    Nuclear Repulsion Energy =            189.6574598723861698
    One-Electron Energy =                -661.9867024648896177
    Two-Electron Energy =                 259.9345831974777070
    DFT Exchange-Correlation Energy =       0.0000000000000000
    Empirical Dispersion Energy =           0.0000000000000000
    PCM Polarization Energy =               0.0000000000000000
    EFP Energy =                            0.0000000000000000
    Total Energy =                       -212.3946593950257125
    Molecular point group: c1
  Basis Set: CC-PVTZ
  Basis Set:

  -Total Gradient:
     Atom            X                  Y                   Z
    ------   -----------------  -----------------  -----------------
       1       -0.000001738321    -0.000008869469    -0.000003564147
       2       -0.000002285052    -0.000025572907    -0.000010874591
       3        0.001280559020    -0.002175715041    -0.007925722482
       4       -0.000002160565    -0.000006949874    -0.000002512003
       5        0.003512285345    -0.005437678894     0.005110922370
       6       -0.001611710979     0.002691409046     0.005932969367
       7        0.000003787133     0.000002782637     0.000000059773
       8        0.000012801386     0.000006777956     0.000004313923
       9       -0.003186896058     0.004962356321    -0.003109568623
      10       -0.000004746418     0.000002712033     0.000000306224
      11       -0.000007120612    -0.000011069883     0.000002720641
      12        0.000007967056    -0.000001810477     0.000000390918
      13       -0.000002015018     0.000001917353     0.000002333228
      14       -0.000000773204     0.000000325420    -0.000001253577
      15        0.000003768179     0.000001066147    -0.000000083723
      16       -0.000001721890    -0.000001680369    -0.000000437298

  **** Optimization is complete! (in 7 steps) ****
    Final optimized geometry and variables:
    Molecular point group: c1

    Geometry (in Angstrom), charge = 0, multiplicity = 1:

    H            2.351828428981     1.708864330262     0.727432621629
    N            1.452245082903     1.290676266029     0.622134889984
    C            1.549096263906     0.067956124932    -0.167788080385
    H            0.865592604916     1.967267206675     0.182644961913
    C            0.251597718616    -0.754688393304    -0.147054567115
    H            2.329851444208    -0.513336616814     0.307503672151
    H            1.846306011713     0.258606847970    -1.197507406627
    C           -1.036995110906     0.069646184200    -0.118889948200
    H            0.217481733924    -1.347840408707    -1.056645859930
    H            0.254978301130    -1.432190585796     0.699424105739
    C           -2.285118646387    -0.803859783813    -0.195744833101
    H           -1.041484197243     0.766868063794    -0.954624200387
    H           -1.070661883042     0.665047266155     0.784675690339
    H           -2.303450178358    -1.387209794113    -1.110497353863
    H           -3.186797882244    -0.202658123363    -0.169000964101
    H           -2.326361627122    -1.497567290394     0.637514562524

  Mulliken Charges: (a.u.)
   Center  Symbol    Alpha    Beta     Spin     Total
       1     H     0.42933  0.42933  0.00000  0.14134
       2     N     3.69234  3.69234  0.00000 -0.38468
       3     C     3.03635  3.03635  0.00000 -0.07271
       4     H     0.42716  0.42716  0.00000  0.14568
       5     C     3.07565  3.07565  0.00000 -0.15131
       6     H     0.45504  0.45504  0.00000  0.08992
       7     H     0.46318  0.46318  0.00000  0.07364
       8     C     3.09398  3.09398  0.00000 -0.18796
       9     H     0.45776  0.45776  0.00000  0.08448
      10     H     0.45445  0.45445  0.00000  0.09110
      11     C     3.15107  3.15107  0.00000 -0.30214
      12     H     0.45804  0.45804  0.00000  0.08393
      13     H     0.44553  0.44553  0.00000  0.10894
      14     H     0.45660  0.45660  0.00000  0.08679
      15     H     0.44905  0.44905  0.00000  0.10189
      16     H     0.45446  0.45446  0.00000  0.09108

   Total alpha = 21.00000, Total beta = 21.00000, Total charge = -0.00000
