  ==> Input File <==

--------------------------------------------------------------------------
set {
	reference rhf
	basis 6-31G*
}

set_num_threads( 4 )
memory 2 gb

molecule MOL {
0 1

O	 1.072710	 1.122575	 -0.639769
C	 1.122059	 0.121804	 -0.000188
C	 0.030764	 -0.397198	 0.904027
O	 2.172624	 -0.688929	 0.000216
C	 -1.203068	 0.499241	 0.941414
H	 -0.220723	 -1.399232	 0.567224
H	 0.460054	 -0.517693	 1.894958
C	 -2.292348	 -0.049105	 1.864534
H	 -1.595252	 0.611304	 -0.064636
H	 -0.913389	 1.494311	 1.264562
C	 -3.531733	 0.843621	 1.908925
H	 -2.578335	 -1.046535	 1.536785
H	 -1.893333	 -0.161874	 2.870586
H	 -3.974387	 0.948178	 0.922629
H	 -4.288249	 0.432347	 2.569843
H	 -3.284605	 1.838949	 2.266540
C	 3.452279	 -0.082609	 0.000533
H	 3.583069	 0.529321	 -0.880332
H	 4.163299	 -0.894027	 0.001117
H	 3.582335	 0.529955	 0.881077

	symmetry c1
}
set optking {
	frozen_dihedral = ("
		1 2 4 17
	")
}

ee = optimize('scf')
oeprop('DIPOLE', 'QUADRUPOLE', 'MULLIKEN_CHARGES')
f=open( 'psi4out.xyz', 'w' )
f.write( "20  " )
f.write( str(ee) + "\n" )
f.write( MOL.save_string_xyz() )
f.close()
--------------------------------------------------------------------------

    Molecular point group: c1
  Charge       = 0
  Multiplicity = 1
  Basis Set: 6-31G*
  Basis Set:
  @DF-RHF Final Energy:  -383.93306207326475
    Total Energy =                       -383.9330620732647503
    Molecular point group: c1
  Basis Set: 6-31G*
  Basis Set:
  Basis Set: 6-31G*
  Basis Set:
  @DF-RHF Final Energy:  -383.93028632266919
    Total Energy =                       -383.9302863226694171
  Basis Set: 6-31G*
  Basis Set:
  Basis Set: 6-31G*
  Basis Set:
  @DF-RHF Final Energy:  -383.93368814661784
    Total Energy =                       -383.9336881466177829
  Basis Set: 6-31G*
  Basis Set:
  Basis Set: 6-31G*
  Basis Set:
  @DF-RHF Final Energy:  -383.93374933076274
    Total Energy =                       -383.9337493307625664
  Basis Set: 6-31G*
  Basis Set:
  Basis Set: 6-31G*
  Basis Set:
  @DF-RHF Final Energy:  -383.93375865824618
    Total Energy =                       -383.9337586582464610
  Basis Set: 6-31G*
  Basis Set:
  Basis Set: 6-31G*
  Basis Set:
  @DF-RHF Final Energy:  -383.93337269712936
    Total Energy =                       -383.9333726971292435
  Basis Set: 6-31G*
  Basis Set:
  Basis Set: 6-31G*
  Basis Set:
  @DF-RHF Final Energy:  -383.93375077622858
    Total Energy =                       -383.9337507762282939
  Basis Set: 6-31G*
  Basis Set:
  Charge       = 0
  Multiplicity = 1
  Basis Set: 6-31G*
  Basis Set:

    Orbital Energies (a.u.)
    -----------------------

    Doubly Occupied:

       1A    -20.596173     2A    -20.549719     3A    -11.373628
       4A    -11.284302     5A    -11.236289     6A    -11.220727
       7A    -11.219700     8A    -11.210953     9A     -1.464350
      10A     -1.364349    11A     -1.088810    12A     -1.022809
      13A     -0.969128    14A     -0.888453    15A     -0.804753
      16A     -0.766371    17A     -0.696154    18A     -0.680032
      19A     -0.672424    20A     -0.644937    21A     -0.602905
      22A     -0.592687    23A     -0.581204    24A     -0.544938
      25A     -0.535304    26A     -0.518403    27A     -0.502133
      28A     -0.479531    29A     -0.475330    30A     -0.470381
      31A     -0.453625    32A     -0.434626

  @DF-RHF Final Energy:  -383.93376094420898

   => Energetics <=

    Nuclear Repulsion Energy =            380.6191070042326601
    One-Electron Energy =               -1277.2154851462398710
    Two-Electron Energy =                 512.6626171977983404
    DFT Exchange-Correlation Energy =       0.0000000000000000
    Empirical Dispersion Energy =           0.0000000000000000
    PCM Polarization Energy =               0.0000000000000000
    EFP Energy =                            0.0000000000000000
    Total Energy =                       -383.9337609442088706
    Molecular point group: c1
  Basis Set: 6-31G*
  Basis Set:

  -Total Gradient:
     Atom            X                  Y                   Z
    ------   -----------------  -----------------  -----------------
       1       -0.004622118372    -0.004666309471    -0.007405831552
       2        0.007177992886     0.006812683755     0.014818195740
       3        0.000051134927    -0.000047767826    -0.000068878861
       4       -0.003075799678    -0.001781412076    -0.015055138516
       5        0.000016436035     0.000007044884     0.000012254804
       6       -0.000016003543    -0.000029050437    -0.000000365562
       7       -0.000008049995    -0.000003350836    -0.000017247060
       8       -0.000004720329    -0.000008702628    -0.000000352869
       9        0.000002440382    -0.000005508718    -0.000003874446
      10       -0.000004548555     0.000002790702    -0.000001207599
      11        0.000006223037     0.000002996096    -0.000002896365
      12       -0.000003201428    -0.000001197290     0.000000313186
      13        0.000003691548     0.000001097909    -0.000003273123
      14       -0.000001093294    -0.000000574145    -0.000000588608
      15        0.000004417061    -0.000001564402     0.000000180554
      16       -0.000000089116     0.000001085546     0.000000078101
      17        0.000463083264    -0.000268838588     0.007762084365
      18       -0.000006688519     0.000003795542    -0.000006795070
      19       -0.000004928371    -0.000017939884    -0.000005098377
      20        0.000021822066     0.000000721868    -0.000021558744

  **** Optimization is complete! (in 8 steps) ****
    Final optimized geometry and variables:
    Molecular point group: c1

    Geometry (in Angstrom), charge = 0, multiplicity = 1:

    O            0.977124787871     1.025240075781    -1.137165295218
    C            1.012016054595     0.001036200638    -0.539803495687
    C           -0.093431901903    -0.539234186452     0.332255468778
    O            2.021338248601    -0.870046492124    -0.644754610934
    C           -1.351774219131     0.322611842444     0.330771234635
    H           -0.303859114302    -1.551130180408    -0.002475581038
    H            0.311674814121    -0.641557503733     1.336594378806
    C           -2.449433008202    -0.247597386817     1.230415389565
    H           -1.720809176988     0.414355311072    -0.686316442888
    H           -1.098140120469     1.328219513706     0.651253079145
    C           -3.714092808740     0.610056545660     1.233204943994
    H           -2.698455731673    -1.255790010717     0.905628443826
    H           -2.074158041791    -0.339311857764     2.247748204320
    H           -4.133640136054     0.691968411546     0.234759446796
    H           -4.475729777501     0.184168607498     1.878806674672
    H           -3.504400529971     1.615583927607     1.586225743828
    C            3.330966502091    -0.336326745778    -0.713477232766
    H            3.449187268920     0.290205674528    -1.585124658719
    H            3.997561497310    -1.182681226934    -0.770790637900
    H            3.547703135478     0.238727649971     0.178201669859

  Mulliken Charges: (a.u.)
   Center  Symbol    Alpha    Beta     Spin     Total
       1     O     4.27489  4.27489  0.00000 -0.54978
       2     C     2.60491  2.60491  0.00000  0.79019
       3     C     3.21082  3.21082  0.00000 -0.42165
       4     O     4.31169  4.31169  0.00000 -0.62339
       5     C     3.15151  3.15151  0.00000 -0.30303
       6     H     0.39859  0.39859  0.00000  0.20283
       7     H     0.40392  0.40392  0.00000  0.19217
       8     C     3.15415  3.15415  0.00000 -0.30829
       9     H     0.41213  0.41213  0.00000  0.17575
      10     H     0.41169  0.41169  0.00000  0.17663
      11     C     3.23932  3.23932  0.00000 -0.47864
      12     H     0.42259  0.42259  0.00000  0.15482
      13     H     0.42333  0.42333  0.00000  0.15335
      14     H     0.41979  0.41979  0.00000  0.16043
      15     H     0.41870  0.41870  0.00000  0.16260
      16     H     0.42005  0.42005  0.00000  0.15990
      17     C     3.09449  3.09449  0.00000 -0.18899
      18     H     0.40323  0.40323  0.00000  0.19355
      19     H     0.40663  0.40663  0.00000  0.18675
      20     H     0.41760  0.41760  0.00000  0.16481

   Total alpha = 32.00000, Total beta = 32.00000, Total charge = -0.00000
