                              Psi4 1.0.54 Driver

  ==> Input File <==

--------------------------------------------------------------------------
set {
	reference rhf
	basis cc-pvtz
}

set_num_threads( 4 )
memory 2 gb

molecule MOL {
0 1

O	 0.661248	 -1.067110	 2.177162
C	 0.060362	 -1.124928	 1.159580
C	 -1.335939	 -1.658303	 1.012907
O	 0.550743	 -0.719877	 0.000412
H	 -1.977568	 -0.888292	 0.604495
H	 -1.703604	 -1.977483	 1.974406
H	 -1.336052	 -2.488651	 0.318675
C	 1.863204	 -0.194033	 0.000410
H	 2.031502	 0.409177	 -0.879273
H	 2.524488	 -1.045142	 0.000793
H	 2.031291	 0.409823	 0.879686

	symmetry c1
}
set optking {
	frozen_dihedral = ("
		2 4 8 9
	")
}

ee,wfn = optimize('scf', return_wfn=True)
oeprop( wfn, 'DIPOLE', 'QUADRUPOLE', 'MULLIKEN_CHARGES')
f=open( 'psi4out.xyz', 'w' )
f.write( "11  " )
f.write( str(ee) + "\n" )
f.write( MOL.save_string_xyz() )
f.close()
--------------------------------------------------------------------------

    Molecular point group: c1
  Charge       = 0
  Multiplicity = 1
  Basis Set: CC-PVTZ
  Basis Set:
  @DF-RHF Final Energy:  -266.93726183931904
    Total Energy =                       -266.9372618393190919
    Molecular point group: c1
  Basis Set: CC-PVTZ
  Basis Set:
  Basis Set: CC-PVTZ
  Basis Set:
  @DF-RHF Final Energy:  -266.93695575338734
    Total Energy =                       -266.9369557533872239
  Basis Set: CC-PVTZ
  Basis Set:
  Basis Set: CC-PVTZ
  Basis Set:
  @DF-RHF Final Energy:  -266.93850164793457
    Total Energy =                       -266.9385016479346859
  Basis Set: CC-PVTZ
  Basis Set:
  Basis Set: CC-PVTZ
  Basis Set:
  @DF-RHF Final Energy:  -266.93666067567176
    Total Energy =                       -266.9366606756718738
  Basis Set: CC-PVTZ
  Basis Set:
  Basis Set: CC-PVTZ
  Basis Set:
  @DF-RHF Final Energy:  -266.93864408114092
    Total Energy =                       -266.9386440811409784
  Basis Set: CC-PVTZ
  Basis Set:
  Charge       = 0
  Multiplicity = 1
  Basis Set: CC-PVTZ
  Basis Set:

    Orbital Energies (a.u.)
    -----------------------

    Doubly Occupied:

       1A    -20.598560     2A    -20.535038     3A    -11.369111
       4A    -11.279635     5A    -11.232957     6A     -1.473642
       7A     -1.367823     8A     -1.037111     9A     -0.953908
      10A     -0.780014    11A     -0.698397    12A     -0.684219
      13A     -0.681117    14A     -0.597076    15A     -0.592796
      16A     -0.561688    17A     -0.528518    18A     -0.523341
      19A     -0.461739    20A     -0.445799

  @DF-RHF Final Energy:  -266.93865685729389

   => Energetics <=

    Nuclear Repulsion Energy =            183.5932038682306029
    One-Electron Energy =                -728.2587421561268002
    Two-Electron Energy =                 277.7268814306023046
    DFT Exchange-Correlation Energy =       0.0000000000000000
    Empirical Dispersion Energy =           0.0000000000000000
    PCM Polarization Energy =               0.0000000000000000
    EFP Energy =                            0.0000000000000000
    Total Energy =                       -266.9386568572938927
    Molecular point group: c1
  Basis Set: CC-PVTZ
  Basis Set:

  -Total Gradient:
     Atom            X                  Y                   Z
    ------   -----------------  -----------------  -----------------
       1       -0.000005986040    -0.000015507002     0.000212512413
       2       -0.000480991335     0.001252742383    -0.000286877201
       3        0.000095207225     0.000073508334    -0.000051203588
       4        0.000438264480    -0.001527322002     0.000149820692
       5        0.000046830827    -0.000028824963     0.000036927311
       6        0.000081135345     0.000036988160    -0.000035498691
       7        0.000030162317     0.000008419802     0.000012645661
       8        0.000488095007    -0.001106733794    -0.000526700326
       9       -0.000560343701     0.001307553568     0.000510641407
      10       -0.000074675447     0.000017196968    -0.000005404895
      11       -0.000057698677    -0.000018021454    -0.000016862782

  **** Optimization is complete! (in 6 steps) ****
    Final optimized geometry and variables:
    Molecular point group: c1

    Geometry (in Angstrom), charge = 0, multiplicity = 1:

    O            0.239422202073     0.056644097613     1.334900643800
    C           -0.329059206565    -0.131115949439     0.314371928232
    C           -1.736749906205    -0.640526950075     0.196617435693
    O            0.208087228493     0.083098369087    -0.874776728364
    H           -2.339691392058     0.079283241693    -0.341415481231
    H           -2.143943221088    -0.806027698836     1.180563770219
    H           -1.741952994601    -1.562830174069    -0.369701332315
    C            1.525510575591     0.594904417287    -0.924406733617
    H            1.644266148638     1.025509346939    -1.905619764138
    H            2.241857284593    -0.200259303718    -0.774294449267
    H            1.670406882097     1.350905062573    -0.169543389160

  Mulliken Charges: (a.u.)
   Center  Symbol    Alpha    Beta     Spin     Total
       1     O     4.19701  4.19701  0.00000 -0.39401
       2     C     2.80065  2.80065  0.00000  0.39870
       3     C     3.13866  3.13866  0.00000 -0.27732
       4     O     4.14826  4.14826  0.00000 -0.29651
       5     H     0.44572  0.44572  0.00000  0.10856
       6     H     0.43789  0.43789  0.00000  0.12423
       7     H     0.44522  0.44522  0.00000  0.10957
       8     C     3.03361  3.03361  0.00000 -0.06721
       9     H     0.44675  0.44675  0.00000  0.10650
      10     H     0.45617  0.45617  0.00000  0.08765
      11     H     0.45008  0.45008  0.00000  0.09984

   Total alpha = 20.00000, Total beta = 20.00000, Total charge = -0.00000

*** Psi4 exiting successfully. Buy a developer a beer!
