  ==> Input File <==

--------------------------------------------------------------------------
set {
	reference rhf
	basis 6-31G*
}

set_num_threads( 1 )
memory 2 gb

molecule MOL {
0 1

H	 -1.641753	 -1.508945	 -0.102345
O	 -2.310168	 -0.871793	 -0.309793
C	 -2.026376	 0.340750	 0.341611
C	 -0.673256	 0.843270	 -0.132153
H	 -2.792215	 1.080697	 0.115987
H	 -2.013526	 0.200402	 1.421792
C	 0.486613	 -0.083066	 0.235839
H	 -0.715586	 0.970948	 -1.210718
H	 -0.508072	 1.829858	 0.297090
C	 1.840406	 0.433480	 -0.254303
H	 0.300215	 -1.068318	 -0.178947
H	 0.519509	 -0.203625	 1.318070
C	 3.000220	 -0.489290	 0.118523
H	 1.809207	 0.553576	 -1.335192
H	 2.021860	 1.424500	 0.157276
H	 2.864959	 -1.479103	 -0.307933
H	 3.946603	 -0.099227	 -0.243630
H	 3.080049	 -0.602997	 1.196117

	symmetry c1
}
set optking {
	frozen_dihedral = ("
		14 10 7 11,
		10 7 4 8,
		2 3 4 8
	")
}

ee = energy('scf')
oeprop('DIPOLE', 'QUADRUPOLE', 'MULLIKEN_CHARGES')
f=open( 'psi4out.xyz', 'w' )
f.write( "18  " )
f.write( str(ee) + "\n" )
f.write( MOL.save_string_xyz() )
f.close()
--------------------------------------------------------------------------

    Molecular point group: c1

    Geometry (in Angstrom), charge = 0, multiplicity = 1:

       Center              X                  Y                   Z               Mass
    ------------   -----------------  -----------------  -----------------  -----------------
           H         -1.658842137079    -1.505582818924    -0.101158489127     1.007825032070
           O         -2.327257137079    -0.868430818924    -0.308606489127    15.994914619560
           C         -2.043465137079     0.344112181076     0.342797510873    12.000000000000
           C         -0.690345137079     0.846632181076    -0.130966489127    12.000000000000
           H         -2.809304137079     1.084059181076     0.117173510873     1.007825032070
           H         -2.030615137079     0.203764181076     1.422978510873     1.007825032070
           C          0.469523862921    -0.079703818924     0.237025510873    12.000000000000
           H         -0.732675137079     0.974310181076    -1.209531489127     1.007825032070
           H         -0.525161137079     1.833220181076     0.298276510873     1.007825032070
           C          1.823316862921     0.436842181076    -0.253116489127    12.000000000000
           H          0.283125862921    -1.064955818924    -0.177760489127     1.007825032070
           H          0.502419862921    -0.200262818924     1.319256510873     1.007825032070
           C          2.983130862921    -0.485927818924     0.119709510873    12.000000000000
           H          1.792117862921     0.556938181076    -1.334005489127     1.007825032070
           H          2.004770862921     1.427862181076     0.158462510873     1.007825032070
           H          2.847869862921    -1.475740818924    -0.306746489127     1.007825032070
           H          3.929513862921    -0.095864818924    -0.242443489127     1.007825032070
           H          3.062959862921    -0.599634818924     1.197303510873     1.007825032070

  Charge       = 0
  Multiplicity = 1
  Basis Set: 6-31G*
  Basis Set:

    Orbital Energies (a.u.)
    -----------------------

    Doubly Occupied:

       1A    -20.550085     2A    -11.268242     3A    -11.223678
       4A    -11.221602     5A    -11.215210     6A    -11.213209
       7A     -1.359104     8A     -1.084697     9A     -1.013456
      10A     -0.923715    11A     -0.830360    12A     -0.794805
      13A     -0.689230    14A     -0.653818    15A     -0.621427
      16A     -0.606954    17A     -0.576790    18A     -0.566272
      19A     -0.527327    20A     -0.510000    21A     -0.491307
      22A     -0.478550    23A     -0.471771    24A     -0.453939
      25A     -0.426096

  @DF-RHF Final Energy:  -271.17662319303224

   => Energetics <=

    Nuclear Repulsion Energy =            250.3356107473638588
    One-Electron Energy =                -863.4810047567812035
    Two-Electron Energy =                 341.9687708163856996
    DFT Exchange-Correlation Energy =       0.0000000000000000
    Empirical Dispersion Energy =           0.0000000000000000
    PCM Polarization Energy =               0.0000000000000000
    EFP Energy =                            0.0000000000000000
    Total Energy =                       -271.1766231930316735

  Mulliken Charges: (a.u.)
   Center  Symbol    Alpha    Beta     Spin     Total
       1     H     0.27656  0.27656  0.00000  0.44688
       2     O     4.37362  4.37362  0.00000 -0.74724
       3     C     2.99572  2.99572  0.00000  0.00856
       4     C     3.16291  3.16291  0.00000 -0.32583
       5     H     0.41388  0.41388  0.00000  0.17224
       6     H     0.43145  0.43145  0.00000  0.13709
       7     C     3.16178  3.16178  0.00000 -0.32355
       8     H     0.41429  0.41429  0.00000  0.17142
       9     H     0.42487  0.42487  0.00000  0.15025
      10     C     3.15026  3.15026  0.00000 -0.30052
      11     H     0.43023  0.43023  0.00000  0.13954
      12     H     0.42242  0.42242  0.00000  0.15516
      13     C     3.23990  3.23990  0.00000 -0.47980
      14     H     0.42013  0.42013  0.00000  0.15974
      15     H     0.42106  0.42106  0.00000  0.15789
      16     H     0.42145  0.42145  0.00000  0.15711
      17     H     0.41790  0.41790  0.00000  0.16419
      18     H     0.42156  0.42156  0.00000  0.15688

   Total alpha = 25.00000, Total beta = 25.00000, Total charge = -0.00000
