  ==> Input File <==

--------------------------------------------------------------------------
set {
	reference rhf
	basis 6-31G*
}

set_num_threads( 4 )
memory 2 gb

molecule MOL {
0 1

H	 -2.772460	 1.544690	 1.538045
O	 -1.964506	 1.444109	 2.022757
C	 -0.885472	 1.626816	 1.153120
C	 -0.793441	 0.596080	 0.058728
H	 0.007414	 1.587237	 1.766627
H	 -0.912172	 2.620292	 0.706671
C	 -1.530462	 -0.493172	 -0.025500
H	 -0.050297	 0.799590	 -0.696788
H	 -1.092586	 -1.461565	 -0.186463
H	 -2.602122	 -0.450675	 0.050101

	symmetry c1
}
set optking {
	frozen_dihedral = ("
		3 4 7 9
	")
}

ee = optimize('scf')
oeprop('DIPOLE', 'QUADRUPOLE', 'MULLIKEN_CHARGES')
f=open( 'psi4out.xyz', 'w' )
f.write( "10  " )
f.write( str(ee) + "\n" )
f.write( MOL.save_string_xyz() )
f.close()
--------------------------------------------------------------------------

    Molecular point group: c1
  Charge       = 0
  Multiplicity = 1
  Basis Set: 6-31G*
  Basis Set:
  @DF-RHF Final Energy:  -191.85775937815771
    Total Energy =                       -191.8577593781577662
    Molecular point group: c1
  Basis Set: 6-31G*
  Basis Set:
  Basis Set: 6-31G*
  Basis Set:
  @DF-RHF Final Energy:  -191.87925154551232
    Total Energy =                       -191.8792515455122896
  Basis Set: 6-31G*
  Basis Set:
  Basis Set: 6-31G*
  Basis Set:
  @DF-RHF Final Energy:  -191.89223916119113
    Total Energy =                       -191.8922391611910712
  Basis Set: 6-31G*
  Basis Set:
  Basis Set: 6-31G*
  Basis Set:
  @DF-RHF Final Energy:  -191.89315722986680
    Total Energy =                       -191.8931572298669721
  Basis Set: 6-31G*
  Basis Set:
  @DF-RHF Final Energy:  -191.89318542230075
    Total Energy =                       -191.8931854223007178
  @DF-RHF Final Energy:  -191.89318790940558
    Total Energy =                       -191.8931879094055830
  @DF-RHF Final Energy:  -191.89318702972025
    Total Energy =                       -191.8931870297203091
  @DF-RHF Final Energy:  -191.89318652592914
    Total Energy =                       -191.8931865259290817
  @DF-RHF Final Energy:  -191.89318650780137
    Total Energy =                       -191.8931865078013459
  @DF-RHF Final Energy:  -191.88239610456372
    Total Energy =                       -191.8823961045637247
  @DF-RHF Final Energy:  -191.84663863931371
    Total Energy =                       -191.8466386393137100
  @DF-RHF Final Energy:  -191.81371928051135
    Total Energy =                       -191.8137192805113500
  @DF-RHF Final Energy:  -191.77255907938974
    Total Energy =                       -191.7725590793897368
  @DF-RHF Final Energy:  -191.78819352252117
    Total Energy =                       -191.7881935225211123
  @DF-RHF Final Energy:  -191.78385866487429
    Total Energy =                       -191.7838586648743728
  @DF-RHF Final Energy:  -191.81883785743361
    Total Energy =                       -191.8188378574336639
  @DF-RHF Final Energy:  -191.86693431888222
    Total Energy =                       -191.8669343188822722
  @DF-RHF Final Energy:  -191.87654019814917
    Total Energy =                       -191.8765401981492289
  @DF-RHF Final Energy:  -191.88417268362656
    Total Energy =                       -191.8841726836265025
  @DF-RHF Final Energy:  -191.88876675814015
    Total Energy =                       -191.8887667581401786
  @DF-RHF Final Energy:  -191.75841427278320
    Total Energy =                       -191.7584142727831420
  @DF-RHF Final Energy:  -191.87061041520349
    Total Energy =                       -191.8706104152035437
  @DF-RHF Final Energy:  -191.83462741690164
    Total Energy =                       -191.8346274169016965
  @DF-RHF Final Energy:  -191.88431276333563
    Total Energy =                       -191.8843127633356289
  @DF-RHF Final Energy:  -191.89177172065962
    Total Energy =                       -191.8917717206595626
  @DF-RHF Final Energy:  -191.89267604920761
    Total Energy =                       -191.8926760492076369
  @DF-RHF Final Energy:  -191.89295288745691
    Total Energy =                       -191.8929528874568291
  @DF-RHF Final Energy:  -191.89297522816378
    Total Energy =                       -191.8929752281637775
  @DF-RHF Final Energy:  -191.89297569050581
    Total Energy =                       -191.8929756905058639
  @DF-RHF Final Energy:  -191.89297059078876
    Total Energy =                       -191.8929705907888206
  @DF-RHF Final Energy:  -191.88894868779283
    Total Energy =                       -191.8889486877928050
  @DF-RHF Final Energy:  -191.88618441801646
    Total Energy =                       -191.8861844180164837
  @DF-RHF Final Energy:  -191.89262851427827
    Total Energy =                       -191.8926285142782433
  @DF-RHF Final Energy:  -191.89297282306705
    Total Energy =                       -191.8929728230670548
  @DF-RHF Final Energy:  -191.89297359837371
    Total Energy =                       -191.8929735983737430
  @DF-RHF Final Energy:  -191.89297302370971
    Total Energy =                       -191.8929730237096862
  Basis Set: 6-31G*
  Basis Set:
  @DF-RHF Final Energy:  -191.89297154230906
    Total Energy =                       -191.8929715423089135
  Basis Set: 6-31G*
  Basis Set:
  Basis Set: 6-31G*
  Basis Set:
  @DF-RHF Final Energy:  -191.86665122972627
    Total Energy =                       -191.8666512297263296
  Basis Set: 6-31G*
  Basis Set:
  Basis Set: 6-31G*
  Basis Set:
  @DF-RHF Final Energy:  -191.82430060162352
    Total Energy =                       -191.8243006016235199
  Basis Set: 6-31G*
  Basis Set:
  Charge       = 0
  Multiplicity = 1
  Basis Set: 6-31G*
  Basis Set:

    Orbital Energies (a.u.)
    -----------------------

    Doubly Occupied:

       1A    -20.539450     2A    -11.278082     3A    -11.267871
       4A    -11.224489     5A     -1.343340     6A     -1.067900
       7A     -0.962531     8A     -0.759175     9A     -0.706111
      10A     -0.662798    11A     -0.630196    12A     -0.592959
      13A     -0.528056    14A     -0.471655    15A     -0.434022
      16A     -0.338216

  @DF-RHF Final Energy:  -191.80388679339404

   => Energetics <=

    Nuclear Repulsion Energy =            117.0629560650621102
    One-Electron Energy =                -492.1199819084532123
    Two-Electron Energy =                 183.2531390499969746
    DFT Exchange-Correlation Energy =       0.0000000000000000
    Empirical Dispersion Energy =           0.0000000000000000
    PCM Polarization Energy =               0.0000000000000000
    EFP Energy =                            0.0000000000000000
    Total Energy =                       -191.8038867933941276
    Molecular point group: c1
  Basis Set: 6-31G*
  Basis Set:

  -Total Gradient:
     Atom            X                  Y                   Z
    ------   -----------------  -----------------  -----------------
       1        0.034419333929    -0.034362794562     0.025890173879
       2       -0.074903100775     0.043050752480    -0.022224716245
       3        0.132382028831     0.048035276214    -0.068241494734
       4       -0.091796607842     0.096858619044     0.106084501629
       5       -0.032320146780    -0.002629671560    -0.033194959253
       6       -0.015511531515    -0.093250269185     0.045908592889
       7       -0.082114681312    -0.168074821233    -0.029658484091
       8        0.061381895486     0.040302059935    -0.020599021418
       9       -0.016932122216     0.036266498599     0.036521464905
      10        0.085394932195     0.033804350265    -0.040486057561

    Molecular point group: c1

    Geometry (in Angstrom), charge = 0, multiplicity = 1:

    H           -1.240190178145     1.510489476192     0.925457783768
    O           -0.701794981654     0.826976277583     1.292873656848
    C            0.482285404673     0.763400723875     0.295341019742
    C            0.423565497742    -0.305130831627    -0.758199925535
    H            1.372778006275     0.536689713912     0.750093536565
    H            0.435183532393     1.720038948139    -0.224549215334
    C           -0.127932307367    -1.543684691917    -1.107369822000
    H            1.532665568241    -0.092642588322    -1.294351264839
    H            0.655922009477    -2.130274462300    -1.403545357111
    H           -0.880906740405    -1.745166664354    -0.575504176482

  Mulliken Charges: (a.u.)
   Center  Symbol    Alpha    Beta     Spin     Total
       1     H     0.28211  0.28211  0.00000  0.43577
       2     O     4.39972  4.39972  0.00000 -0.79944
       3     C     2.97991  2.97991  0.00000  0.04018
       4     C     3.08628  3.08628  0.00000 -0.17256
       5     H     0.39288  0.39288  0.00000  0.21424
       6     H     0.40698  0.40698  0.00000  0.18604
       7     C     3.19045  3.19045  0.00000 -0.38090
       8     H     0.46754  0.46754  0.00000  0.06493
       9     H     0.39391  0.39391  0.00000  0.21219
      10     H     0.40022  0.40022  0.00000  0.19956

   Total alpha = 16.00000, Total beta = 16.00000, Total charge = -0.00000
