                              Psi4 1.0.54 Driver

  ==> Input File <==

--------------------------------------------------------------------------
set {
	reference rhf
	basis cc-pvtz
}

set_num_threads( 4 )
memory 2 gb

molecule MOL {
0 1

H	 2.695490	 -0.190738	 -0.762548
N	 1.720377	 0.013988	 -0.774778
C	 1.276959	 0.471922	 0.526576
C	 0.961190	 -1.136524	 -1.221766
H	 1.850470	 1.346495	 0.808636
H	 1.415545	 -0.284556	 1.301271
C	 -0.195954	 0.832478	 0.458742
H	 1.305888	 -1.427468	 -2.206594
H	 1.079825	 -1.994625	 -0.557532
C	 -0.511310	 -0.773861	 -1.287310
H	 -0.320444	 1.696419	 -0.200576
H	 -0.543790	 1.118894	 1.444184
N	 -0.976577	 -0.298712	 -0.000000
H	 -1.087166	 -1.648929	 -1.564372
H	 -0.657524	 -0.020583	 -2.066915
C	 -2.391156	 -0.021003	 -0.000000
H	 -2.853954	 -0.458728	 -0.875714
H	 -2.853954	 -0.458728	 0.875714
H	 -2.614037	 1.049773	 -0.000000

	symmetry c1
}
set optking {
	frozen_dihedral = ("
		7 13 16 19
	")
}

ee,wfn = optimize('scf', return_wfn=True)
oeprop( wfn, 'DIPOLE', 'QUADRUPOLE', 'MULLIKEN_CHARGES')
f=open( 'psi4out.xyz', 'w' )
f.write( "19  " )
f.write( str(ee) + "\n" )
f.write( MOL.save_string_xyz() )
f.close()
--------------------------------------------------------------------------

    Molecular point group: c1
  Charge       = 0
  Multiplicity = 1
  Basis Set: CC-PVTZ
  Basis Set:
  @DF-RHF Final Energy:  -305.30362145339132
    Total Energy =                       -305.3036214533915427
    Molecular point group: c1
  Basis Set: CC-PVTZ
  Basis Set:
  Basis Set: CC-PVTZ
  Basis Set:
  @DF-RHF Final Energy:  -305.30390971951306
    Total Energy =                       -305.3039097195129443
  Basis Set: CC-PVTZ
  Basis Set:
  Basis Set: CC-PVTZ
  Basis Set:
  @DF-RHF Final Energy:  -305.30398367188371
    Total Energy =                       -305.3039836718834295
  Basis Set: CC-PVTZ
  Basis Set:
  Charge       = 0
  Multiplicity = 1
  Basis Set: CC-PVTZ
  Basis Set:

    Orbital Energies (a.u.)
    -----------------------

    Doubly Occupied:

       1A    -15.534792     2A    -15.530695     3A    -11.236676
       4A    -11.236600     5A    -11.235683     6A    -11.235656
       7A    -11.232888     8A     -1.246856     9A     -1.185749
      10A     -1.023327    11A     -0.964964    12A     -0.860913
      13A     -0.859114    14A     -0.757597    15A     -0.692066
      16A     -0.632068    17A     -0.624927    18A     -0.607168
      19A     -0.605211    20A     -0.581203    21A     -0.544227
      22A     -0.533383    23A     -0.513434    24A     -0.488827
      25A     -0.466649    26A     -0.456981    27A     -0.365393
      28A     -0.344811

  @DF-RHF Final Energy:  -305.30398491074089

   => Energetics <=

    Nuclear Repulsion Energy =            339.8860127945087584
    One-Electron Energy =               -1087.1842674040685779
    Two-Electron Energy =                 441.9942696988186981
    DFT Exchange-Correlation Energy =       0.0000000000000000
    Empirical Dispersion Energy =           0.0000000000000000
    PCM Polarization Energy =               0.0000000000000000
    EFP Energy =                            0.0000000000000000
    Total Energy =                       -305.3039849107410646
    Molecular point group: c1
  Basis Set: CC-PVTZ
  Basis Set:

  -Total Gradient:
     Atom            X                  Y                   Z
    ------   -----------------  -----------------  -----------------
       1       -0.000026754488    -0.000001408544     0.000006747086
       2       -0.000023387643     0.000005261160     0.000001088934
       3        0.000029725357     0.000013470760     0.000022397364
       4        0.000017895063    -0.000007528621    -0.000018561428
       5        0.000033598589    -0.000001645076    -0.000004494869
       6       -0.000000022414     0.000003018091    -0.000006699567
       7        0.000172150837     0.000919934929    -0.002786966683
       8        0.000035622398    -0.000005758423    -0.000010370926
       9       -0.000005171629     0.000014754794    -0.000005687497
      10        0.000037093429    -0.000003985038     0.000075941123
      11       -0.000009772226     0.000004103280     0.000002368048
      12       -0.000000476251    -0.000018402202    -0.000018676395
      13       -0.000320227352    -0.001297569753     0.004852873602
      14       -0.000002585652     0.000018144614     0.000018930910
      15        0.000001257701    -0.000005660990     0.000007506780
      16        0.000073798284     0.000380655157    -0.006004966088
      17       -0.000035796078     0.000017561987    -0.000023553603
      18       -0.000008833749    -0.000010874866     0.000008295307
      19        0.000031885824    -0.000024071257     0.003883827903

  **** Optimization is complete! (in 4 steps) ****
    Final optimized geometry and variables:
    Molecular point group: c1

    Geometry (in Angstrom), charge = 0, multiplicity = 1:

    H            2.724482320904    -0.105938766635    -0.427414133494
    N            1.753118645515     0.115792776107    -0.445400925627
    C            1.311089895134     0.588369756054     0.850812780065
    C            0.975899629938    -1.023267382562    -0.889856069371
    H            1.894458957402     1.457867420260     1.129065350853
    H            1.436760354031    -0.164074940766     1.631696698348
    C           -0.156641658742     0.967114108454     0.773846293538
    H            1.319321223513    -1.325165845128    -1.872047336654
    H            1.076990715418    -1.880037641056    -0.220811474883
    C           -0.490908618882    -0.638547435189    -0.962929008579
    H           -0.268855625241     1.825325027963     0.105589932201
    H           -0.500985290722     1.269639908142     1.756225083486
    N           -0.954163460217    -0.156769715374     0.324805542382
    H           -1.073396129497    -1.508584807383    -1.240117638533
    H           -0.621304909774     0.112983054528    -1.746881102868
    C           -2.377959475029     0.129592648104     0.350745993031
    H           -2.879139178468    -0.305217651786    -0.503834179677
    H           -2.833492809642    -0.282657733035     1.245517931086
    H           -2.582368991894     1.198236906384     0.358590167227

  Mulliken Charges: (a.u.)
   Center  Symbol    Alpha    Beta     Spin     Total
       1     H     0.44001  0.44001  0.00000  0.11997
       2     N     3.64282  3.64282  0.00000 -0.28564
       3     C     3.04188  3.04188  0.00000 -0.08377
       4     C     3.04198  3.04198  0.00000 -0.08396
       5     H     0.45267  0.45267  0.00000  0.09466
       6     H     0.46572  0.46572  0.00000  0.06856
       7     C     3.03567  3.03567  0.00000 -0.07133
       8     H     0.45267  0.45267  0.00000  0.09467
       9     H     0.46586  0.46586  0.00000  0.06829
      10     C     3.03412  3.03412  0.00000 -0.06824
      11     H     0.46797  0.46797  0.00000  0.06407
      12     H     0.45359  0.45359  0.00000  0.09282
      13     N     3.61744  3.61744  0.00000 -0.23488
      14     H     0.45398  0.45398  0.00000  0.09204
      15     H     0.46870  0.46870  0.00000  0.06260
      16     C     3.09307  3.09307  0.00000 -0.18615
      17     H     0.45710  0.45710  0.00000  0.08580
      18     H     0.45032  0.45032  0.00000  0.09936
      19     H     0.46444  0.46444  0.00000  0.07112

   Total alpha = 28.00000, Total beta = 28.00000, Total charge = -0.00000

*** Psi4 exiting successfully. Buy a developer a beer!
