                              Psi4 1.0.54 Driver

  ==> Input File <==

--------------------------------------------------------------------------
set {
	reference rhf
	basis cc-pvtz
}

set_num_threads( 4 )
memory 2 gb

molecule MOL {
0 1

O	 2.405069	 2.069653	 0.281284
C	 1.413208	 2.373685	 0.859112
C	 0.163295	 1.517723	 0.829489
C	 1.332679	 3.647343	 1.669998
C	 0.288398	 0.247429	 0.000314
H	 -0.096457	 1.281958	 1.859057
H	 -0.650398	 2.139092	 0.462325
C	 -0.993089	 -0.581367	 -0.000217
H	 1.111146	 -0.346466	 0.381743
H	 0.556855	 0.511468	 -1.016223
C	 -2.258482	 0.271340	 0.000669
H	 -1.002280	 -1.233920	 -0.870484
H	 -1.002061	 -1.235367	 0.868958
C	 -3.544441	 -0.550271	 -0.000253
H	 -2.250545	 0.925250	 -0.867923
H	 -2.250598	 0.923423	 0.870642
C	 -4.804551	 0.308747	 0.000556
H	 -3.553737	 -1.201524	 -0.870151
H	 -3.553831	 -1.203282	 0.868313
H	 -4.842050	 0.949078	 -0.874436
H	 -5.698404	 -0.304480	 -0.000254
H	 -4.842277	 0.947103	 0.876982
H	 1.095568	 3.418648	 2.703209
H	 2.273891	 4.172795	 1.620884
H	 0.539778	 4.282503	 1.290629

	symmetry c1
}
set optking {
	frozen_dihedral = ("
		9 5 8 12
	")
}

ee,wfn = optimize('scf', return_wfn=True)
oeprop( wfn, 'DIPOLE', 'QUADRUPOLE', 'MULLIKEN_CHARGES')
f=open( 'psi4out.xyz', 'w' )
f.write( "25  " )
f.write( str(ee) + "\n" )
f.write( MOL.save_string_xyz() )
f.close()
--------------------------------------------------------------------------

    Molecular point group: c1
  Charge       = 0
  Multiplicity = 1
  Basis Set: CC-PVTZ
  Basis Set:
  @DF-RHF Final Energy:  -387.26704000689347
    Total Energy =                       -387.2670400068936942
    Molecular point group: c1
  Basis Set: CC-PVTZ
  Basis Set:
  Basis Set: CC-PVTZ
  Basis Set:
  @DF-RHF Final Energy:  -387.26380649576635
    Total Energy =                       -387.2638064957659481
  Basis Set: CC-PVTZ
  Basis Set:
  Basis Set: CC-PVTZ
  Basis Set:
  @DF-RHF Final Energy:  -387.26948241693378
    Total Energy =                       -387.2694824169333288
  Basis Set: CC-PVTZ
  Basis Set:
  Basis Set: CC-PVTZ
  Basis Set:
  @DF-RHF Final Energy:  -387.26983831664290
    Total Energy =                       -387.2698383166425629
  Basis Set: CC-PVTZ
  Basis Set:
  @DF-RHF Final Energy:  -387.26979501719205
    Total Energy =                       -387.2697950171921093
  @DF-RHF Final Energy:  -387.26928523011566
    Total Energy =                       -387.2692852301162247
  Basis Set: CC-PVTZ
  Basis Set:
  @DF-RHF Final Energy:  -387.26986475238692
    Total Energy =                       -387.2698647523866384
  Basis Set: CC-PVTZ
  Basis Set:
  Basis Set: CC-PVTZ
  Basis Set:
  @DF-RHF Final Energy:  -387.26987962703788
    Total Energy =                       -387.2698796270377670
  Basis Set: CC-PVTZ
  Basis Set:
  Basis Set: CC-PVTZ
  Basis Set:
  @DF-RHF Final Energy:  -387.26988401506338
    Total Energy =                       -387.2698840150640081
  Basis Set: CC-PVTZ
  Basis Set:
  Charge       = 0
  Multiplicity = 1
  Basis Set: CC-PVTZ
  Basis Set:

    Orbital Energies (a.u.)
    -----------------------

    Doubly Occupied:

       1A    -20.538585     2A    -11.320106     3A    -11.229205
       4A    -11.226278     5A    -11.215814     6A    -11.215673
       7A    -11.215211     8A    -11.214606     9A    -11.209112
      10A     -1.398653    11A     -1.095753    12A     -1.056708
      13A     -1.015040    14A     -0.968508    15A     -0.900014
      16A     -0.817531    17A     -0.786948    18A     -0.729477
      19A     -0.661558    20A     -0.656152    21A     -0.635850
      22A     -0.623487    23A     -0.598151    24A     -0.583390
      25A     -0.568946    26A     -0.563896    27A     -0.544139
      28A     -0.527881    29A     -0.520132    30A     -0.495103
      31A     -0.492277    32A     -0.477834    33A     -0.460919
      34A     -0.459182    35A     -0.447339    36A     -0.402595

  @DF-RHF Final Energy:  -387.26988439702484

   => Energetics <=

    Nuclear Repulsion Energy =            446.6867435590294235
    One-Electron Energy =               -1410.1691385225688009
    Two-Electron Energy =                 576.2125105665148794
    DFT Exchange-Correlation Energy =       0.0000000000000000
    Empirical Dispersion Energy =           0.0000000000000000
    PCM Polarization Energy =               0.0000000000000000
    EFP Energy =                            0.0000000000000000
    Total Energy =                       -387.2698843970244980
    Molecular point group: c1
  Basis Set: CC-PVTZ
  Basis Set:

  -Total Gradient:
     Atom            X                  Y                   Z
    ------   -----------------  -----------------  -----------------
       1        0.000012293530    -0.000002929715     0.000005545588
       2       -0.000004375627     0.000019087824    -0.000005542221
       3        0.000009857267    -0.000019886795     0.000012582691
       4       -0.000008950797     0.000007390401    -0.000008112466
       5        0.001153075838    -0.001156883276    -0.007259118838
       6       -0.000006902349     0.000004164681     0.000002709091
       7       -0.000007826177     0.000002546752    -0.000002860678
       8        0.002652206358    -0.004772918164     0.004869621842
       9       -0.001374074188     0.001680669316     0.005394376134
      10       -0.000001594082    -0.000001371902    -0.000007029988
      11        0.000003465639     0.000001309563     0.000010609790
      12       -0.002439002213     0.004246651698    -0.003030401022
      13       -0.000003722799     0.000012640247     0.000000319721
      14        0.000000477995    -0.000005529580     0.000015668650
      15       -0.000008576531    -0.000017865075     0.000029579252
      16        0.000003650392    -0.000010808713    -0.000023493897
      17       -0.000006741017     0.000002507009    -0.000016098808
      18        0.000000768762     0.000010929716     0.000034030881
      19        0.000005741623     0.000021245051    -0.000020874805
      20       -0.000006197996    -0.000009762891     0.000019861850
      21        0.000013306033     0.000018905895    -0.000003700415
      22        0.000003500476    -0.000018738564    -0.000022537854
      23        0.000006950116    -0.000000968677    -0.000008067264
      24        0.000001146765    -0.000002662662     0.000001729968
      25        0.000001522981    -0.000007722138     0.000011202801

  **** Optimization is complete! (in 10 steps) ****
    Final optimized geometry and variables:
    Molecular point group: c1

    Geometry (in Angstrom), charge = 0, multiplicity = 1:

    O            3.172193064994     0.859824157549     0.175881605831
    C            2.179180987540     1.232374225042     0.709888230953
    C            0.848250480516     0.526783278034     0.539277486727
    C            2.176968844919     2.451956453722     1.604254680412
    C            0.910151947984    -0.696607630184    -0.371049603954
    H            0.496757056130     0.253445341744     1.532036264860
    H            0.140440034914     1.264617087659     0.174824756107
    C           -0.394915241345    -1.503171620433    -0.452362740802
    H            1.688809453587    -1.335412617382     0.026196497177
    H            1.223464787089    -0.385427949110    -1.359584919050
    C           -1.681693178884    -0.681137504982    -0.552468738730
    H           -0.348858617481    -2.114076207608    -1.348704088147
    H           -0.467868353700    -2.175606372915     0.396983411480
    C           -2.916878631164    -1.545971528593    -0.790484696178
    H           -1.590247871891     0.037715081326    -1.364299197008
    H           -1.832063140535    -0.101621691747     0.353349334213
    C           -4.207492847061    -0.738349362910    -0.878470162984
    H           -2.785570553232    -2.115085596004    -1.706414816685
    H           -3.002742020132    -2.275509267965     0.010331143211
    H           -4.165379181865    -0.020375343287    -1.690841354240
    H           -5.062597376295    -1.381693097619    -1.050882188741
    H           -4.388546102247    -0.187445982754     0.038589432381
    H            1.839608430247     2.185369379495     2.599797472053
    H            3.170709301910     2.869330861769     1.656983977184
    H            1.488643332521     3.196330358592     1.219417652942

  Mulliken Charges: (a.u.)
   Center  Symbol    Alpha    Beta     Spin     Total
       1     O     4.17009  4.17009  0.00000 -0.34019
       2     C     2.86319  2.86319  0.00000  0.27362
       3     C     3.11771  3.11771  0.00000 -0.23542
       4     C     3.15115  3.15115  0.00000 -0.30230
       5     C     3.09093  3.09093  0.00000 -0.18186
       6     H     0.44451  0.44451  0.00000  0.11098
       7     H     0.44176  0.44176  0.00000  0.11647
       8     C     3.09856  3.09856  0.00000 -0.19713
       9     H     0.44131  0.44131  0.00000  0.11739
      10     H     0.44410  0.44410  0.00000  0.11180
      11     C     3.09278  3.09278  0.00000 -0.18556
      12     H     0.44842  0.44842  0.00000  0.10315
      13     H     0.45072  0.45072  0.00000  0.09855
      14     C     3.08507  3.08507  0.00000 -0.17014
      15     H     0.45378  0.45378  0.00000  0.09244
      16     H     0.45362  0.45362  0.00000  0.09276
      17     C     3.14985  3.14985  0.00000 -0.29971
      18     H     0.45274  0.45274  0.00000  0.09453
      19     H     0.45444  0.45444  0.00000  0.09112
      20     H     0.45506  0.45506  0.00000  0.08988
      21     H     0.44774  0.44774  0.00000  0.10453
      22     H     0.45596  0.45596  0.00000  0.08808
      23     H     0.45076  0.45076  0.00000  0.09849
      24     H     0.43513  0.43513  0.00000  0.12974
      25     H     0.45061  0.45061  0.00000  0.09877

   Total alpha = 36.00000, Total beta = 36.00000, Total charge =  0.00000

*** Psi4 exiting successfully. Buy a developer a beer!
