  ==> Input File <==

--------------------------------------------------------------------------
set {
	reference rhf
	basis cc-pvtz
}

set_num_threads( 4 )
memory 2 gb

molecule MOL {
0 1

H	 2.828711	 -0.346904	 0.001083
C	 1.876752	 0.015931	 -0.363450
C	 0.776285	 -0.474665	 0.563092
H	 1.728113	 -0.357244	 -1.367440
H	 1.906171	 1.096574	 -0.386153
N	 -0.540022	 0.017605	 0.071630
H	 0.707111	 -1.548969	 0.573035
H	 0.886169	 -0.084184	 1.560432
O	 -1.455965	 -0.731852	 0.131267
O	 -0.576200	 1.115807	 -0.372261

	symmetry c1
}
set optking {
	frozen_dihedral = ("
		9 6 3 2
	")
}

ee = optimize('scf')
oeprop('DIPOLE', 'QUADRUPOLE', 'MULLIKEN_CHARGES')
f=open( 'psi4out.xyz', 'w' )
f.write( "10  " )
f.write( str(ee) + "\n" )
f.write( MOL.save_string_xyz() )
f.close()
--------------------------------------------------------------------------

    Molecular point group: c1
  Charge       = 0
  Multiplicity = 1
  Basis Set: CC-PVTZ
  Basis Set:
  @DF-RHF Final Energy:  -282.81211687640354
    Total Energy =                       -282.8121168764034792
    Molecular point group: c1
  Basis Set: CC-PVTZ
  Basis Set:
  Basis Set: CC-PVTZ
  Basis Set:
  @DF-RHF Final Energy:  -282.80889214372326
    Total Energy =                       -282.8088921437234262
  Basis Set: CC-PVTZ
  Basis Set:
  Basis Set: CC-PVTZ
  Basis Set:
  @DF-RHF Final Energy:  -282.81170551794253
    Total Energy =                       -282.8117055179424142
  Basis Set: CC-PVTZ
  Basis Set:
  Basis Set: CC-PVTZ
  Basis Set:
  @DF-RHF Final Energy:  -282.81303268251452
    Total Energy =                       -282.8130326825144607
  Basis Set: CC-PVTZ
  Basis Set:
  Basis Set: CC-PVTZ
  Basis Set:
  @DF-RHF Final Energy:  -282.81305115748233
    Total Energy =                       -282.8130511574823913
  Basis Set: CC-PVTZ
  Basis Set:
  Charge       = 0
  Multiplicity = 1
  Basis Set: CC-PVTZ
  Basis Set:

    Orbital Energies (a.u.)
    -----------------------

    Doubly Occupied:

       1A    -20.592894     2A    -20.591658     3A    -15.839217
       4A    -11.302678     5A    -11.246001     6A     -1.638349
       7A     -1.422674     8A     -1.124642     9A     -0.967004
      10A     -0.836887    11A     -0.764715    12A     -0.745876
      13A     -0.731645    14A     -0.648808    15A     -0.592028
      16A     -0.563609    17A     -0.540652    18A     -0.489813
      19A     -0.479476    20A     -0.455992

  @DF-RHF Final Energy:  -282.81305373959890

   => Energetics <=

    Nuclear Repulsion Energy =            186.5772225973107368
    One-Electron Energy =                -755.6313195026285712
    Two-Electron Energy =                 286.2410431657190202
    DFT Exchange-Correlation Energy =       0.0000000000000000
    Empirical Dispersion Energy =           0.0000000000000000
    PCM Polarization Energy =               0.0000000000000000
    EFP Energy =                            0.0000000000000000
    Total Energy =                       -282.8130537395987858
    Molecular point group: c1
  Basis Set: CC-PVTZ
  Basis Set:

  -Total Gradient:
     Atom            X                  Y                   Z
    ------   -----------------  -----------------  -----------------
       1        0.000025554659    -0.000003034674    -0.000005180071
       2        0.000071198946     0.000186989120     0.000120971733
       3       -0.000037017544    -0.000194218825    -0.000164004643
       4       -0.000006264303     0.000003272900     0.000010272140
       5       -0.000006383497    -0.000042994085    -0.000003112719
       6       -0.000100120719     0.000119878446    -0.000231209672
       7       -0.000030787846     0.000002308768     0.000011349700
       8       -0.000032659769     0.000013866405    -0.000002818339
       9       -0.000018212589    -0.000120213333     0.000269269565
      10        0.000134692661     0.000034145278    -0.000005537693

  **** Optimization is complete! (in 6 steps) ****
    Final optimized geometry and variables:
    Molecular point group: c1

    Geometry (in Angstrom), charge = 0, multiplicity = 1:

    H            2.848881417514    -0.370990863683     0.008335281745
    C            1.914023250435     0.018001749388    -0.375144100085
    C            0.792540880125    -0.455463973703     0.525720893835
    H            1.782573429006    -0.348258995050    -1.385018824099
    H            1.967668160371     1.095021469364    -0.400269171706
    N           -0.544652142926     0.018884120347     0.060832978048
    H            0.713707343898    -1.527075526516     0.577239100159
    H            0.887442276175    -0.056425348004     1.525876605849
    O           -1.443749072763    -0.748235820643     0.138497544889
    O           -0.626684318937     1.136002238200    -0.325274749858

  Mulliken Charges: (a.u.)
   Center  Symbol    Alpha    Beta     Spin     Total
       1     H     0.44914  0.44914  0.00000  0.10173
       2     C     3.14079  3.14079  0.00000 -0.28158
       3     C     3.04027  3.04027  0.00000 -0.08055
       4     H     0.44535  0.44535  0.00000  0.10930
       5     H     0.43649  0.43649  0.00000  0.12701
       6     N     3.27754  3.27754  0.00000  0.44492
       7     H     0.43134  0.43134  0.00000  0.13733
       8     H     0.43715  0.43715  0.00000  0.12570
       9     O     4.16947  4.16947  0.00000 -0.33894
      10     O     4.17246  4.17246  0.00000 -0.34492

   Total alpha = 20.00000, Total beta = 20.00000, Total charge =  0.00000
