                              Psi4 1.0.54 Driver

  ==> Input File <==

--------------------------------------------------------------------------
set {
	reference rhf
	basis cc-pvtz
}

set_num_threads( 4 )
memory 2 gb

molecule MOL {
0 1

H	 -3.240162	 0.257276	 -0.363079
C	 -2.884095	 1.279110	 -0.472416
O	 -1.525496	 1.316422	 -0.755889
H	 -3.406643	 1.742979	 -1.296222
H	 -3.117373	 1.824023	 0.440566
C	 -0.718530	 0.758693	 0.228682
C	 0.718529	 0.758687	 -0.228709
H	 -0.795411	 1.334819	 1.150711
H	 -1.024982	 -0.262495	 0.444767
O	 1.401606	 -0.295166	 0.366636
H	 0.748705	 0.673477	 -1.312803
H	 1.176496	 1.708671	 0.046552
C	 2.714315	 -0.441627	 -0.061017
H	 2.765292	 -0.641548	 -1.128869
H	 3.305661	 0.447341	 0.150952
H	 3.143725	 -1.278506	 0.470147

	symmetry c1
}
set optking {
	frozen_dihedral = ("
		3 6 7 11
	")
}

ee,wfn = optimize('scf', return_wfn=True)
oeprop( wfn, 'DIPOLE', 'QUADRUPOLE', 'MULLIKEN_CHARGES')
f=open( 'psi4out.xyz', 'w' )
f.write( "16  " )
f.write( str(ee) + "\n" )
f.write( MOL.save_string_xyz() )
f.close()
--------------------------------------------------------------------------

    Molecular point group: c1
  Charge       = 0
  Multiplicity = 1
  Basis Set: CC-PVTZ
  Basis Set:
  @DF-RHF Final Energy:  -307.09625350305555
    Total Energy =                       -307.0962535030555500
    Molecular point group: c1
  Basis Set: CC-PVTZ
  Basis Set:
  Basis Set: CC-PVTZ
  Basis Set:
  @DF-RHF Final Energy:  -307.09697345154535
    Total Energy =                       -307.0969734515454093
  Basis Set: CC-PVTZ
  Basis Set:
  Basis Set: CC-PVTZ
  Basis Set:
  @DF-RHF Final Energy:  -307.09706098573963
    Total Energy =                       -307.0970609857394606
  Basis Set: CC-PVTZ
  Basis Set:
  Basis Set: CC-PVTZ
  Basis Set:
  @DF-RHF Final Energy:  -307.09706746804545
    Total Energy =                       -307.0970674680455659
  Basis Set: CC-PVTZ
  Basis Set:
  Charge       = 0
  Multiplicity = 1
  Basis Set: CC-PVTZ
  Basis Set:

    Orbital Energies (a.u.)
    -----------------------

    Doubly Occupied:

       1A    -20.552947     2A    -20.552265     3A    -11.266058
       4A    -11.265402     5A    -11.264633     6A    -11.264341
       7A     -1.392215     8A     -1.380895     9A     -1.030358
      10A     -0.942012    11A     -0.884362    12A     -0.832270
      13A     -0.692004    14A     -0.677523    15A     -0.661123
      16A     -0.649067    17A     -0.624766    18A     -0.601228
      19A     -0.570245    20A     -0.520109    21A     -0.509529
      22A     -0.485170    23A     -0.468273    24A     -0.421949
      25A     -0.418358

  @DF-RHF Final Energy:  -307.09706789780785

   => Energetics <=

    Nuclear Repulsion Energy =            254.9840686663969507
    One-Electron Energy =                -924.3080731902862226
    Two-Electron Energy =                 362.2269366260812831
    DFT Exchange-Correlation Energy =       0.0000000000000000
    Empirical Dispersion Energy =           0.0000000000000000
    PCM Polarization Energy =               0.0000000000000000
    EFP Energy =                            0.0000000000000000
    Total Energy =                       -307.0970678978079604
    Molecular point group: c1
  Basis Set: CC-PVTZ
  Basis Set:

  -Total Gradient:
     Atom            X                  Y                   Z
    ------   -----------------  -----------------  -----------------
       1        0.000022386384     0.000026844658    -0.000006999811
       2       -0.000096342683     0.000013541395     0.000023766260
       3       -0.000358855719    -0.002960955505    -0.001305601835
       4       -0.000003390592    -0.000003865450     0.000008056424
       5        0.000007060086    -0.000019713564    -0.000023440847
       6        0.000511030059     0.004763244256     0.001618695721
       7        0.000047588962    -0.005943311429    -0.000022537274
       8       -0.000003403245     0.000002801267    -0.000000384945
       9       -0.000005904350    -0.000004087189     0.000001111617
      10       -0.000028337344    -0.000003744714     0.000011888833
      11       -0.000147316642     0.004150956448    -0.000307549523
      12        0.000000732423    -0.000009719738     0.000007214441
      13        0.000073839803     0.000002308074    -0.000016497919
      14       -0.000007793621     0.000003016075     0.000023576490
      15       -0.000014677756    -0.000021714834    -0.000006934324
      16        0.000003384234     0.000004400250    -0.000004363306

  **** Optimization is complete! (in 5 steps) ****
    Final optimized geometry and variables:
    Molecular point group: c1

    Geometry (in Angstrom), charge = 0, multiplicity = 1:

    H           -3.254492841942    -0.178427712782    -0.051105380780
    C           -2.831892132608     0.800918823931    -0.263981152820
    O           -1.490099993762     0.709110340617    -0.612258764025
    H           -3.361754913107     1.234822476868    -1.099381405096
    H           -2.975071473108     1.434028621522     0.608723508849
    C           -0.679480311567     0.147278537495     0.370656272806
    C            0.756192607696     0.164157561247    -0.122097194371
    H           -0.774725816580     0.691572371310     1.307343886196
    H           -0.967816007506    -0.884343226022     0.556175166109
    O            1.448436734911    -0.881440505118     0.478290886102
    H            0.755000142625     0.085799875805    -1.206022538157
    H            1.226454602242     1.115649802049     0.121356945420
    C            2.798811831906    -0.934885511845     0.155256618544
    H            2.946388874380    -1.058654062365    -0.915088245637
    H            3.319878351171    -0.034444250120     0.472450336061
    H            3.227846539386    -1.784097000043     0.666729206405

  Mulliken Charges: (a.u.)
   Center  Symbol    Alpha    Beta     Spin     Total
       1     H     0.47091  0.47091  0.00000  0.05819
       2     C     3.02991  3.02991  0.00000 -0.05982
       3     O     4.17508  4.17508  0.00000 -0.35016
       4     H     0.44680  0.44680  0.00000  0.10640
       5     H     0.47108  0.47108  0.00000  0.05784
       6     C     2.96438  2.96438  0.00000  0.07124
       7     C     2.96428  2.96428  0.00000  0.07144
       8     H     0.47281  0.47281  0.00000  0.05439
       9     H     0.46924  0.46924  0.00000  0.06151
      10     O     4.17441  4.17441  0.00000 -0.34882
      11     H     0.46818  0.46818  0.00000  0.06363
      12     H     0.47463  0.47463  0.00000  0.05074
      13     C     3.03018  3.03018  0.00000 -0.06035
      14     H     0.47046  0.47046  0.00000  0.05908
      15     H     0.47097  0.47097  0.00000  0.05806
      16     H     0.44668  0.44668  0.00000  0.10664

   Total alpha = 25.00000, Total beta = 25.00000, Total charge = -0.00000

*** Psi4 exiting successfully. Buy a developer a beer!
