  ==> Input File <==

--------------------------------------------------------------------------
set {
	reference rhf
	basis 6-31G*
}

set_num_threads( 4 )
memory 2 gb

molecule MOL {
0 1

O	 -0.495642	 0.517548	 -2.818909
C	 -1.113860	 0.563037	 -1.799022
C	 -0.889235	 -0.467034	 -0.705952
C	 -2.121644	 1.658123	 -1.529697
C	 0.379448	 -0.143569	 0.099626
H	 -0.777761	 -1.434386	 -1.183558
H	 -1.748278	 -0.514153	 -0.042739
C	 1.631333	 -0.777471	 -0.511575
H	 0.482768	 0.934507	 0.149241
H	 0.263088	 -0.495696	 1.123449
C	 2.915987	 -0.544314	 0.291766
H	 1.766672	 -0.399098	 -1.523130
H	 1.471257	 -1.849544	 -0.605828
C	 3.373361	 0.914346	 0.347591
H	 3.708709	 -1.142521	 -0.150311
H	 2.780642	 -0.921148	 1.303579
H	 3.506512	 1.320010	 -0.651625
H	 4.322697	 0.999599	 0.867103
H	 2.660624	 1.545032	 0.868198
H	 -3.119369	 1.230691	 -1.473916
H	 -2.089927	 2.393430	 -2.321594
H	 -1.924244	 2.135777	 -0.574352

	symmetry c1
}
set optking {
	frozen_dihedral = ("
		6 3 5 8
	")
}

ee = optimize('scf')
oeprop('DIPOLE', 'QUADRUPOLE', 'MULLIKEN_CHARGES')
f=open( 'psi4out.xyz', 'w' )
f.write( "22  " )
f.write( str(ee) + "\n" )
f.write( MOL.save_string_xyz() )
f.close()
--------------------------------------------------------------------------

    Molecular point group: c1
  Charge       = 0
  Multiplicity = 1
  Basis Set: 6-31G*
  Basis Set:
  @DF-RHF Final Energy:  -348.09535734710380
    Total Energy =                       -348.0953573471037998
    Molecular point group: c1
  Basis Set: 6-31G*
  Basis Set:
  Basis Set: 6-31G*
  Basis Set:
  @DF-RHF Final Energy:  -348.09571476923060
    Total Energy =                       -348.0957147692305966
  Basis Set: 6-31G*
  Basis Set:
  Basis Set: 6-31G*
  Basis Set:
  @DF-RHF Final Energy:  -348.09574210766169
    Total Energy =                       -348.0957421076617493
  Basis Set: 6-31G*
  Basis Set:
  Basis Set: 6-31G*
  Basis Set:
  @DF-RHF Final Energy:  -348.09575567132669
    Total Energy =                       -348.0957556713265149
  Basis Set: 6-31G*
  Basis Set:
  @DF-RHF Final Energy:  -348.09580871370895
    Total Energy =                       -348.0958087137091184
  @DF-RHF Final Energy:  -348.09583404084151
    Total Energy =                       -348.0958340408415097
  Basis Set: 6-31G*
  Basis Set:
  @DF-RHF Final Energy:  -348.09584109087393
    Total Energy =                       -348.0958410908742735
  Basis Set: 6-31G*
  Basis Set:
  Basis Set: 6-31G*
  Basis Set:
  @DF-RHF Final Energy:  -348.09584486747616
    Total Energy =                       -348.0958448674767851
  Basis Set: 6-31G*
  Basis Set:
  Basis Set: 6-31G*
  Basis Set:
  @DF-RHF Final Energy:  -348.09584606594080
    Total Energy =                       -348.0958460659410321
  Basis Set: 6-31G*
  Basis Set:
  Charge       = 0
  Multiplicity = 1
  Basis Set: 6-31G*
  Basis Set:

    Orbital Energies (a.u.)
    -----------------------

    Doubly Occupied:

       1A    -20.547988     2A    -11.324591     3A    -11.231167
       4A    -11.229390     5A    -11.228261     6A    -11.217250
       7A    -11.215601     8A    -11.209576     9A     -1.393308
      10A     -1.093185    11A     -1.042692    12A     -0.997816
      13A     -0.935504    14A     -0.857868    15A     -0.785099
      16A     -0.733625    17A     -0.658840    18A     -0.642660
      19A     -0.625870    20A     -0.609685    21A     -0.600031
      22A     -0.584466    23A     -0.557799    24A     -0.546816
      25A     -0.532182    26A     -0.518143    27A     -0.504986
      28A     -0.483920    29A     -0.468088    30A     -0.461115
      31A     -0.452890    32A     -0.396011

  @DF-RHF Final Energy:  -348.09584618739814

   => Energetics <=

    Nuclear Repulsion Energy =            380.0266482863171404
    One-Electron Energy =               -1224.8721392446095706
    Two-Electron Energy =                 496.7496447708942355
    DFT Exchange-Correlation Energy =       0.0000000000000000
    Empirical Dispersion Energy =           0.0000000000000000
    PCM Polarization Energy =               0.0000000000000000
    EFP Energy =                            0.0000000000000000
    Total Energy =                       -348.0958461873981946
    Molecular point group: c1
  Basis Set: 6-31G*
  Basis Set:

  -Total Gradient:
     Atom            X                  Y                   Z
    ------   -----------------  -----------------  -----------------
       1       -0.000004307906     0.000003680995     0.000011443139
       2        0.000004773144    -0.000007852241    -0.000012520976
       3       -0.001846648856    -0.002799935951     0.003843901894
       4       -0.000017645616    -0.000008314177    -0.000013023517
       5        0.000804362392     0.003257619268    -0.002453421141
       6        0.001382537437     0.001623039967    -0.002696978889
       7        0.000002479099    -0.000001081289    -0.000005037514
       8       -0.000332180496    -0.002069488982     0.001304008107
       9        0.000001540503     0.000001092879     0.000000301092
      10       -0.000005915716    -0.000000553547    -0.000000133911
      11       -0.000008459924    -0.000004459821     0.000012209000
      12       -0.000002062402    -0.000002076138    -0.000004000793
      13       -0.000001118014     0.000002955058     0.000003706516
      14        0.000002503656     0.000003868126    -0.000004638369
      15       -0.000004915541     0.000000821228    -0.000002579424
      16        0.000004340191    -0.000006198154     0.000002730490
      17        0.000002601290     0.000004059007     0.000000721557
      18       -0.000002244585     0.000001188707    -0.000000109587
      19        0.000003903190    -0.000001343142    -0.000001335469
      20        0.000000614560     0.000003137688     0.000009118396
      21        0.000005590120     0.000001000548     0.000001166725
      22        0.000010253474    -0.000001160030     0.000004472677

  **** Optimization is complete! (in 10 steps) ****
    Final optimized geometry and variables:
    Molecular point group: c1

    Geometry (in Angstrom), charge = 0, multiplicity = 1:

    O           -1.055941112270     0.202110086652    -2.047158102822
    C           -1.574657263791     0.302404470271    -0.976460846606
    C           -1.365003048865    -0.744000248394     0.103980555399
    C           -2.452603710432     1.486564428565    -0.632267371503
    C           -0.107468849812    -0.421295789636     0.944184281170
    H           -1.237452433355    -1.692914538945    -0.403376837244
    H           -2.241277096887    -0.798977144132     0.741562183390
    C            1.172080868963    -1.010830767032     0.343839433538
    H           -0.013537160829     0.653905036571     1.067798913247
    H           -0.243286893501    -0.826842718445     1.943399316613
    C            2.442115327300    -0.715189840455     1.149346865253
    H            1.294135042531    -0.652668216957    -0.674905889008
    H            1.046916474652    -2.088854326027     0.274896597408
    C            2.867054945654     0.754661983510     1.150807189432
    H            3.252892359938    -1.310188652810     0.736914040311
    H            2.308666729179    -1.055478286730     2.174601623360
    H            2.998432000507     1.122834515717     0.137211001110
    H            3.810046059167     0.881958373393     1.673430986099
    H            2.137376783198     1.390464879247     1.641792037057
    H           -3.485642376426     1.157374938880    -0.554765380577
    H           -2.376322797051     2.239721983734    -1.404125301946
    H           -2.179164840919     1.911865231502     0.328406033294

  Mulliken Charges: (a.u.)
   Center  Symbol    Alpha    Beta     Spin     Total
       1     O     4.26139  4.26139  0.00000 -0.52278
       2     C     2.73906  2.73906  0.00000  0.52189
       3     C     3.20339  3.20339  0.00000 -0.40679
       4     C     3.28897  3.28897  0.00000 -0.57794
       5     C     3.16487  3.16487  0.00000 -0.32975
       6     H     0.39969  0.39969  0.00000  0.20062
       7     H     0.41334  0.41334  0.00000  0.17332
       8     C     3.15589  3.15589  0.00000 -0.31178
       9     H     0.41709  0.41709  0.00000  0.16582
      10     H     0.41574  0.41574  0.00000  0.16852
      11     C     3.15433  3.15433  0.00000 -0.30866
      12     H     0.40722  0.40722  0.00000  0.18555
      13     H     0.42079  0.42079  0.00000  0.15841
      14     C     3.24163  3.24163  0.00000 -0.48325
      15     H     0.41874  0.41874  0.00000  0.16252
      16     H     0.42438  0.42438  0.00000  0.15124
      17     H     0.41867  0.41867  0.00000  0.16265
      18     H     0.41864  0.41864  0.00000  0.16271
      19     H     0.42265  0.42265  0.00000  0.15470
      20     H     0.40640  0.40640  0.00000  0.18720
      21     H     0.39707  0.39707  0.00000  0.20586
      22     H     0.41003  0.41003  0.00000  0.17993

   Total alpha = 32.00000, Total beta = 32.00000, Total charge =  0.00000
