  ==> Input File <==

--------------------------------------------------------------------------
set {
	reference rhf
	basis 6-31G*
}

set_num_threads( 1 )
memory 2 gb

molecule MOL {
0 1

H	 -1.796418	 -1.068983	 0.517315
O	 -1.422729	 -0.573567	 -0.196946
C	 -0.731407	 0.539437	 0.309156
C	 0.680193	 0.672443	 -0.251532
H	 -1.319765	 1.404033	 0.030086
H	 -0.700012	 0.506517	 1.397677
C	 1.599139	 -0.492137	 0.118598
H	 0.616402	 0.758534	 -1.332349
H	 1.107032	 1.602637	 0.117369
H	 1.239738	 -1.428634	 -0.297334
H	 2.601428	 -0.335055	 -0.265730
H	 1.674954	 -0.608418	 1.197020

	symmetry c1
}
set optking {
	frozen_dihedral = ("
		8 4 3 2
	")
}

ee = energy('scf')
oeprop('DIPOLE', 'QUADRUPOLE', 'MULLIKEN_CHARGES')
f=open( 'psi4out.xyz', 'w' )
f.write( "12  " )
f.write( str(ee) + "\n" )
f.write( MOL.save_string_xyz() )
f.close()
--------------------------------------------------------------------------

    Molecular point group: c1

    Geometry (in Angstrom), charge = 0, multiplicity = 1:

       Center              X                  Y                   Z               Mass
    ------------   -----------------  -----------------  -----------------  -----------------
           H         -1.784243303972    -1.073976405425     0.511666126377     1.007825032070
           O         -1.410554303972    -0.578560405425    -0.202594873623    15.994914619560
           C         -0.719232303972     0.534443594575     0.303507126377    12.000000000000
           C          0.692367696028     0.667449594575    -0.257180873623    12.000000000000
           H         -1.307590303972     1.399039594575     0.024437126377     1.007825032070
           H         -0.687837303972     0.501523594575     1.392028126377     1.007825032070
           C          1.611313696028    -0.497130405425     0.112949126377    12.000000000000
           H          0.628576696028     0.753540594575    -1.337997873623     1.007825032070
           H          1.119206696028     1.597643594575     0.111720126377     1.007825032070
           H          1.251912696028    -1.433627405425    -0.302982873623     1.007825032070
           H          2.613602696028    -0.340048405425    -0.271378873623     1.007825032070
           H          1.687128696028    -0.613411405425     1.191371126377     1.007825032070

  Charge       = 0
  Multiplicity = 1
  Basis Set: 6-31G*
  Basis Set:

    Orbital Energies (a.u.)
    -----------------------

    Doubly Occupied:

       1A    -20.551730     2A    -11.267830     3A    -11.216073
       4A    -11.207329     5A     -1.359312     6A     -1.046750
       7A     -0.920517     8A     -0.801121     9A     -0.704275
      10A     -0.636465    11A     -0.594060    12A     -0.582387
      13A     -0.524540    14A     -0.508885    15A     -0.487752
      16A     -0.466376    17A     -0.427063

  @DF-RHF Final Energy:  -193.10803734739883

   => Energetics <=

    Nuclear Repulsion Energy =            132.6246322349770992
    One-Electron Energy =                -524.8606065499377564
    Two-Electron Energy =                 199.1279369675619648
    DFT Exchange-Correlation Energy =       0.0000000000000000
    Empirical Dispersion Energy =           0.0000000000000000
    PCM Polarization Energy =               0.0000000000000000
    EFP Energy =                            0.0000000000000000
    Total Energy =                       -193.1080373473987208

  Mulliken Charges: (a.u.)
   Center  Symbol    Alpha    Beta     Spin     Total
       1     H     0.27917  0.27917  0.00000  0.44166
       2     O     4.37179  4.37179  0.00000 -0.74358
       3     C     2.99637  2.99637  0.00000  0.00726
       4     C     3.15825  3.15825  0.00000 -0.31649
       5     H     0.42276  0.42276  0.00000  0.15448
       6     H     0.43380  0.43380  0.00000  0.13240
       7     C     3.24390  3.24390  0.00000 -0.48779
       8     H     0.41428  0.41428  0.00000  0.17144
       9     H     0.42341  0.42341  0.00000  0.15317
      10     H     0.41089  0.41089  0.00000  0.17823
      11     H     0.41907  0.41907  0.00000  0.16186
      12     H     0.42632  0.42632  0.00000  0.14736

   Total alpha = 17.00000, Total beta = 17.00000, Total charge = -0.00000
