                              Psi4 1.0.54 Driver

  ==> Input File <==

--------------------------------------------------------------------------
set {
	reference rhf
	basis cc-pvtz
}

set_num_threads( 4 )
memory 2 gb

molecule MOL {
0 1

O	 0.749630	 1.305591	 -0.000460
C	 0.576499	 0.134701	 -0.003900
C	 -0.765656	 -0.550508	 -0.002152
O	 1.564816	 -0.744612	 -0.000631
C	 -1.945526	 0.411052	 0.000603
H	 -0.794329	 -1.203792	 -0.868145
H	 -0.791555	 -1.205429	 0.862701
C	 -1.776242	 1.524525	 1.028438
H	 -2.855884	 -0.141004	 0.200290
H	 -2.062208	 0.836206	 -0.988846
H	 -1.688939	 1.124337	 2.033195
H	 -2.626035	 2.196165	 1.013854
H	 -0.886688	 2.113258	 0.829906
C	 2.884339	 -0.237801	 0.002883
H	 3.064150	 0.362814	 -0.876312
H	 3.533055	 -1.098529	 0.004958
H	 3.059365	 0.363432	 0.882614

	symmetry c1
}
set optking {
	frozen_dihedral = ("
		9 5 3 6
	")
}

ee,wfn = optimize('scf', return_wfn=True)
oeprop( wfn, 'DIPOLE', 'QUADRUPOLE', 'MULLIKEN_CHARGES')
f=open( 'psi4out.xyz', 'w' )
f.write( "17  " )
f.write( str(ee) + "\n" )
f.write( MOL.save_string_xyz() )
f.close()
--------------------------------------------------------------------------

    Molecular point group: c1
  Charge       = 0
  Multiplicity = 1
  Basis Set: CC-PVTZ
  Basis Set:
  @DF-RHF Final Energy:  -345.02511756143906
    Total Energy =                       -345.0251175614391741
    Molecular point group: c1
  Basis Set: CC-PVTZ
  Basis Set:
  Basis Set: CC-PVTZ
  Basis Set:
  @DF-RHF Final Energy:  -345.03093533765548
    Total Energy =                       -345.0309353376552508
  Basis Set: CC-PVTZ
  Basis Set:
  Basis Set: CC-PVTZ
  Basis Set:
  @DF-RHF Final Energy:  -345.03151974323134
    Total Energy =                       -345.0315197432311152
  Basis Set: CC-PVTZ
  Basis Set:
  Basis Set: CC-PVTZ
  Basis Set:
  @DF-RHF Final Energy:  -345.02993101332549
    Total Energy =                       -345.0299310133256085
  Basis Set: CC-PVTZ
  Basis Set:
  @DF-RHF Final Energy:  -345.03251712087712
    Total Energy =                       -345.0325171208770030
  @DF-RHF Final Energy:  -345.03284265443449
    Total Energy =                       -345.0328426544342619
  @DF-RHF Final Energy:  -345.03295073618779
    Total Energy =                       -345.0329507361875585
  Basis Set: CC-PVTZ
  Basis Set:
  @DF-RHF Final Energy:  -345.03300755420452
    Total Energy =                       -345.0330075542049144
  Basis Set: CC-PVTZ
  Basis Set:
  Basis Set: CC-PVTZ
  Basis Set:
  @DF-RHF Final Energy:  -345.03301645919856
    Total Energy =                       -345.0330164591985067
  Basis Set: CC-PVTZ
  Basis Set:
  Basis Set: CC-PVTZ
  Basis Set:
  @DF-RHF Final Energy:  -345.03301968152567
    Total Energy =                       -345.0330196815254453
  Basis Set: CC-PVTZ
  Basis Set:
  Charge       = 0
  Multiplicity = 1
  Basis Set: CC-PVTZ
  Basis Set:

    Orbital Energies (a.u.)
    -----------------------

    Doubly Occupied:

       1A    -20.598371     2A    -20.532666     3A    -11.365081
       4A    -11.279064     5A    -11.234563     6A    -11.223415
       7A    -11.206622     8A     -1.473231     9A     -1.365734
      10A     -1.080138    11A     -1.000057    12A     -0.940521
      13A     -0.831078    14A     -0.768479    15A     -0.699354
      16A     -0.685083    17A     -0.674418    18A     -0.629069
      19A     -0.613002    20A     -0.571533    21A     -0.561898
      22A     -0.536072    23A     -0.525772    24A     -0.493007
      25A     -0.484762    26A     -0.482309    27A     -0.460213
      28A     -0.437121

  @DF-RHF Final Energy:  -345.03301996371505

   => Energetics <=

    Nuclear Repulsion Energy =            319.7152228478847178
    One-Electron Energy =               -1103.9912161577726692
    Two-Electron Energy =                 439.2429733461724481
    DFT Exchange-Correlation Energy =       0.0000000000000000
    Empirical Dispersion Energy =           0.0000000000000000
    PCM Polarization Energy =               0.0000000000000000
    EFP Energy =                            0.0000000000000000
    Total Energy =                       -345.0330199637155602
    Molecular point group: c1
  Basis Set: CC-PVTZ
  Basis Set:

  -Total Gradient:
     Atom            X                  Y                   Z
    ------   -----------------  -----------------  -----------------
       1        0.000035560858     0.000075961504    -0.000038265930
       2        0.000026301338    -0.000096016416     0.000084400567
       3       -0.003349119090    -0.003737414576     0.003717342868
       4        0.000024685063     0.000054460100    -0.000044235597
       5        0.000388741548    -0.000058488374    -0.006071641066
       6        0.002737893854     0.003120201205    -0.002223695373
       7       -0.000016344116    -0.000002561991    -0.000002112472
       8       -0.000007091760    -0.000023369784    -0.000028816448
       9        0.000208107078     0.000672725856     0.004595422241
      10        0.000006777205    -0.000007191345     0.000004833748
      11        0.000002602109     0.000002273000     0.000004366873
      12        0.000000417387     0.000006428887     0.000000688519
      13        0.000014850431     0.000003819936     0.000001369093
      14       -0.000082371304    -0.000023217603     0.000011912640
      15        0.000001162045     0.000000383350    -0.000038563292
      16        0.000010854777    -0.000021555217     0.000014936544
      17       -0.000003027422     0.000033561468     0.000012057088

  **** Optimization is complete! (in 11 steps) ****
    Final optimized geometry and variables:
    Molecular point group: c1

    Geometry (in Angstrom), charge = 0, multiplicity = 1:

    O            0.648216413888     0.830705259949    -0.834685570827
    C            0.395556672565    -0.169607190641    -0.252551507037
    C           -0.959400493235    -0.835629130076    -0.229268308393
    O            1.299357945475    -0.864436726586     0.415937554581
    C           -2.135789762641     0.136500253869    -0.318949201000
    H           -0.945427722400    -1.473856447105    -1.108906168825
    H           -1.027835155637    -1.471891852560     0.641672307258
    C           -2.129524823786     1.221356592138     0.757213352384
    H           -3.043005064740    -0.444710132743    -0.191000271675
    H           -2.163614214882     0.590890168697    -1.300297229209
    H           -2.096051377523     0.783803105087     1.750538176949
    H           -3.030567402819     1.820157178678     0.694624166161
    H           -1.282540399484     1.884827447022     0.649781600002
    C            2.627846210082    -0.381242243115     0.403452131840
    H            3.009165969406    -0.341260991692    -0.606142031490
    H            3.203014537319    -1.077582712916     0.991810467197
    H            2.678089636963     0.605760982153     0.838528293512

  Mulliken Charges: (a.u.)
   Center  Symbol    Alpha    Beta     Spin     Total
       1     O     4.20346  4.20346  0.00000 -0.40692
       2     C     2.80331  2.80331  0.00000  0.39339
       3     C     3.10289  3.10289  0.00000 -0.20578
       4     O     4.14554  4.14554  0.00000 -0.29108
       5     C     3.08112  3.08112  0.00000 -0.16224
       6     H     0.43946  0.43946  0.00000  0.12108
       7     H     0.43589  0.43589  0.00000  0.12822
       8     C     3.15789  3.15789  0.00000 -0.31578
       9     H     0.44894  0.44894  0.00000  0.10212
      10     H     0.44612  0.44612  0.00000  0.10775
      11     H     0.45627  0.45627  0.00000  0.08747
      12     H     0.44778  0.44778  0.00000  0.10443
      13     H     0.44237  0.44237  0.00000  0.11526
      14     C     3.03541  3.03541  0.00000 -0.07082
      15     H     0.45438  0.45438  0.00000  0.09124
      16     H     0.44517  0.44517  0.00000  0.10966
      17     H     0.45400  0.45400  0.00000  0.09200

   Total alpha = 28.00000, Total beta = 28.00000, Total charge =  0.00000

*** Psi4 exiting successfully. Buy a developer a beer!
