  ==> Input File <==

--------------------------------------------------------------------------
set {
	reference rhf
	basis 6-31G*
}

set_num_threads( 4 )
memory 2 gb

molecule MOL {
0 1

O	 0.719185	 0.918941	 1.832588
C	 -0.245068	 1.048580	 1.150180
C	 -1.180308	 2.226658	 1.192666
O	 -0.632575	 0.154573	 0.251549
H	 -2.181736	 1.890673	 1.435986
H	 -0.837853	 2.934943	 1.932188
H	 -1.220103	 2.697862	 0.217402
C	 0.160891	 -1.019931	 0.106212
C	 1.589627	 -0.672828	 0.480843
H	 0.089836	 -1.367806	 -0.916050
H	 -0.238459	 -1.792301	 0.749618
C	 2.246377	 0.346236	 -0.452210
H	 2.163194	 -1.597435	 0.473358
H	 1.604769	 -0.303424	 1.502885
C	 3.691736	 0.652107	 -0.061850
H	 2.219579	 -0.032311	 -1.472055
H	 1.666466	 1.263317	 -0.447249
H	 4.134505	 1.377213	 -0.737283
H	 4.305508	 -0.243868	 -0.089969
H	 3.748266	 1.059562	 0.943567

	symmetry c1
}
set optking {
	frozen_dihedral = ("
		2 4 8 10
	")
}

ee = optimize('scf')
oeprop('DIPOLE', 'QUADRUPOLE', 'MULLIKEN_CHARGES')
f=open( 'psi4out.xyz', 'w' )
f.write( "20  " )
f.write( str(ee) + "\n" )
f.write( MOL.save_string_xyz() )
f.close()
--------------------------------------------------------------------------

    Molecular point group: c1
  Charge       = 0
  Multiplicity = 1
  Basis Set: 6-31G*
  Basis Set:
  @DF-RHF Final Energy:  -383.88531230914043
    Total Energy =                       -383.8853123091404314
    Molecular point group: c1
  Basis Set: 6-31G*
  Basis Set:
  Basis Set: 6-31G*
  Basis Set:
  @DF-RHF Final Energy:  -383.91924205466614
    Total Energy =                       -383.9192420546660287
  Basis Set: 6-31G*
  Basis Set:
  Basis Set: 6-31G*
  Basis Set:
  @DF-RHF Final Energy:  -383.92868816716123
    Total Energy =                       -383.9286881671612264
  Basis Set: 6-31G*
  Basis Set:
  Basis Set: 6-31G*
  Basis Set:
  @DF-RHF Final Energy:  -383.93288211451738
    Total Energy =                       -383.9328821145173833
  Basis Set: 6-31G*
  Basis Set:
  @DF-RHF Final Energy:  -383.93237428264990
    Total Energy =                       -383.9323742826499029
  @DF-RHF Final Energy:  -383.93515918454193
    Total Energy =                       -383.9351591845423854
  @DF-RHF Final Energy:  -383.93566755537336
    Total Energy =                       -383.9356675553733567
  @DF-RHF Final Energy:  -383.93585947306087
    Total Energy =                       -383.9358594730612140
  @DF-RHF Final Energy:  -383.93597429438375
    Total Energy =                       -383.9359742943831861
  Basis Set: 6-31G*
  Basis Set:
  @DF-RHF Final Energy:  -383.93599931835035
    Total Energy =                       -383.9359993183502411
  Basis Set: 6-31G*
  Basis Set:
  Basis Set: 6-31G*
  Basis Set:
  @DF-RHF Final Energy:  -383.93600737030528
    Total Energy =                       -383.9360073703054468
  Basis Set: 6-31G*
  Basis Set:
  Basis Set: 6-31G*
  Basis Set:
  @DF-RHF Final Energy:  -383.93600999164801
    Total Energy =                       -383.9360099916484614
  Basis Set: 6-31G*
  Basis Set:
  Charge       = 0
  Multiplicity = 1
  Basis Set: 6-31G*
  Basis Set:

    Orbital Energies (a.u.)
    -----------------------

    Doubly Occupied:

       1A    -20.599289     2A    -20.541901     3A    -11.375955
       4A    -11.288334     5A    -11.231190     6A    -11.219084
       7A    -11.218463     8A    -11.209427     9A     -1.462071
      10A     -1.362130    11A     -1.082209    12A     -1.027174
      13A     -0.979100    14A     -0.893426    15A     -0.815608
      16A     -0.742430    17A     -0.691527    18A     -0.677954
      19A     -0.670157    20A     -0.635016    21A     -0.599925
      22A     -0.589426    23A     -0.569886    24A     -0.562680
      25A     -0.538252    26A     -0.522309    27A     -0.512575
      28A     -0.480478    29A     -0.476459    30A     -0.470612
      31A     -0.441682    32A     -0.428952

  @DF-RHF Final Energy:  -383.93601096774154

   => Energetics <=

    Nuclear Repulsion Energy =            396.8725544349445613
    One-Electron Energy =               -1309.7857662992080350
    Two-Electron Energy =                 528.9772008965220493
    DFT Exchange-Correlation Energy =       0.0000000000000000
    Empirical Dispersion Energy =           0.0000000000000000
    PCM Polarization Energy =               0.0000000000000000
    EFP Energy =                            0.0000000000000000
    Total Energy =                       -383.9360109677414812
    Molecular point group: c1
  Basis Set: 6-31G*
  Basis Set:

  -Total Gradient:
     Atom            X                  Y                   Z
    ------   -----------------  -----------------  -----------------
       1        0.000015173297    -0.000037869105    -0.000002790676
       2        0.003239335782     0.003297926784    -0.004319540488
       3        0.000036730624     0.000006746159    -0.000015668737
       4       -0.004123016296    -0.004346687179     0.006269645240
       5       -0.000008407698    -0.000001239828     0.000011272917
       6       -0.000005687107    -0.000004979658     0.000002881306
       7       -0.000013494269    -0.000009277940     0.000003255410
       8       -0.003866200267    -0.003032631815    -0.000550701640
       9       -0.000012728067    -0.000000794032     0.000021933940
      10        0.004756449570     0.004088546442    -0.001496315080
      11        0.000010949703     0.000014832316     0.000020926057
      12       -0.000007105646     0.000034993294     0.000043035241
      13       -0.000003288608    -0.000001884678    -0.000004043954
      14        0.000006827358     0.000026665705     0.000016100661
      15       -0.000040148337    -0.000010479518     0.000002833437
      16       -0.000007779392    -0.000008136443     0.000006197079
      17        0.000001722812    -0.000006898417    -0.000006333281
      18        0.000002614248    -0.000001214242     0.000007424557
      19        0.000015274684    -0.000002991996    -0.000008066415
      20        0.000002777610    -0.000004625850    -0.000002045576

  **** Optimization is complete! (in 13 steps) ****
    Final optimized geometry and variables:
    Molecular point group: c1

    Geometry (in Angstrom), charge = 0, multiplicity = 1:

    O           -0.387738300598     0.640674813770     1.533929161136
    C           -1.204549648995     0.646866178857     0.670638078450
    C           -2.197856499039     1.758495860328     0.452237094399
    O           -1.390773849098    -0.320913205421    -0.212331560182
    H           -3.206080404895     1.363868633528     0.498537313419
    H           -2.061881295586     2.518795443240     1.206851513038
    H           -2.058022157985     2.185123536342    -0.534437465585
    C           -0.508487574684    -1.431832615075    -0.403149386583
    C            0.983719411915    -1.213518312499    -0.168681053765
    H           -0.635911660215    -1.665306632025    -1.451265405552
    H           -0.876544223155    -2.250377559785     0.201023948172
    C            1.604070909876    -0.119824206413    -1.040276402072
    H            1.447041670769    -2.166999397144    -0.420708202041
    H            1.190085192177    -1.024268170816     0.873725008064
    C            3.118216795688    -0.023510987746    -0.857205684744
    H            1.377261226203    -0.316509261051    -2.086589002542
    H            1.159066832101     0.840339795809    -0.801103435818
    H            3.539212282598     0.757715116128    -1.482229771586
    H            3.607033041398    -0.957464149216    -1.120499943706
    H            3.370910287506     0.204408056408     0.173781368397

  Mulliken Charges: (a.u.)
   Center  Symbol    Alpha    Beta     Spin     Total
       1     O     4.28465  4.28465  0.00000 -0.56929
       2     C     2.61585  2.61585  0.00000  0.76830
       3     C     3.28142  3.28142  0.00000 -0.56283
       4     O     4.31757  4.31757  0.00000 -0.63514
       5     H     0.40033  0.40033  0.00000  0.19935
       6     H     0.39802  0.39802  0.00000  0.20396
       7     H     0.40199  0.40199  0.00000  0.19603
       8     C     2.99046  2.99046  0.00000  0.01907
       9     C     3.17892  3.17892  0.00000 -0.35785
      10     H     0.41201  0.41201  0.00000  0.17598
      11     H     0.41100  0.41100  0.00000  0.17800
      12     C     3.15456  3.15456  0.00000 -0.30912
      13     H     0.42174  0.42174  0.00000  0.15651
      14     H     0.39193  0.39193  0.00000  0.21614
      15     C     3.24009  3.24009  0.00000 -0.48019
      16     H     0.42539  0.42539  0.00000  0.14921
      17     H     0.41653  0.41653  0.00000  0.16694
      18     H     0.41872  0.41872  0.00000  0.16257
      19     H     0.42280  0.42280  0.00000  0.15440
      20     H     0.41602  0.41602  0.00000  0.16796

   Total alpha = 32.00000, Total beta = 32.00000, Total charge =  0.00000
