                              Psi4 1.0.54 Driver

  ==> Input File <==

--------------------------------------------------------------------------
set {
	reference rhf
	basis cc-pvtz
}

set_num_threads( 4 )
memory 2 gb

molecule MOL {
0 1

O	 1.109093	 -0.321408	 -0.276301
C	 0.029490	 0.077183	 0.000078
C	 -1.232113	 -0.748027	 0.000015
O	 -0.213584	 1.328487	 0.352760
C	 -2.501422	 0.088592	 -0.000052
H	 -1.188777	 -1.400384	 -0.865133
H	 -1.188857	 -1.400312	 0.865225
H	 -2.548170	 0.725504	 -0.873205
H	 -3.371613	 -0.556398	 -0.000040
H	 -2.548215	 0.725571	 0.873047
C	 0.885632	 2.215942	 0.395097
H	 1.622508	 1.876348	 1.107786
H	 0.486505	 3.170142	 0.698453
H	 1.347507	 2.297203	 -0.577690

	symmetry c1
}
set optking {
	frozen_dihedral = ("
		4 2 3 6
	")
}

ee,wfn = optimize('scf', return_wfn=True)
oeprop( wfn, 'DIPOLE', 'QUADRUPOLE', 'MULLIKEN_CHARGES')
f=open( 'psi4out.xyz', 'w' )
f.write( "14  " )
f.write( str(ee) + "\n" )
f.write( MOL.save_string_xyz() )
f.close()
--------------------------------------------------------------------------

    Molecular point group: c1
  Charge       = 0
  Multiplicity = 1
  Basis Set: CC-PVTZ
  Basis Set:
  @DF-RHF Final Energy:  -305.98405577751390
    Total Energy =                       -305.9840557775140724
    Molecular point group: c1
  Basis Set: CC-PVTZ
  Basis Set:
  Basis Set: CC-PVTZ
  Basis Set:
  @DF-RHF Final Energy:  -305.98484960757952
    Total Energy =                       -305.9848496075794060
  Basis Set: CC-PVTZ
  Basis Set:
  Basis Set: CC-PVTZ
  Basis Set:
  @DF-RHF Final Energy:  -305.98506715381211
    Total Energy =                       -305.9850671538121674
  Basis Set: CC-PVTZ
  Basis Set:
  Basis Set: CC-PVTZ
  Basis Set:
  @DF-RHF Final Energy:  -305.98511771524102
    Total Energy =                       -305.9851177152409036
  Basis Set: CC-PVTZ
  Basis Set:
  Basis Set: CC-PVTZ
  Basis Set:
  @DF-RHF Final Energy:  -305.98521162671415
    Total Energy =                       -305.9852116267138058
  Basis Set: CC-PVTZ
  Basis Set:
  Basis Set: CC-PVTZ
  Basis Set:
  @DF-RHF Final Energy:  -305.98522345873903
    Total Energy =                       -305.9852234587391990
  Basis Set: CC-PVTZ
  Basis Set:
  Charge       = 0
  Multiplicity = 1
  Basis Set: CC-PVTZ
  Basis Set:

    Orbital Energies (a.u.)
    -----------------------

    Doubly Occupied:

       1A    -20.600046     2A    -20.530463     3A    -11.365501
       4A    -11.280061     5A    -11.237486     6A    -11.219601
       7A     -1.474203     8A     -1.364992     9A     -1.067115
      10A     -0.976275    11A     -0.888208    12A     -0.777388
      13A     -0.697189    14A     -0.686107    15A     -0.675351
      16A     -0.622479    17A     -0.587309    18A     -0.560504
      19A     -0.548917    20A     -0.523987    21A     -0.517360
      22A     -0.500118    23A     -0.458109    24A     -0.437061

  @DF-RHF Final Energy:  -305.98522362387303

   => Energetics <=

    Nuclear Repulsion Energy =            248.8603227085136211
    One-Electron Energy =                -910.4994301773115239
    Two-Electron Energy =                 355.6538838449250193
    DFT Exchange-Correlation Energy =       0.0000000000000000
    Empirical Dispersion Energy =           0.0000000000000000
    PCM Polarization Energy =               0.0000000000000000
    EFP Energy =                            0.0000000000000000
    Total Energy =                       -305.9852236238728551
    Molecular point group: c1
  Basis Set: CC-PVTZ
  Basis Set:

  -Total Gradient:
     Atom            X                  Y                   Z
    ------   -----------------  -----------------  -----------------
       1       -0.000022930781     0.000023585565     0.000007367930
       2        0.000039408854    -0.000099097674     0.000500737561
       3        0.000217720443    -0.000376201991     0.000161299952
       4       -0.000041458358     0.000102937093    -0.000394604975
       5        0.000003243011     0.000007220984    -0.000004481311
       6       -0.000186206061     0.000343017141    -0.000276813615
       7        0.000008893326     0.000001321503     0.000002250957
       8       -0.000003262202    -0.000005105533     0.000006575312
       9        0.000008408433     0.000000092908     0.000004436224
      10       -0.000010969125     0.000014005370     0.000006853599
      11       -0.000016248461    -0.000007352451    -0.000019531051
      12       -0.000003915850    -0.000006573272     0.000002496732
      13        0.000003747109     0.000000532764     0.000002303698
      14        0.000003569660     0.000001617587     0.000001108988

  **** Optimization is complete! (in 7 steps) ****
    Final optimized geometry and variables:
    Molecular point group: c1

    Geometry (in Angstrom), charge = 0, multiplicity = 1:

    O            1.346727597145    -0.883441201400    -0.322228341615
    C            0.303044715854    -0.380167380193    -0.075959988571
    C           -1.003709721670    -1.139248798369    -0.085907789106
    O            0.174918600120     0.891943091778     0.251214007418
    C           -2.278278060333    -0.305296126612    -0.095024180445
    H           -0.960567207328    -1.794936849756    -0.945482470821
    H           -0.977087893653    -1.783708582103     0.786764582402
    H           -2.319382836973     0.343268893885    -0.961037825625
    H           -3.141347270173    -0.959099020795    -0.125036680941
    H           -2.353970931514     0.314880789539     0.787333982412
    C            1.355840649539     1.667663453541     0.307960370152
    H            2.037583447518     1.268664087393     1.044033901974
    H            1.045275936598     2.661566517718     0.586342878921
    H            1.845869784164     1.684386765506    -0.653932183962

  Mulliken Charges: (a.u.)
   Center  Symbol    Alpha    Beta     Spin     Total
       1     O     4.20385  4.20385  0.00000 -0.40771
       2     C     2.80504  2.80504  0.00000  0.38992
       3     C     3.09071  3.09071  0.00000 -0.18141
       4     O     4.14254  4.14254  0.00000 -0.28508
       5     C     3.14071  3.14071  0.00000 -0.28142
       6     H     0.43647  0.43647  0.00000  0.12706
       7     H     0.44266  0.44266  0.00000  0.11468
       8     H     0.45101  0.45101  0.00000  0.09799
       9     H     0.44941  0.44941  0.00000  0.10118
      10     H     0.44861  0.44861  0.00000  0.10278
      11     C     3.03573  3.03573  0.00000 -0.07146
      12     H     0.45340  0.45340  0.00000  0.09319
      13     H     0.44663  0.44663  0.00000  0.10674
      14     H     0.45323  0.45323  0.00000  0.09353

   Total alpha = 24.00000, Total beta = 24.00000, Total charge = -0.00000

*** Psi4 exiting successfully. Buy a developer a beer!
