  ==> Input File <==

--------------------------------------------------------------------------
set {
	reference rhf
	basis 6-31G*
}

set_num_threads( 1 )
memory 2 gb

molecule MOL {
0 1

H	 0.930363	 -0.729716	 -1.449755
O	 0.569474	 0.031589	 -1.883376
C	 0.272150	 1.004181	 -0.924404
C	 -0.793441	 0.596080	 0.058728
H	 -0.054940	 1.879956	 -1.473250
H	 1.168682	 1.296240	 -0.378549
C	 -1.530462	 -0.493172	 -0.025500
H	 -0.937594	 1.277826	 0.882697
H	 -1.092586	 -1.461565	 -0.186463
H	 -2.602122	 -0.450675	 0.050101

	symmetry c1
}
set optking {
	frozen_dihedral = ("
		5 3 2 1,
		5 3 4 7
	")
}

ee = energy('scf')
oeprop('DIPOLE', 'QUADRUPOLE', 'MULLIKEN_CHARGES')
f=open( 'psi4out.xyz', 'w' )
f.write( "10  " )
f.write( str(ee) + "\n" )
f.write( MOL.save_string_xyz() )
f.close()
--------------------------------------------------------------------------

    Molecular point group: c1

    Geometry (in Angstrom), charge = 0, multiplicity = 1:

       Center              X                  Y                   Z               Mass
    ------------   -----------------  -----------------  -----------------  -----------------
           H          1.242565197072    -0.998773117359    -0.702126299101     1.007825032070
           O          0.881676197072    -0.237468117359    -1.135747299101    15.994914619560
           C          0.584352197072     0.735123882641    -0.176775299101    12.000000000000
           C         -0.481238802928     0.327022882641     0.806356700899    12.000000000000
           H          0.257262197072     1.610898882641    -0.725621299101     1.007825032070
           H          1.480884197072     1.027182882641     0.369079700899     1.007825032070
           C         -1.218259802928    -0.762229117359     0.722128700899    12.000000000000
           H         -0.625391802928     1.008768882641     1.630325700899     1.007825032070
           H         -0.780383802928    -1.730622117359     0.561165700899     1.007825032070
           H         -2.289919802928    -0.719732117359     0.797729700899     1.007825032070

  Charge       = 0
  Multiplicity = 1
  Basis Set: 6-31G*
  Basis Set:

    Orbital Energies (a.u.)
    -----------------------

    Doubly Occupied:

       1A    -20.558805     2A    -11.279578     3A    -11.233013
       4A    -11.220454     5A     -1.367649     6A     -1.058866
       7A     -0.928869     8A     -0.769044     9A     -0.688564
      10A     -0.652083    11A     -0.612850    12A     -0.569682
      13A     -0.564992    14A     -0.495213    15A     -0.451296
      16A     -0.316573

  @DF-RHF Final Energy:  -191.85779132346974

   => Energetics <=

    Nuclear Repulsion Energy =            119.2620035184333176
    One-Electron Energy =                -496.7045450102311861
    Two-Electron Energy =                 185.5847501683277869
    DFT Exchange-Correlation Energy =       0.0000000000000000
    Empirical Dispersion Energy =           0.0000000000000000
    PCM Polarization Energy =               0.0000000000000000
    EFP Energy =                            0.0000000000000000
    Total Energy =                       -191.8577913234701100

  Mulliken Charges: (a.u.)
   Center  Symbol    Alpha    Beta     Spin     Total
       1     H     0.28022  0.28022  0.00000  0.43956
       2     O     4.36532  4.36532  0.00000 -0.73065
       3     C     2.99743  2.99743  0.00000  0.00514
       4     C     3.09709  3.09709  0.00000 -0.19417
       5     H     0.40376  0.40376  0.00000  0.19249
       6     H     0.43083  0.43083  0.00000  0.13835
       7     C     3.19526  3.19526  0.00000 -0.39053
       8     H     0.40819  0.40819  0.00000  0.18362
       9     H     0.41609  0.41609  0.00000  0.16781
      10     H     0.40581  0.40581  0.00000  0.18838

   Total alpha = 16.00000, Total beta = 16.00000, Total charge =  0.00000
