                              Psi4 1.0.54 Driver

  ==> Input File <==

--------------------------------------------------------------------------
set {
	reference rhf
	basis cc-pvtz
}

set_num_threads( 4 )
memory 2 gb

molecule MOL {
0 1

O	 -0.511576	 -4.605147	 -1.614658
C	 0.001946	 -3.792893	 -2.313207
C	 0.173084	 -2.359501	 -1.850445
C	 0.526578	 -4.145860	 -3.684682
C	 1.437343	 -2.204080	 -0.995848
H	 -0.697482	 -2.099027	 -1.261905
H	 0.220420	 -1.691623	 -2.704004
C	 1.630207	 -0.772146	 -0.501001
H	 1.368228	 -2.888373	 -0.159670
H	 2.309069	 -2.502195	 -1.573361
C	 2.907848	 -0.545876	 0.309149
H	 0.769973	 -0.482806	 0.097547
H	 1.642133	 -0.105125	 -1.358640
C	 3.373802	 0.906639	 0.372125
H	 3.699140	 -1.146831	 -0.127906
H	 2.764321	 -0.923458	 1.318191
H	 3.519798	 1.311927	 -0.623875
H	 4.316899	 0.983758	 0.900700
H	 2.661122	 1.540651	 0.885346
H	 -0.077715	 -3.648519	 -4.436665
H	 0.483291	 -5.213452	 -3.836147
H	 1.544565	 -3.793472	 -3.807630

	symmetry c1
}
set optking {
	frozen_dihedral = ("
		12 8 11 15
	")
}

ee,wfn = optimize('scf', return_wfn=True)
oeprop( wfn, 'DIPOLE', 'QUADRUPOLE', 'MULLIKEN_CHARGES')
f=open( 'psi4out.xyz', 'w' )
f.write( "22  " )
f.write( str(ee) + "\n" )
f.write( MOL.save_string_xyz() )
f.close()
--------------------------------------------------------------------------

    Molecular point group: c1
  Charge       = 0
  Multiplicity = 1
  Basis Set: CC-PVTZ
  Basis Set:
  @DF-RHF Final Energy:  -348.22325965941531
    Total Energy =                       -348.2232596594154188
    Molecular point group: c1
  Basis Set: CC-PVTZ
  Basis Set:
  Basis Set: CC-PVTZ
  Basis Set:
  @DF-RHF Final Energy:  -348.22390759781638
    Total Energy =                       -348.2239075978163783
  Basis Set: CC-PVTZ
  Basis Set:
  Basis Set: CC-PVTZ
  Basis Set:
  @DF-RHF Final Energy:  -348.22379904003276
    Total Energy =                       -348.2237990400325884
  Basis Set: CC-PVTZ
  Basis Set:
  Basis Set: CC-PVTZ
  Basis Set:
  @DF-RHF Final Energy:  -348.22390328612460
    Total Energy =                       -348.2239032861247097
  Basis Set: CC-PVTZ
  Basis Set:
  Basis Set: CC-PVTZ
  Basis Set:
  @DF-RHF Final Energy:  -348.22394940397163
    Total Energy =                       -348.2239494039720284
  Basis Set: CC-PVTZ
  Basis Set:
  Basis Set: CC-PVTZ
  Basis Set:
  @DF-RHF Final Energy:  -348.22395454575076
    Total Energy =                       -348.2239545457506438
  Basis Set: CC-PVTZ
  Basis Set:
  Basis Set: CC-PVTZ
  Basis Set:
  @DF-RHF Final Energy:  -348.22395698904785
    Total Energy =                       -348.2239569890476787
  Basis Set: CC-PVTZ
  Basis Set:
  Charge       = 0
  Multiplicity = 1
  Basis Set: CC-PVTZ
  Basis Set:

    Orbital Energies (a.u.)
    -----------------------

    Doubly Occupied:

       1A    -20.536711     2A    -11.319247     3A    -11.228425
       4A    -11.227532     5A    -11.226854     6A    -11.220504
       7A    -11.218690     8A    -11.211343     9A     -1.396827
      10A     -1.097511    11A     -1.046941    12A     -1.001613
      13A     -0.940328    14A     -0.846373    15A     -0.799640
      16A     -0.733803    17A     -0.666780    18A     -0.649754
      19A     -0.632753    20A     -0.610770    21A     -0.593265
      22A     -0.587167    23A     -0.563019    24A     -0.551926
      25A     -0.533279    26A     -0.516039    27A     -0.498683
      28A     -0.487963    29A     -0.475503    30A     -0.469076
      31A     -0.462112    32A     -0.398347

  @DF-RHF Final Energy:  -348.22395713872083

   => Energetics <=

    Nuclear Repulsion Energy =            369.3359435046799035
    One-Electron Energy =               -1203.6222443136380207
    Two-Electron Energy =                 486.0623436702369418
    DFT Exchange-Correlation Energy =       0.0000000000000000
    Empirical Dispersion Energy =           0.0000000000000000
    PCM Polarization Energy =               0.0000000000000000
    EFP Energy =                            0.0000000000000000
    Total Energy =                       -348.2239571387211754
    Molecular point group: c1
  Basis Set: CC-PVTZ
  Basis Set:

  -Total Gradient:
     Atom            X                  Y                   Z
    ------   -----------------  -----------------  -----------------
       1        0.000015625510    -0.000017175452     0.000008952662
       2       -0.000009246642     0.000001694816    -0.000012096398
       3        0.000026870841     0.000020149887     0.000012572624
       4       -0.000017524160    -0.000007148443     0.000000932777
       5       -0.000009806799    -0.000014544093     0.000006953532
       6       -0.000014018849     0.000004516933     0.000003896256
       7        0.000003808451     0.000007080928     0.000008360163
       8        0.000014232751     0.003313699934    -0.000932712259
       9       -0.000006665766    -0.000004761628    -0.000003053428
      10       -0.000002607557    -0.000000087737    -0.000019742870
      11        0.000923109314     0.002575563945    -0.002113317647
      12       -0.000129423913    -0.003206765150     0.001100598348
      13        0.000001035796     0.000017786359     0.000000689773
      14       -0.000008188691    -0.000016108494    -0.000006121596
      15       -0.000785074512    -0.002688284131     0.001933960259
      16       -0.000009361632     0.000000272565     0.000015499698
      17       -0.000003521263     0.000010365690    -0.000008737058
      18        0.000000831421    -0.000002986235    -0.000012831221
      19       -0.000000572612     0.000008363365     0.000013745244
      20        0.000002696775     0.000005058421    -0.000004611589
      21        0.000003879863    -0.000008840343    -0.000003454622
      22        0.000003921671     0.000002148860     0.000010517350

  **** Optimization is complete! (in 8 steps) ****
    Final optimized geometry and variables:
    Molecular point group: c1

    Geometry (in Angstrom), charge = 0, multiplicity = 1:

    O           -1.568186883738    -2.507676654845    -0.259180613518
    C           -1.146265617905    -1.667513835022    -0.985377522474
    C           -1.043470768847    -0.223856685903    -0.534914345319
    C           -0.675936795631    -1.992762872234    -2.383167139457
    C            0.263873464022     0.024582082425     0.227128005928
    H           -1.886851193405    -0.022061527419     0.112956137282
    H           -1.102603315879     0.441537084807    -1.389931549014
    C            0.402343565122     1.468370662656     0.705002978864
    H            0.302448065534    -0.648118616533     1.077271704516
    H            1.111124155035    -0.225589654128    -0.405848653971
    C            1.665385637646     1.699812926701     1.535680740351
    H           -0.469525270719     1.710464695037     1.306374575669
    H            0.394787749206     2.134706674873    -0.153314363821
    C            2.033313215013     3.170998174942     1.684999887012
    H            2.493722507494     1.146656299155     1.101892285645
    H            1.518004365513     1.265823607085     2.520817498310
    H            2.247535537368     3.620774982556     0.721295891222
    H            2.909287098619     3.295420927440     2.310900932252
    H            1.221968137252     3.732118745500     2.136978004465
    H           -1.355854407319    -1.544615950574    -3.100727196788
    H           -0.653040703391    -3.061854848046    -2.528383562204
    H            0.306035147517    -1.571149140720    -2.565896032735

  Mulliken Charges: (a.u.)
   Center  Symbol    Alpha    Beta     Spin     Total
       1     O     4.17794  4.17794  0.00000 -0.35588
       2     C     2.85832  2.85832  0.00000  0.28335
       3     C     3.09857  3.09857  0.00000 -0.19715
       4     C     3.15522  3.15522  0.00000 -0.31044
       5     C     3.10107  3.10107  0.00000 -0.20214
       6     H     0.43895  0.43895  0.00000  0.12211
       7     H     0.44923  0.44923  0.00000  0.10154
       8     C     3.08817  3.08817  0.00000 -0.17634
       9     H     0.44073  0.44073  0.00000  0.11854
      10     H     0.45232  0.45232  0.00000  0.09537
      11     C     3.08536  3.08536  0.00000 -0.17072
      12     H     0.45126  0.45126  0.00000  0.09747
      13     H     0.45475  0.45475  0.00000  0.09050
      14     C     3.14928  3.14928  0.00000 -0.29857
      15     H     0.45483  0.45483  0.00000  0.09033
      16     H     0.45148  0.45148  0.00000  0.09705
      17     H     0.45552  0.45552  0.00000  0.08897
      18     H     0.44762  0.44762  0.00000  0.10476
      19     H     0.45411  0.45411  0.00000  0.09178
      20     H     0.44834  0.44834  0.00000  0.10332
      21     H     0.43603  0.43603  0.00000  0.12794
      22     H     0.45089  0.45089  0.00000  0.09821

   Total alpha = 32.00000, Total beta = 32.00000, Total charge = -0.00000

*** Psi4 exiting successfully. Buy a developer a beer!
