  ==> Input File <==

--------------------------------------------------------------------------
set {
	reference rhf
	basis cc-pvtz
}

set_num_threads( 4 )
memory 2 gb

molecule MOL {
0 1

H	 -3.162190	 0.493205	 -0.000107
C	 -2.363908	 -0.234727	 0.000005
O	 -1.158738	 0.454634	 -0.000087
H	 -2.464314	 -0.863616	 -0.882153
H	 -2.464327	 -0.863359	 0.882345
C	 -0.247989	 0.023960	 0.961876
C	 1.017321	 0.851255	 0.857156
H	 -0.019807	 -1.031906	 0.814504
H	 -0.680740	 0.123626	 1.957585
C	 2.068765	 0.439410	 1.881459
H	 1.414147	 0.749945	 -0.146932
H	 0.758470	 1.896272	 0.987114
H	 2.360377	 -0.597750	 1.753594
H	 2.960979	 1.045653	 1.784277
H	 1.700434	 0.556518	 2.895208

	symmetry c1
}
set optking {
	frozen_dihedral = ("
		6 3 2 4
	")
}

ee = optimize('scf')
oeprop('DIPOLE', 'QUADRUPOLE', 'MULLIKEN_CHARGES')
f=open( 'psi4out.xyz', 'w' )
f.write( "15  " )
f.write( str(ee) + "\n" )
f.write( MOL.save_string_xyz() )
f.close()
--------------------------------------------------------------------------

    Molecular point group: c1
  Charge       = 0
  Multiplicity = 1
  Basis Set: CC-PVTZ
  Basis Set:
  @DF-RHF Final Energy:  -232.22452228162288
    Total Energy =                       -232.2245222816225123
    Molecular point group: c1
  Basis Set: CC-PVTZ
  Basis Set:
  Basis Set: CC-PVTZ
  Basis Set:
  @DF-RHF Final Energy:  -232.22478515781418
    Total Energy =                       -232.2247851578138125
  Basis Set: CC-PVTZ
  Basis Set:
  Basis Set: CC-PVTZ
  Basis Set:
  @DF-RHF Final Energy:  -232.22484559267204
    Total Energy =                       -232.2248455926722954
  Basis Set: CC-PVTZ
  Basis Set:
  Charge       = 0
  Multiplicity = 1
  Basis Set: CC-PVTZ
  Basis Set:

    Orbital Energies (a.u.)
    -----------------------

    Doubly Occupied:

       1A    -20.544169     2A    -11.264863     3A    -11.261273
       4A    -11.212242     5A    -11.210466     6A     -1.377102
       7A     -1.058038     8A     -0.956145     9A     -0.877355
      10A     -0.809183    11A     -0.673262    12A     -0.653926
      13A     -0.631803    14A     -0.608183    15A     -0.563781
      16A     -0.545276    17A     -0.502942    18A     -0.489750
      19A     -0.479164    20A     -0.462050    21A     -0.411179

  @DF-RHF Final Energy:  -232.22484606258203

   => Energetics <=

    Nuclear Repulsion Energy =            189.6760516955532410
    One-Electron Energy =                -690.6174903920809811
    Two-Electron Energy =                 268.7165926339457656
    DFT Exchange-Correlation Energy =       0.0000000000000000
    Empirical Dispersion Energy =           0.0000000000000000
    PCM Polarization Energy =               0.0000000000000000
    EFP Energy =                            0.0000000000000000
    Total Energy =                       -232.2248460625819462
    Molecular point group: c1
  Basis Set: CC-PVTZ
  Basis Set:

  -Total Gradient:
     Atom            X                  Y                   Z
    ------   -----------------  -----------------  -----------------
       1       -0.000006339415    -0.000004172015     0.000001174917
       2        0.000644086874    -0.001097548417     0.001314602095
       3        0.000382003818    -0.000904370904    -0.001391192051
       4       -0.000641787730     0.001183853430    -0.000758316751
       5       -0.000003464863    -0.000008651333     0.000002966602
       6       -0.000401300843     0.000816275759     0.000786821032
       7       -0.000010974294    -0.000013082763     0.000021758380
       8       -0.000007649317     0.000008670230     0.000013166581
       9       -0.000008421315     0.000009585752    -0.000032106347
      10        0.000046397755     0.000022231985     0.000015213270
      11       -0.000017660380    -0.000006691041     0.000011145431
      12        0.000004818207    -0.000004386856    -0.000000856340
      13       -0.000003592867     0.000005306790    -0.000001553338
      14        0.000020952518    -0.000005328068     0.000018652193
      15        0.000002931853    -0.000001692550    -0.000001475675

  **** Optimization is complete! (in 4 steps) ****
    Final optimized geometry and variables:
    Molecular point group: c1

    Geometry (in Angstrom), charge = 0, multiplicity = 1:

    H           -3.016828716845     0.204108744077    -0.759876109512
    C           -2.212172615037    -0.521184884752    -0.746119771951
    O           -0.991602606394     0.151582849514    -0.723440250834
    H           -2.291714056255    -1.131479610463    -1.639970470888
    H           -2.343273917534    -1.157849970122     0.122713447468
    C           -0.073459157607    -0.276743391143     0.234288267642
    C            1.186947726675     0.556421107312     0.118296348033
    H            0.162007474496    -1.331017034627     0.089073154133
    H           -0.498227023079    -0.174994792733     1.232446487788
    C            2.246199862966     0.155215614345     1.139076118439
    H            1.578895911540     0.452235475603    -0.887451275428
    H            0.923181531603     1.600777874417     0.244155679193
    H            2.542588999286    -0.881079472953     1.014861396930
    H            3.134881704472     0.765539454931     1.034286871705
    H            1.882666799259     0.275488262266     2.154254073859

  Mulliken Charges: (a.u.)
   Center  Symbol    Alpha    Beta     Spin     Total
       1     H     0.45549  0.45549  0.00000  0.08902
       2     C     3.02928  3.02928  0.00000 -0.05856
       3     O     4.17632  4.17632  0.00000 -0.35263
       4     H     0.46046  0.46046  0.00000  0.07908
       5     H     0.47317  0.47317  0.00000  0.05367
       6     C     2.95540  2.95540  0.00000  0.08920
       7     C     3.08206  3.08206  0.00000 -0.16411
       8     H     0.47607  0.47607  0.00000  0.04786
       9     H     0.47545  0.47545  0.00000  0.04909
      10     C     3.15591  3.15591  0.00000 -0.31181
      11     H     0.45112  0.45112  0.00000  0.09775
      12     H     0.45124  0.45124  0.00000  0.09752
      13     H     0.45585  0.45585  0.00000  0.08830
      14     H     0.44629  0.44629  0.00000  0.10742
      15     H     0.45590  0.45590  0.00000  0.08819

   Total alpha = 21.00000, Total beta = 21.00000, Total charge = -0.00000
