  ==> Input File <==

--------------------------------------------------------------------------
set {
	reference rhf
	basis 6-31G*
}

set_num_threads( 4 )
memory 2 gb

molecule MOL {
0 1

H	 0.933974	 1.449722	 1.596762
C	 1.123751	 0.813967	 0.722975
C	 0.065331	 0.871482	 -0.349150
O	 2.107886	 0.150352	 0.669946
C	 -1.339775	 0.583656	 0.198860
H	 0.335280	 0.174248	 -1.133947
H	 0.087514	 1.875654	 -0.770229
C	 -1.808407	 -0.848507	 -0.061364
H	 -2.036183	 1.280685	 -0.256307
H	 -1.360094	 0.788874	 1.267089
H	 -1.828843	 -1.063152	 -1.125336
H	 -2.808409	 -1.004529	 0.329750
H	 -1.153967	 -1.577789	 0.406873

	symmetry c1
}
set optking {
	frozen_dihedral = ("
		6 3 5 9
	")
}

ee = optimize('scf')
oeprop('DIPOLE', 'QUADRUPOLE', 'MULLIKEN_CHARGES')
f=open( 'psi4out.xyz', 'w' )
f.write( "13  " )
f.write( str(ee) + "\n" )
f.write( MOL.save_string_xyz() )
f.close()
--------------------------------------------------------------------------

    Molecular point group: c1
  Charge       = 0
  Multiplicity = 1
  Basis Set: 6-31G*
  Basis Set:
  @DF-RHF Final Energy:  -230.98133841887596
    Total Energy =                       -230.9813384188759358
    Molecular point group: c1
  Basis Set: 6-31G*
  Basis Set:
  Basis Set: 6-31G*
  Basis Set:
  @DF-RHF Final Energy:  -230.98163796533939
    Total Energy =                       -230.9816379653395302
  Basis Set: 6-31G*
  Basis Set:
  Basis Set: 6-31G*
  Basis Set:
  @DF-RHF Final Energy:  -230.97872019589727
    Total Energy =                       -230.9787201958971821
  Basis Set: 6-31G*
  Basis Set:
  Basis Set: 6-31G*
  Basis Set:
  @DF-RHF Final Energy:  -230.98172213982679
    Total Energy =                       -230.9817221398267577
  Basis Set: 6-31G*
  Basis Set:
  @DF-RHF Final Energy:  -230.98175652360604
    Total Energy =                       -230.9817565236061228
  Basis Set: 6-31G*
  Basis Set:
  @DF-RHF Final Energy:  -230.98176055661344
    Total Energy =                       -230.9817605566133238
  Basis Set: 6-31G*
  Basis Set:
  Basis Set: 6-31G*
  Basis Set:
  @DF-RHF Final Energy:  -230.98176490857227
    Total Energy =                       -230.9817649085723019
  Basis Set: 6-31G*
  Basis Set:
  Basis Set: 6-31G*
  Basis Set:
  @DF-RHF Final Energy:  -230.98176691246678
    Total Energy =                       -230.9817669124666963
  Basis Set: 6-31G*
  Basis Set:
  Charge       = 0
  Multiplicity = 1
  Basis Set: 6-31G*
  Basis Set:

    Orbital Energies (a.u.)
    -----------------------

    Doubly Occupied:

       1A    -20.563376     2A    -11.327097     3A    -11.238931
       4A    -11.235610     5A    -11.221202     6A     -1.403349
       7A     -1.084721     8A     -0.974102     9A     -0.842751
      10A     -0.793240    11A     -0.668526    12A     -0.647168
      13A     -0.626912    14A     -0.586687    15A     -0.560093
      16A     -0.537376    17A     -0.499953    18A     -0.497289
      19A     -0.480431    20A     -0.410675

  @DF-RHF Final Energy:  -230.98176761398972

   => Energetics <=

    Nuclear Repulsion Energy =            172.5919531138950163
    One-Electron Energy =                -654.7484651766721981
    Two-Electron Energy =                 251.1747444487874077
    DFT Exchange-Correlation Energy =       0.0000000000000000
    Empirical Dispersion Energy =           0.0000000000000000
    PCM Polarization Energy =               0.0000000000000000
    EFP Energy =                            0.0000000000000000
    Total Energy =                       -230.9817676139898026
    Molecular point group: c1
  Basis Set: 6-31G*
  Basis Set:

  -Total Gradient:
     Atom            X                  Y                   Z
    ------   -----------------  -----------------  -----------------
       1        0.000000407940     0.000002520280     0.000001375608
       2        0.000022035620     0.000003901926     0.000020751019
       3       -0.001835051949     0.003549772621    -0.002619513617
       4        0.000005745281     0.000002798868    -0.000008739407
       5       -0.000332404783    -0.003650963797    -0.002901049472
       6        0.001543528057    -0.002380860014     0.002669552121
       7       -0.000026189605    -0.000018369059    -0.000041469674
       8        0.000029949307     0.000006808332    -0.000012429835
       9        0.000588137793     0.002513924884     0.002874448671
      10        0.000005406285    -0.000026350930     0.000016286131
      11       -0.000007961777    -0.000001186709     0.000000638459
      12        0.000006085692     0.000003345443     0.000007759259
      13        0.000000312134    -0.000005341846    -0.000007609264

  **** Optimization is complete! (in 9 steps) ****
    Final optimized geometry and variables:
    Molecular point group: c1

    Geometry (in Angstrom), charge = 0, multiplicity = 1:

    H            0.923792096604     1.142930556337     1.361462355011
    C            1.086018270174     0.501631613619     0.486509628681
    C            0.044589598804     0.623271881992    -0.599505831220
    O            2.025413973771    -0.224495315296     0.444354450915
    C           -1.372171669101     0.322094803040    -0.064543734878
    H            0.329526671358    -0.068870482288    -1.382945026911
    H            0.096284212003     1.636173779945    -0.991179193604
    C           -1.797846817259    -1.127995643557    -0.284671403157
    H           -2.086367466233     1.004582133534    -0.512880707753
    H           -1.407380970585     0.544788483255     1.000813483356
    H           -1.848319904151    -1.362718675624    -1.343297635994
    H           -2.775869456188    -1.316185296997     0.146095837651
    H           -1.093541916368    -1.816106896032     0.173174540004

  Mulliken Charges: (a.u.)
   Center  Symbol    Alpha    Beta     Spin     Total
       1     H     0.43183  0.43183  0.00000  0.13634
       2     C     2.83389  2.83389  0.00000  0.33222
       3     C     3.20886  3.20886  0.00000 -0.41773
       4     O     4.23597  4.23597  0.00000 -0.47194
       5     C     3.16771  3.16771  0.00000 -0.33542
       6     H     0.39807  0.39807  0.00000  0.20386
       7     H     0.40630  0.40630  0.00000  0.18740
       8     C     3.24023  3.24023  0.00000 -0.48046
       9     H     0.41220  0.41220  0.00000  0.17561
      10     H     0.41787  0.41787  0.00000  0.16427
      11     H     0.41706  0.41706  0.00000  0.16588
      12     H     0.41611  0.41611  0.00000  0.16778
      13     H     0.41391  0.41391  0.00000  0.17218

   Total alpha = 20.00000, Total beta = 20.00000, Total charge = -0.00000
