                              Psi4 1.0.54 Driver

  ==> Input File <==

--------------------------------------------------------------------------
set {
	reference rhf
	basis cc-pvtz
}

set_num_threads( 4 )
memory 2 gb

molecule MOL {
0 1

H	 -0.087738	 3.648097	 -1.953275
O	 -0.562633	 2.852071	 -2.107278
C	 -0.350886	 1.951114	 -1.056763
C	 1.037690	 1.345927	 -1.115048
H	 -0.502141	 2.422029	 -0.090590
H	 -1.088964	 1.168482	 -1.158794
O	 1.172093	 0.457955	 -0.054438
H	 1.790034	 2.133895	 -1.051942
H	 1.174074	 0.840253	 -2.068603
C	 2.395478	 -0.199028	 -0.000366
H	 2.505946	 -0.901710	 -0.823354
H	 3.174616	 0.545641	 -0.071768
H	 2.513730	 -0.742241	 0.934223

	symmetry c1
}
set optking {
	frozen_dihedral = ("
		4 7 10 13
	")
}

ee,wfn = optimize('scf', return_wfn=True)
oeprop( wfn, 'DIPOLE', 'QUADRUPOLE', 'MULLIKEN_CHARGES')
f=open( 'psi4out.xyz', 'w' )
f.write( "13  " )
f.write( str(ee) + "\n" )
f.write( MOL.save_string_xyz() )
f.close()
--------------------------------------------------------------------------

    Molecular point group: c1
  Charge       = 0
  Multiplicity = 1
  Basis Set: CC-PVTZ
  Basis Set:
  @DF-RHF Final Energy:  -268.06109636905182
    Total Energy =                       -268.0610963690516542
    Molecular point group: c1
  Basis Set: CC-PVTZ
  Basis Set:
  Basis Set: CC-PVTZ
  Basis Set:
  @DF-RHF Final Energy:  -268.06186105320762
    Total Energy =                       -268.0618610532076218
  Basis Set: CC-PVTZ
  Basis Set:
  Basis Set: CC-PVTZ
  Basis Set:
  @DF-RHF Final Energy:  -268.06207565221303
    Total Energy =                       -268.0620756522130250
  Basis Set: CC-PVTZ
  Basis Set:
  Charge       = 0
  Multiplicity = 1
  Basis Set: CC-PVTZ
  Basis Set:

    Orbital Energies (a.u.)
    -----------------------

    Doubly Occupied:

       1A    -20.555857     2A    -20.552867     3A    -11.269334
       4A    -11.267782     5A    -11.267477     6A     -1.391881
       7A     -1.369254     8A     -1.019748     9A     -0.914027
      10A     -0.842888    11A     -0.711942    12A     -0.676584
      13A     -0.663073    14A     -0.639059    15A     -0.598447
      16A     -0.570067    17A     -0.547978    18A     -0.490679
      19A     -0.483929    20A     -0.441710    21A     -0.424515

  @DF-RHF Final Energy:  -268.06207639881325

   => Energetics <=

    Nuclear Repulsion Energy =            190.4977492382678577
    One-Electron Energy =                -743.7214535915502438
    Two-Electron Energy =                 285.1616279544692247
    DFT Exchange-Correlation Energy =       0.0000000000000000
    Empirical Dispersion Energy =           0.0000000000000000
    PCM Polarization Energy =               0.0000000000000000
    EFP Energy =                            0.0000000000000000
    Total Energy =                       -268.0620763988131898
    Molecular point group: c1
  Basis Set: CC-PVTZ
  Basis Set:

  -Total Gradient:
     Atom            X                  Y                   Z
    ------   -----------------  -----------------  -----------------
       1        0.000005490131     0.000009277579    -0.000002011692
       2        0.000087214241    -0.000063883500     0.000058470583
       3       -0.000068221239    -0.000064864801     0.000079070893
       4        0.000528040000     0.000816594133     0.000501893510
       5       -0.000013563540     0.000025697760    -0.000000757795
       6       -0.000008415840    -0.000007163150     0.000005497930
       7       -0.000475024237    -0.000866388515    -0.000727924457
       8        0.000010797343    -0.000017643368     0.000029359272
       9        0.000005415957    -0.000012291572    -0.000004155150
      10       -0.000559075941    -0.000959058418    -0.000477293893
      11       -0.000022714357     0.000003504854    -0.000010745613
      12       -0.000025770092     0.000020890014    -0.000004441278
      13        0.000535827573     0.001115328985     0.000553037688

  **** Optimization is complete! (in 4 steps) ****
    Final optimized geometry and variables:
    Molecular point group: c1

    Geometry (in Angstrom), charge = 0, multiplicity = 1:

    H           -0.797262797666     2.341665560333    -1.096667496413
    O           -1.281519986110     1.550139563545    -1.244694177016
    C           -1.082801309353     0.656093745478    -0.185843503977
    C            0.298877568406     0.034745128148    -0.235802414518
    H           -1.230312636577     1.137329470704     0.775851977208
    H           -1.829841284483    -0.118671238033    -0.282499300436
    O            0.422118012992    -0.840487375845     0.836646904500
    H            1.060306730786     0.814163365229    -0.180589015386
    H            0.429996705483    -0.483401551750    -1.183593782830
    C            1.634260330540    -1.517983265204     0.897419423575
    H            1.721559499526    -2.250371167615     0.098769141400
    H            2.475448817690    -0.831747241888     0.828766988442
    H            1.684625835488    -2.022995830496     1.851014198237

  Mulliken Charges: (a.u.)
   Center  Symbol    Alpha    Beta     Spin     Total
       1     H     0.39405  0.39405  0.00000  0.21190
       2     O     4.20214  4.20214  0.00000 -0.40428
       3     C     2.97350  2.97350  0.00000  0.05301
       4     C     2.96509  2.96509  0.00000  0.06982
       5     H     0.46699  0.46699  0.00000  0.06601
       6     H     0.45259  0.45259  0.00000  0.09482
       7     O     4.17569  4.17569  0.00000 -0.35138
       8     H     0.48124  0.48124  0.00000  0.03752
       9     H     0.47036  0.47036  0.00000  0.05928
      10     C     3.03134  3.03134  0.00000 -0.06267
      11     H     0.46751  0.46751  0.00000  0.06498
      12     H     0.47296  0.47296  0.00000  0.05407
      13     H     0.44653  0.44653  0.00000  0.10694

   Total alpha = 21.00000, Total beta = 21.00000, Total charge =  0.00000

*** Psi4 exiting successfully. Buy a developer a beer!
