  ==> Input File <==

--------------------------------------------------------------------------
set {
	reference rhf
	basis 6-31G*
}

set_num_threads( 4 )
memory 2 gb

molecule MOL {
0 1

O	 -1.487788	 1.240889	 -0.102860
C	 -1.083277	 0.139568	 0.115197
C	 0.323299	 -0.082943	 0.642902
C	 -1.933017	 -1.084621	 -0.143902
C	 1.355627	 -0.005344	 -0.493127
H	 0.396251	 -1.044647	 1.143147
H	 0.528637	 0.693580	 1.371677
C	 2.596545	 -0.849700	 -0.209520
H	 0.901177	 -0.333809	 -1.425253
H	 1.638273	 1.032807	 -0.632743
H	 3.311650	 -0.773601	 -1.022247
H	 2.340721	 -1.898531	 -0.089801
H	 3.091581	 -0.522808	 0.699946
H	 -1.393885	 -1.806447	 -0.750509
H	 -2.850323	 -0.799888	 -0.640100
H	 -2.169004	 -1.571158	 0.798858

	symmetry c1
}
set optking {
	frozen_dihedral = ("
		9 5 3 2
	")
}

ee = optimize('scf')
oeprop('DIPOLE', 'QUADRUPOLE', 'MULLIKEN_CHARGES')
f=open( 'psi4out.xyz', 'w' )
f.write( "16  " )
f.write( str(ee) + "\n" )
f.write( MOL.save_string_xyz() )
f.close()
--------------------------------------------------------------------------

    Molecular point group: c1
  Charge       = 0
  Multiplicity = 1
  Basis Set: 6-31G*
  Basis Set:
  @DF-RHF Final Energy:  -270.02741466585150
    Total Energy =                       -270.0274146658515519
    Molecular point group: c1
  Basis Set: 6-31G*
  Basis Set:
  Basis Set: 6-31G*
  Basis Set:
  @DF-RHF Final Energy:  -270.02760768595692
    Total Energy =                       -270.0276076859565819
  Basis Set: 6-31G*
  Basis Set:
  Basis Set: 6-31G*
  Basis Set:
  @DF-RHF Final Energy:  -270.02774604848412
    Total Energy =                       -270.0277460484841185
  Basis Set: 6-31G*
  Basis Set:
  Basis Set: 6-31G*
  Basis Set:
  @DF-RHF Final Energy:  -270.02782698643318
    Total Energy =                       -270.0278269864333538
  Basis Set: 6-31G*
  Basis Set:
  Basis Set: 6-31G*
  Basis Set:
  @DF-RHF Final Energy:  -270.02785066188142
    Total Energy =                       -270.0278506618814163
  Basis Set: 6-31G*
  Basis Set:
  Basis Set: 6-31G*
  Basis Set:
  @DF-RHF Final Energy:  -270.02786149402186
    Total Energy =                       -270.0278614940219768
  Basis Set: 6-31G*
  Basis Set:
  Basis Set: 6-31G*
  Basis Set:
  @DF-RHF Final Energy:  -270.02786447566291
    Total Energy =                       -270.0278644756627386
  Basis Set: 6-31G*
  Basis Set:
  Charge       = 0
  Multiplicity = 1
  Basis Set: 6-31G*
  Basis Set:

    Orbital Energies (a.u.)
    -----------------------

    Doubly Occupied:

       1A    -20.547721     2A    -11.324737     3A    -11.234952
       4A    -11.230088     5A    -11.228494     6A    -11.221399
       7A     -1.393212     8A     -1.082992     9A     -1.012660
      10A     -0.950641    11A     -0.831503    12A     -0.735739
      13A     -0.655532    14A     -0.651084    15A     -0.612704
      16A     -0.603573    17A     -0.580403    18A     -0.560497
      19A     -0.534796    20A     -0.520451    21A     -0.505029
      22A     -0.482677    23A     -0.472598    24A     -0.397829

  @DF-RHF Final Energy:  -270.02786494877148

   => Energetics <=

    Nuclear Repulsion Energy =            237.2305380666780650
    One-Electron Energy =                -835.7741881934878165
    Two-Electron Energy =                 328.5157851780382430
    DFT Exchange-Correlation Energy =       0.0000000000000000
    Empirical Dispersion Energy =           0.0000000000000000
    PCM Polarization Energy =               0.0000000000000000
    EFP Energy =                            0.0000000000000000
    Total Energy =                       -270.0278649487715370
    Molecular point group: c1
  Basis Set: 6-31G*
  Basis Set:

  -Total Gradient:
     Atom            X                  Y                   Z
    ------   -----------------  -----------------  -----------------
       1        0.000009914317    -0.000031441378     0.000013099802
       2       -0.000359822670    -0.002928248064    -0.000269553588
       3        0.000214323083     0.004991376884     0.000102674474
       4       -0.000018762356    -0.000020375137     0.000043849332
       5        0.001263177697    -0.005886137781     0.001129150933
       6       -0.000029476674     0.000002893498    -0.000010637509
       7       -0.000009816130     0.000002165361     0.000013651671
       8        0.000028613526     0.000014674934     0.000006089987
       9       -0.001110559370     0.003867993492    -0.001008314498
      10        0.000018264955    -0.000021852634     0.000012564306
      11        0.000005308634    -0.000002014196    -0.000005870309
      12       -0.000016568823     0.000013812461    -0.000001265360
      13        0.000003147528    -0.000002008660    -0.000000172762
      14       -0.000000771167    -0.000002350753    -0.000008732896
      15        0.000000724803     0.000006257965    -0.000003677014
      16        0.000002302655    -0.000004745993    -0.000012856571

  **** Optimization is complete! (in 8 steps) ****
    Final optimized geometry and variables:
    Molecular point group: c1

    Geometry (in Angstrom), charge = 0, multiplicity = 1:

    O           -1.516761811727     1.369200316135     0.088583799451
    C           -1.048992021663     0.275498381183     0.182910713228
    C            0.371340091618     0.060357550082     0.670217823437
    C           -1.841461939736    -0.958857132302    -0.191954246942
    C            1.370931529690     0.047934723286    -0.506705154734
    H            0.425006825499    -0.886355928471     1.202128156731
    H            0.621291601695     0.850871420323     1.366846202460
    C            2.637010766242    -0.749958096271    -0.207319607776
    H            0.890712173545    -0.327497569672    -1.407073614820
    H            1.632589955615     1.075621604763    -0.738349137251
    H            3.337620368338    -0.693522750145    -1.034093508510
    H            2.409433242807    -1.797708955665    -0.034005473965
    H            3.137253681993    -0.368939666098     0.678178741130
    H           -1.256635509025    -1.632320117096    -0.810428826583
    H           -2.745165975785    -0.672138792209    -0.711511157808
    H           -2.107220735233    -1.501371262408     0.711700962982

  Mulliken Charges: (a.u.)
   Center  Symbol    Alpha    Beta     Spin     Total
       1     O     4.26066  4.26066  0.00000 -0.52131
       2     C     2.73949  2.73949  0.00000  0.52102
       3     C     3.20033  3.20033  0.00000 -0.40066
       4     C     3.28959  3.28959  0.00000 -0.57917
       5     C     3.16140  3.16140  0.00000 -0.32281
       6     H     0.41676  0.41676  0.00000  0.16648
       7     H     0.39922  0.39922  0.00000  0.20157
       8     C     3.24032  3.24032  0.00000 -0.48063
       9     H     0.41739  0.41739  0.00000  0.16523
      10     H     0.40770  0.40770  0.00000  0.18460
      11     H     0.41547  0.41547  0.00000  0.16907
      12     H     0.42070  0.42070  0.00000  0.15860
      13     H     0.41774  0.41774  0.00000  0.16452
      14     H     0.41052  0.41052  0.00000  0.17896
      15     H     0.39677  0.39677  0.00000  0.20646
      16     H     0.40595  0.40595  0.00000  0.18809

   Total alpha = 24.00000, Total beta = 24.00000, Total charge =  0.00000
