  ==> Input File <==

--------------------------------------------------------------------------
set {
	reference rhf
	basis 6-31G*
}

set_num_threads( 1 )
memory 2 gb

molecule MOL {
0 1

O	 -0.682937	 1.318834	 -0.186099
C	 -0.860635	 0.152188	 -0.042321
C	 -2.173363	 -0.477127	 0.338347
O	 0.083258	 -0.765189	 -0.202595
H	 -2.477673	 -1.180929	 -0.427595
H	 -2.923125	 0.290956	 0.455536
H	 -2.058825	 -1.029004	 1.264191
C	 0.570743	 -1.445490	 0.951678
C	 -0.320075	 -2.615666	 1.325545
H	 0.658723	 -0.743271	 1.766716
H	 1.557327	 -1.784330	 0.670007
H	 0.116372	 -3.157843	 2.158785
H	 -1.303741	 -2.272835	 1.620905
H	 -0.422047	 -3.299646	 0.489968

	symmetry c1
}
set optking {
	frozen_dihedral = ("
		10 8 4 2
	")
}

ee = energy('scf')
oeprop('DIPOLE', 'QUADRUPOLE', 'MULLIKEN_CHARGES')
f=open( 'psi4out.xyz', 'w' )
f.write( "14  " )
f.write( str(ee) + "\n" )
f.write( MOL.save_string_xyz() )
f.close()
--------------------------------------------------------------------------

    Molecular point group: c1

    Geometry (in Angstrom), charge = 0, multiplicity = 1:

       Center              X                  Y                   Z               Mass
    ------------   -----------------  -----------------  -----------------  -----------------
           O         -0.116247488437     1.966830284747    -0.557729430472    15.994914619560
           C         -0.293945488437     0.800184284747    -0.413951430472    12.000000000000
           C         -1.606673488437     0.170869284747    -0.033283430472    12.000000000000
           O          0.649947511563    -0.117192715253    -0.574225430472    15.994914619560
           H         -1.910983488437    -0.532932715253    -0.799225430472     1.007825032070
           H         -2.356435488437     0.938952284747     0.083905569528     1.007825032070
           H         -1.492135488437    -0.381007715253     0.892560569528     1.007825032070
           C          1.137432511563    -0.797493715253     0.580047569528    12.000000000000
           C          0.246614511563    -1.967669715253     0.953914569528    12.000000000000
           H          1.225412511563    -0.095274715253     1.395085569528     1.007825032070
           H          2.124016511563    -1.136333715253     0.298376569528     1.007825032070
           H          0.683061511563    -2.509846715253     1.787154569528     1.007825032070
           H         -0.737051488437    -1.624838715253     1.249274569528     1.007825032070
           H          0.144642511563    -2.651649715253     0.118337569528     1.007825032070

  Charge       = 0
  Multiplicity = 1
  Basis Set: 6-31G*
  Basis Set:

    Orbital Energies (a.u.)
    -----------------------

    Doubly Occupied:

       1A    -20.587310     2A    -20.553315     3A    -11.376503
       4A    -11.303589     5A    -11.232329     6A    -11.232184
       7A     -1.462400     8A     -1.368150     9A     -1.052808
      10A     -1.020766    11A     -0.890841    12A     -0.776166
      13A     -0.703347    14A     -0.691648    15A     -0.667066
      16A     -0.610509    17A     -0.601662    18A     -0.587754
      19A     -0.573238    20A     -0.546927    21A     -0.501464
      22A     -0.485155    23A     -0.455200    24A     -0.438465

  @DF-RHF Final Energy:  -305.83716291213329

   => Energetics <=

    Nuclear Repulsion Energy =            251.2156867116047749
    One-Electron Energy =                -914.6681484603773242
    Two-Electron Energy =                 357.6152988366397381
    DFT Exchange-Correlation Energy =       0.0000000000000000
    Empirical Dispersion Energy =           0.0000000000000000
    PCM Polarization Energy =               0.0000000000000000
    EFP Energy =                            0.0000000000000000
    Total Energy =                       -305.8371629121327828

  Mulliken Charges: (a.u.)
   Center  Symbol    Alpha    Beta     Spin     Total
       1     O     4.25546  4.25546  0.00000 -0.51092
       2     C     2.62541  2.62541  0.00000  0.74918
       3     C     3.29361  3.29361  0.00000 -0.58721
       4     O     4.30803  4.30803  0.00000 -0.61605
       5     H     0.39864  0.39864  0.00000  0.20272
       6     H     0.39656  0.39656  0.00000  0.20688
       7     H     0.41078  0.41078  0.00000  0.17845
       8     C     3.01139  3.01139  0.00000 -0.02277
       9     C     3.25184  3.25184  0.00000 -0.50368
      10     H     0.41182  0.41182  0.00000  0.17637
      11     H     0.39882  0.39882  0.00000  0.20235
      12     H     0.41413  0.41413  0.00000  0.17174
      13     H     0.41649  0.41649  0.00000  0.16703
      14     H     0.40704  0.40704  0.00000  0.18592

   Total alpha = 24.00000, Total beta = 24.00000, Total charge =  0.00000
