  ==> Input File <==

--------------------------------------------------------------------------
set {
	reference rhf
	basis 6-31G*
}

set_num_threads( 4 )
memory 2 gb

molecule MOL {
0 1

O	 1.821245	 1.341205	 -0.214570
C	 1.631557	 0.245308	 -0.634269
C	 0.309946	 -0.483430	 -0.621979
O	 2.583982	 -0.495851	 -1.186271
C	 -0.823008	 0.326187	 0.001381
H	 0.080281	 -0.756611	 -1.648303
H	 0.461000	 -1.420846	 -0.093630
C	 -2.149452	 -0.435131	 -0.000098
H	 -0.933600	 1.261149	 -0.538808
H	 -0.553073	 0.595290	 1.017761
C	 -3.368779	 0.488503	 -0.000883
H	 -2.193746	 -1.087250	 -0.871175
H	 -2.195311	 -1.087803	 0.870418
C	 -4.693822	 -0.272754	 -0.001129
H	 -3.325798	 1.139422	 -0.871284
H	 -3.326423	 1.139959	 0.869145
H	 -4.781274	 -0.907928	 -0.878124
H	 -5.538651	 0.408946	 -0.001420
H	 -4.781694	 -0.907783	 0.875984
C	 3.878243	 0.073393	 -1.262462
H	 3.861512	 0.977571	 -1.853824
H	 4.500608	 -0.670740	 -1.734482
H	 4.251656	 0.302031	 -0.274639

	symmetry c1
}
set optking {
	frozen_dihedral = ("
		9 5 8 12
	")
}

ee = optimize('scf')
oeprop('DIPOLE', 'QUADRUPOLE', 'MULLIKEN_CHARGES')
f=open( 'psi4out.xyz', 'w' )
f.write( "23  " )
f.write( str(ee) + "\n" )
f.write( MOL.save_string_xyz() )
f.close()
--------------------------------------------------------------------------

    Molecular point group: c1
  Charge       = 0
  Multiplicity = 1
  Basis Set: 6-31G*
  Basis Set:
  @DF-RHF Final Energy:  -422.97402360153654
    Total Energy =                       -422.9740236015361461
    Molecular point group: c1
  Basis Set: 6-31G*
  Basis Set:
  Basis Set: 6-31G*
  Basis Set:
  @DF-RHF Final Energy:  -422.97424767673846
    Total Energy =                       -422.9742476767385142
  Basis Set: 6-31G*
  Basis Set:
  Basis Set: 6-31G*
  Basis Set:
  @DF-RHF Final Energy:  -422.97408527596735
    Total Energy =                       -422.9740852759672407
  Basis Set: 6-31G*
  Basis Set:
  Basis Set: 6-31G*
  Basis Set:
  @DF-RHF Final Energy:  -422.97431610348173
    Total Energy =                       -422.9743161034817831
  Basis Set: 6-31G*
  Basis Set:
  Basis Set: 6-31G*
  Basis Set:
  @DF-RHF Final Energy:  -422.97432028369485
    Total Energy =                       -422.9743202836943965
  Basis Set: 6-31G*
  Basis Set:
  Charge       = 0
  Multiplicity = 1
  Basis Set: 6-31G*
  Basis Set:

    Orbital Energies (a.u.)
    -----------------------

    Doubly Occupied:

       1A    -20.603697     2A    -20.545535     3A    -11.372315
       4A    -11.280894     5A    -11.235971     6A    -11.218950
       7A    -11.217703     8A    -11.216911     9A    -11.209722
      10A     -1.469394    11A     -1.362852    12A     -1.092419
      13A     -1.043870    14A     -0.986846    15A     -0.932067
      16A     -0.844159    17A     -0.795711    18A     -0.767558
      19A     -0.697976    20A     -0.683200    21A     -0.671902
      22A     -0.647257    23A     -0.611095    24A     -0.599363
      25A     -0.573085    26A     -0.559146    27A     -0.555798
      28A     -0.525111    29A     -0.521452    30A     -0.506627
      31A     -0.485322    32A     -0.470545    33A     -0.464093
      34A     -0.460929    35A     -0.454741    36A     -0.435538

  @DF-RHF Final Energy:  -422.97432164973588

   => Energetics <=

    Nuclear Repulsion Energy =            452.0611318867590853
    One-Electron Energy =               -1471.8313979431075040
    Two-Electron Energy =                 596.7959444066128754
    DFT Exchange-Correlation Energy =       0.0000000000000000
    Empirical Dispersion Energy =           0.0000000000000000
    PCM Polarization Energy =               0.0000000000000000
    EFP Energy =                            0.0000000000000000
    Total Energy =                       -422.9743216497355434
    Molecular point group: c1
  Basis Set: 6-31G*
  Basis Set:

  -Total Gradient:
     Atom            X                  Y                   Z
    ------   -----------------  -----------------  -----------------
       1        0.000006511932     0.000002263248    -0.000008344632
       2       -0.000004387976    -0.000006111519     0.000005072376
       3        0.000009635308    -0.000010152461    -0.000007929454
       4        0.000017356057     0.000006093238     0.000000928787
       5        0.001670520575    -0.002979139926    -0.003696805490
       6       -0.000000285073     0.000011734565     0.000000413320
       7       -0.000009288224     0.000001390202    -0.000005104474
       8       -0.002363132064     0.004075436399    -0.001745528155
       9       -0.001016494407     0.001817090522     0.003393776939
      10        0.000007633170    -0.000005886390    -0.000013175324
      11       -0.000016275819     0.000008211100    -0.000012847747
      12        0.001710801246    -0.002922927910     0.002077427915
      13       -0.000006295535     0.000012743524     0.000006908121
      14       -0.000006343082     0.000000721363    -0.000008025130
      15        0.000000531516    -0.000003134636     0.000010801404
      16        0.000003736302    -0.000006643159     0.000006835260
      17       -0.000001861678    -0.000003332714     0.000001099802
      18       -0.000009747754    -0.000003249787    -0.000001989439
      19        0.000004474243     0.000007534055    -0.000001528952
      20        0.000000215991    -0.000003687681    -0.000002272915
      21        0.000000045883     0.000000168798     0.000000180384
      22        0.000001805844     0.000000687613     0.000000018076
      23        0.000000843543     0.000000191556     0.000000089327

  **** Optimization is complete! (in 6 steps) ****
    Final optimized geometry and variables:
    Molecular point group: c1

    Geometry (in Angstrom), charge = 0, multiplicity = 1:

    O            1.877758315458     1.243606345444     0.247425240999
    C            1.690105884858     0.155890312075    -0.193817616834
    C            0.361467348639    -0.559068667415    -0.232931604707
    O            2.652063743745    -0.588698929335    -0.724227925597
    C           -0.782872071854     0.253297621581     0.361916863818
    H            0.162352933629    -0.818633017969    -1.268916587501
    H            0.484747939232    -1.503907386359     0.289858916987
    C           -2.111740613033    -0.514328761930     0.376322004558
    H           -0.894388978279     1.191427571293    -0.172983365262
    H           -0.523165651902     0.541013295405     1.375835933025
    C           -3.337962893107     0.395489226913     0.442746803398
    H           -2.177296390894    -1.168460284017    -0.491906286209
    H           -2.120207130135    -1.185786054302     1.233702291395
    C           -4.652530494635    -0.378191318416     0.531606738153
    H           -3.354513932059     1.038406713377    -0.434366539141
    H           -3.247475785195     1.055849625180     1.302593960151
    H           -4.783771806112    -1.028271595866    -0.328970964699
    H           -5.503115957444     0.295203456681     0.569775354813
    H           -4.682632107907    -0.999796383704     1.421999688925
    C            3.954043069335    -0.032671675477    -0.751379784978
    H            3.965979805141     0.878847060294    -1.331468732953
    H            4.583549151854    -0.777667602737    -1.212535242139
    H            4.297623372459     0.179600139376     0.250822002275

  Mulliken Charges: (a.u.)
   Center  Symbol    Alpha    Beta     Spin     Total
       1     O     4.28596  4.28596  0.00000 -0.57191
       2     C     2.60505  2.60505  0.00000  0.78990
       3     C     3.20882  3.20882  0.00000 -0.41763
       4     O     4.30742  4.30742  0.00000 -0.61484
       5     C     3.15413  3.15413  0.00000 -0.30826
       6     H     0.40034  0.40034  0.00000  0.19933
       7     H     0.40037  0.40037  0.00000  0.19925
       8     C     3.15438  3.15438  0.00000 -0.30876
       9     H     0.41156  0.41156  0.00000  0.17688
      10     H     0.41033  0.41033  0.00000  0.17934
      11     C     3.15229  3.15229  0.00000 -0.30457
      12     H     0.42418  0.42418  0.00000  0.15164
      13     H     0.42225  0.42225  0.00000  0.15550
      14     C     3.23996  3.23996  0.00000 -0.47992
      15     H     0.42161  0.42161  0.00000  0.15678
      16     H     0.42059  0.42059  0.00000  0.15882
      17     H     0.42183  0.42183  0.00000  0.15634
      18     H     0.41847  0.41847  0.00000  0.16306
      19     H     0.42147  0.42147  0.00000  0.15706
      20     C     3.09246  3.09246  0.00000 -0.18491
      21     H     0.40905  0.40905  0.00000  0.18190
      22     H     0.40842  0.40842  0.00000  0.18315
      23     H     0.40907  0.40907  0.00000  0.18187

   Total alpha = 36.00000, Total beta = 36.00000, Total charge =  0.00000
