  ==> Input File <==

--------------------------------------------------------------------------
set {
	reference rhf
	basis 6-31G*
}

set_num_threads( 4 )
memory 2 gb

molecule MOL {
0 1

H	 -1.056866	 -0.498549	 0.504731
C	 -0.790252	 0.431209	 0.000000
N	 0.538815	 0.649616	 0.000000
O	 -1.616061	 1.146781	 -0.484981
C	 1.521968	 -0.411503	 0.000000
H	 0.852804	 1.592852	 0.000000
H	 2.150599	 -0.357004	 -0.881901
H	 0.999455	 -1.354525	 0.000000
H	 2.150599	 -0.357004	 0.881901

	symmetry c1
}
set optking {
	frozen_dihedral = ("
		1 2 3 6
	")
}

ee = optimize('scf')
oeprop('DIPOLE', 'QUADRUPOLE', 'MULLIKEN_CHARGES')
f=open( 'psi4out.xyz', 'w' )
f.write( "9  " )
f.write( str(ee) + "\n" )
f.write( MOL.save_string_xyz() )
f.close()
--------------------------------------------------------------------------

    Molecular point group: c1
  Charge       = 0
  Multiplicity = 1
  Basis Set: 6-31G*
  Basis Set:
  @DF-RHF Final Energy:  -207.94969094045891
    Total Energy =                       -207.9496909404588223
    Molecular point group: c1
  Basis Set: 6-31G*
  Basis Set:
  Basis Set: 6-31G*
  Basis Set:
  @DF-RHF Final Energy:  -207.95055038625844
    Total Energy =                       -207.9505503862584703
  Basis Set: 6-31G*
  Basis Set:
  Basis Set: 6-31G*
  Basis Set:
  @DF-RHF Final Energy:  -207.95233720199008
    Total Energy =                       -207.9523372019901331
  Basis Set: 6-31G*
  Basis Set:
  Basis Set: 6-31G*
  Basis Set:
  @DF-RHF Final Energy:  -207.95436744198784
    Total Energy =                       -207.9543674419879267
  Basis Set: 6-31G*
  Basis Set:
  @DF-RHF Final Energy:  -207.95518835111238
    Total Energy =                       -207.9551883511123833
  @DF-RHF Final Energy:  -207.95533908376385
    Total Energy =                       -207.9553390837638460
  @DF-RHF Final Energy:  -207.95540559029433
    Total Energy =                       -207.9554055902943333
  @DF-RHF Final Energy:  -207.95553993269590
    Total Energy =                       -207.9555399326958707
  @DF-RHF Final Energy:  -207.95557887572880
    Total Energy =                       -207.9555788757288042
  @DF-RHF Final Energy:  -207.95560723709707
    Total Energy =                       -207.9556072370971549
  Basis Set: 6-31G*
  Basis Set:
  @DF-RHF Final Energy:  -207.95564887944025
    Total Energy =                       -207.9556488794402753
  Basis Set: 6-31G*
  Basis Set:
  Basis Set: 6-31G*
  Basis Set:
  @DF-RHF Final Energy:  -207.95565509420152
    Total Energy =                       -207.9556550942015178
  Basis Set: 6-31G*
  Basis Set:
  Basis Set: 6-31G*
  Basis Set:
  @DF-RHF Final Energy:  -207.95565518720571
    Total Energy =                       -207.9556551872056502
  Basis Set: 6-31G*
  Basis Set:
  Charge       = 0
  Multiplicity = 1
  Basis Set: 6-31G*
  Basis Set:

    Orbital Energies (a.u.)
    -----------------------

    Doubly Occupied:

       1A    -20.533505     2A    -15.587810     3A    -11.347169
       4A    -11.273810     5A     -1.395486     6A     -1.239364
       7A     -0.961469     8A     -0.843361     9A     -0.691775
      10A     -0.677242    11A     -0.635263    12A     -0.590216
      13A     -0.569054    14A     -0.543183    15A     -0.429627
      16A     -0.394578

  @DF-RHF Final Energy:  -207.95565538407334

   => Energetics <=

    Nuclear Repulsion Energy =            120.3566349909352340
    One-Electron Energy =                -521.1987529951527449
    Two-Electron Energy =                 192.8864626201441865
    DFT Exchange-Correlation Energy =       0.0000000000000000
    Empirical Dispersion Energy =           0.0000000000000000
    PCM Polarization Energy =               0.0000000000000000
    EFP Energy =                            0.0000000000000000
    Total Energy =                       -207.9556553840733386
    Molecular point group: c1
  Basis Set: 6-31G*
  Basis Set:

  -Total Gradient:
     Atom            X                  Y                   Z
    ------   -----------------  -----------------  -----------------
       1        0.001533766363     0.002984034134     0.007301360390
       2       -0.001441035495    -0.004256847936    -0.007453705556
       3       -0.002308407213     0.002597142250    -0.007492921590
       4        0.000008845092    -0.000045754272    -0.000020563380
       5        0.000006009022    -0.000127577033    -0.000302418834
       6        0.002202991182    -0.001174846582     0.007984772648
       7        0.000004807319    -0.000010931293    -0.000004336810
       8       -0.000015527192     0.000045235439    -0.000004174455
       9        0.000008550924    -0.000010454709    -0.000008012413

  **** Optimization is complete! (in 14 steps) ****
    Final optimized geometry and variables:
    Molecular point group: c1

    Geometry (in Angstrom), charge = 0, multiplicity = 1:

    H           -0.927201273544    -1.008524528902     0.554110945580
    C           -0.705916855837    -0.036363684551     0.109058785557
    N            0.602042862342     0.118581781057    -0.230681751883
    O           -1.539931917964     0.807759176111    -0.002427592880
    C            1.590661800212    -0.890200492478     0.091786151393
    H            0.918425989331     1.063901005370    -0.181271207824
    H            2.427782015329    -0.803689878550    -0.588322021499
    H            1.159085699075    -1.873490658361    -0.042788535077
    H            1.962243721589    -0.813096121941     1.110545284403

  Mulliken Charges: (a.u.)
   Center  Symbol    Alpha    Beta     Spin     Total
       1     H     0.43005  0.43005  0.00000  0.13989
       2     C     2.74548  2.74548  0.00000  0.50903
       3     N     3.86251  3.86251  0.00000 -0.72502
       4     O     4.27556  4.27556  0.00000 -0.55113
       5     C     3.15065  3.15065  0.00000 -0.30129
       6     H     0.30721  0.30721  0.00000  0.38559
       7     H     0.40467  0.40467  0.00000  0.19066
       8     H     0.40811  0.40811  0.00000  0.18378
       9     H     0.41576  0.41576  0.00000  0.16847

   Total alpha = 16.00000, Total beta = 16.00000, Total charge = -0.00000
