  ==> Input File <==

--------------------------------------------------------------------------
set {
	reference rhf
	basis 6-31G*
}

set_num_threads( 1 )
memory 2 gb

molecule MOL {
0 1

H	 0.457789	 -4.162029	 -3.589958
O	 1.397813	 -4.086826	 -3.665930
C	 1.770537	 -2.733252	 -3.611449
C	 1.647008	 -2.131437	 -2.215997
H	 2.803207	 -2.699137	 -3.934099
H	 1.189797	 -2.149104	 -4.324395
C	 0.213278	 -2.087639	 -1.681799
H	 2.272269	 -2.704851	 -1.536577
H	 2.053108	 -1.121682	 -2.245080
C	 0.115918	 -1.429151	 -0.302766
H	 -0.179285	 -3.099324	 -1.629316
H	 -0.418033	 -1.542170	 -2.383405
C	 -1.309753	 -1.282496	 0.241564
H	 0.715789	 -1.995357	 0.407455
H	 0.566378	 -0.440392	 -0.358817
C	 -2.037799	 -0.007733	 -0.193645
H	 -1.890610	 -2.142323	 -0.085726
H	 -1.285946	 -1.330893	 1.329189
C	 -3.489788	 0.042957	 0.286558
H	 -2.017067	 0.064384	 -1.280144
H	 -1.513726	 0.868678	 0.179924
C	 -4.216917	 1.317354	 -0.141063
H	 -4.025645	 -0.823308	 -0.095450
H	 -3.513059	 -0.038752	 1.371301
H	 -4.239342	 1.411634	 -1.223113
H	 -5.243387	 1.322503	 0.212445
H	 -3.726170	 2.201406	 0.256408

	symmetry c1
}
set optking {
	frozen_dihedral = ("
		14 10 7 4,
		10 7 4 8,
		8 4 3 2,
		10 13 16 20,
		20 16 19 22,
		4 3 2 1
	")
}

ee = energy('scf')
oeprop('DIPOLE', 'QUADRUPOLE', 'MULLIKEN_CHARGES')
f=open( 'psi4out.xyz', 'w' )
f.write( "27  " )
f.write( str(ee) + "\n" )
f.write( MOL.save_string_xyz() )
f.close()
--------------------------------------------------------------------------

    Molecular point group: c1

    Geometry (in Angstrom), charge = 0, multiplicity = 1:

       Center              X                  Y                   Z               Mass
    ------------   -----------------  -----------------  -----------------  -----------------
           H          1.099173237357    -2.750966150696    -2.290262394193     1.007825032070
           O          2.039197237357    -2.675763150696    -2.366234394193    15.994914619560
           C          2.411921237357    -1.322189150696    -2.311753394193    12.000000000000
           C          2.288392237357    -0.720374150696    -0.916301394193    12.000000000000
           H          3.444591237357    -1.288074150696    -2.634403394193     1.007825032070
           H          1.831181237357    -0.738041150696    -3.024699394193     1.007825032070
           C          0.854662237357    -0.676576150696    -0.382103394193    12.000000000000
           H          2.913653237357    -1.293788150696    -0.236881394193     1.007825032070
           H          2.694492237357     0.289380849304    -0.945384394193     1.007825032070
           C          0.757302237357    -0.018088150696     0.996929605807    12.000000000000
           H          0.462099237357    -1.688261150696    -0.329620394193     1.007825032070
           H          0.223351237357    -0.131107150696    -1.083709394193     1.007825032070
           C         -0.668368762643     0.128566849304     1.541259605807    12.000000000000
           H          1.357173237357    -0.584294150696     1.707150605807     1.007825032070
           H          1.207762237357     0.970670849304     0.940878605807     1.007825032070
           C         -1.396414762643     1.403329849304     1.106050605807    12.000000000000
           H         -1.249225762643    -0.731260150696     1.213969605807     1.007825032070
           H         -0.644561762643     0.080169849304     2.628884605807     1.007825032070
           C         -2.848403762643     1.454019849304     1.586253605807    12.000000000000
           H         -1.375682762643     1.475446849304     0.019551605807     1.007825032070
           H         -0.872341762643     2.279740849304     1.479619605807     1.007825032070
           C         -3.575532762643     2.728416849304     1.158632605807    12.000000000000
           H         -3.384260762643     0.587754849304     1.204245605807     1.007825032070
           H         -2.871674762643     1.372310849304     2.670996605807     1.007825032070
           H         -3.597957762643     2.822696849304     0.076582605807     1.007825032070
           H         -4.602002762643     2.733565849304     1.512140605807     1.007825032070
           H         -3.084785762643     3.612468849304     1.556103605807     1.007825032070

  Charge       = 0
  Multiplicity = 1
  Basis Set: 6-31G*
  Basis Set:

    Orbital Energies (a.u.)
    -----------------------

    Doubly Occupied:

       1A    -20.552378     2A    -11.267200     3A    -11.220595
       4A    -11.216673     5A    -11.216371     6A    -11.215359
       7A    -11.215322     8A    -11.214784     9A    -11.209822
      10A     -1.359147    11A     -1.095058    12A     -1.062258
      13A     -1.011707    14A     -0.949468    15A     -0.886478
      16A     -0.820082    17A     -0.797983    18A     -0.784114
      19A     -0.694321    20A     -0.648370    21A     -0.640208
      22A     -0.614988    23A     -0.603223    24A     -0.582438
      25A     -0.579352    26A     -0.554572    27A     -0.542315
      28A     -0.520889    29A     -0.506971    30A     -0.502996
      31A     -0.480682    32A     -0.475024    33A     -0.469385
      34A     -0.461824    35A     -0.452261    36A     -0.441703
      37A     -0.422931

  @DF-RHF Final Energy:  -388.28017955939106

   => Energetics <=

    Nuclear Repulsion Energy =            456.7634335135013544
    One-Electron Energy =               -1431.5088086369742086
    Two-Electron Energy =                 586.4651955640822507
    DFT Exchange-Correlation Energy =       0.0000000000000000
    Empirical Dispersion Energy =           0.0000000000000000
    PCM Polarization Energy =               0.0000000000000000
    EFP Energy =                            0.0000000000000000
    Total Energy =                       -388.2801795593906036

  Mulliken Charges: (a.u.)
   Center  Symbol    Alpha    Beta     Spin     Total
       1     H     0.27995  0.27995  0.00000  0.44010
       2     O     4.37093  4.37093  0.00000 -0.74186
       3     C     2.99738  2.99738  0.00000  0.00524
       4     C     3.16142  3.16142  0.00000 -0.32285
       5     H     0.41440  0.41440  0.00000  0.17121
       6     H     0.43206  0.43206  0.00000  0.13587
       7     C     3.16288  3.16288  0.00000 -0.32575
       8     H     0.41488  0.41488  0.00000  0.17023
       9     H     0.42397  0.42397  0.00000  0.15207
      10     C     3.15317  3.15317  0.00000 -0.30633
      11     H     0.42439  0.42439  0.00000  0.15122
      12     H     0.42445  0.42445  0.00000  0.15110
      13     C     3.15458  3.15458  0.00000 -0.30916
      14     H     0.41901  0.41901  0.00000  0.16198
      15     H     0.42270  0.42270  0.00000  0.15459
      16     C     3.15202  3.15202  0.00000 -0.30404
      17     H     0.42412  0.42412  0.00000  0.15177
      18     H     0.42029  0.42029  0.00000  0.15941
      19     C     3.15166  3.15166  0.00000 -0.30333
      20     H     0.42464  0.42464  0.00000  0.15072
      21     H     0.42302  0.42302  0.00000  0.15397
      22     C     3.23924  3.23924  0.00000 -0.47849
      23     H     0.42320  0.42320  0.00000  0.15360
      24     H     0.42265  0.42265  0.00000  0.15470
      25     H     0.42213  0.42213  0.00000  0.15574
      26     H     0.41913  0.41913  0.00000  0.16174
      27     H     0.42173  0.42173  0.00000  0.15654

   Total alpha = 37.00000, Total beta = 37.00000, Total charge =  0.00000
