  ==> Input File <==

--------------------------------------------------------------------------
set {
	reference rhf
	basis 6-31G*
}

set_num_threads( 4 )
memory 2 gb

molecule MOL {
0 1

O	 -0.174557	 0.462173	 -0.943240
C	 0.486307	 0.169203	 0.000779
C	 1.608116	 -0.841643	 0.000302
O	 0.318989	 0.702220	 1.203071
C	 2.990107	 -0.200498	 -0.000684
H	 1.468623	 -1.481519	 -0.865924
H	 1.469683	 -1.481289	 0.866878
H	 3.129736	 0.423364	 -0.875135
H	 3.757882	 -0.966877	 -0.001197
H	 3.130964	 0.423383	 0.873533
C	 -0.709431	 1.675357	 1.353923
C	 -0.700519	 2.124663	 2.799729
H	 -1.656926	 1.232461	 1.078819
H	 -0.518318	 2.497985	 0.678387
H	 -0.887940	 1.288454	 3.463646
H	 -1.472820	 2.870055	 2.959704
H	 0.256851	 2.560984	 3.061115

	symmetry c1
}
set optking {
	frozen_dihedral = ("
		4 2 3 6
	")
}

ee = optimize('scf')
oeprop('DIPOLE', 'QUADRUPOLE', 'MULLIKEN_CHARGES')
f=open( 'psi4out.xyz', 'w' )
f.write( "17  " )
f.write( str(ee) + "\n" )
f.write( MOL.save_string_xyz() )
f.close()
--------------------------------------------------------------------------

    Molecular point group: c1
  Charge       = 0
  Multiplicity = 1
  Basis Set: 6-31G*
  Basis Set:
  @DF-RHF Final Energy:  -344.90989765634043
    Total Energy =                       -344.9098976563406040
    Molecular point group: c1
  Basis Set: 6-31G*
  Basis Set:
  Basis Set: 6-31G*
  Basis Set:
  @DF-RHF Final Energy:  -344.91022883055996
    Total Energy =                       -344.9102288305597313
  Basis Set: 6-31G*
  Basis Set:
  Basis Set: 6-31G*
  Basis Set:
  @DF-RHF Final Energy:  -344.90921553687889
    Total Energy =                       -344.9092155368791737
  Basis Set: 6-31G*
  Basis Set:
  Basis Set: 6-31G*
  Basis Set:
  @DF-RHF Final Energy:  -344.91035136890082
    Total Energy =                       -344.9103513689009333
  Basis Set: 6-31G*
  Basis Set:
  Basis Set: 6-31G*
  Basis Set:
  @DF-RHF Final Energy:  -344.91035457392559
    Total Energy =                       -344.9103545739254741
  Basis Set: 6-31G*
  Basis Set:
  Charge       = 0
  Multiplicity = 1
  Basis Set: 6-31G*
  Basis Set:

    Orbital Energies (a.u.)
    -----------------------

    Doubly Occupied:

       1A    -20.601599     2A    -20.542315     3A    -11.370073
       4A    -11.284659     5A    -11.236109     6A    -11.226794
       7A    -11.222454     8A     -1.466928     9A     -1.360449
      10A     -1.072882    11A     -1.031085    12A     -0.907991
      13A     -0.854970    14A     -0.777323    15A     -0.693311
      16A     -0.681315    17A     -0.668568    18A     -0.616420
      19A     -0.598349    20A     -0.573581    21A     -0.553711
      22A     -0.540110    23A     -0.526796    24A     -0.506542
      25A     -0.505320    26A     -0.496831    27A     -0.451291
      28A     -0.431252

  @DF-RHF Final Energy:  -344.91035536939108

   => Energetics <=

    Nuclear Repulsion Energy =            316.6903946531400038
    One-Electron Energy =               -1097.6034441146698555
    Two-Electron Energy =                 436.0026940921384835
    DFT Exchange-Correlation Energy =       0.0000000000000000
    Empirical Dispersion Energy =           0.0000000000000000
    PCM Polarization Energy =               0.0000000000000000
    EFP Energy =                            0.0000000000000000
    Total Energy =                       -344.9103553693914250
    Molecular point group: c1
  Basis Set: 6-31G*
  Basis Set:

  -Total Gradient:
     Atom            X                  Y                   Z
    ------   -----------------  -----------------  -----------------
       1        0.000050226479     0.000013379744     0.000072474553
       2        0.000272975408     0.000292480753    -0.000117762075
       3        0.000220442325     0.000242896983    -0.000333921842
       4       -0.000248978255    -0.000226858745     0.000049548790
       5       -0.000013299880    -0.000013068955     0.000053237081
       6       -0.000265759352    -0.000299826057     0.000239792917
       7        0.000046275034     0.000010143865    -0.000010635815
       8       -0.000033773234    -0.000021823230     0.000000203618
       9       -0.000022016495    -0.000001880500     0.000001387233
      10        0.000019495449     0.000031798647     0.000016278141
      11       -0.000076001741    -0.000104314774     0.000037864723
      12        0.000015634505     0.000044513391     0.000000642548
      13        0.000015066258     0.000018274799     0.000002215067
      14        0.000018085787     0.000010681196    -0.000017910420
      15       -0.000000832906    -0.000003535566    -0.000013501015
      16        0.000002204770     0.000004516241     0.000006319063
      17        0.000000255851     0.000002622207     0.000013767433

  **** Optimization is complete! (in 6 steps) ****
    Final optimized geometry and variables:
    Molecular point group: c1

    Geometry (in Angstrom), charge = 0, multiplicity = 1:

    O           -0.682298156382    -0.124689948658    -1.584742508417
    C           -0.054089442682    -0.445066072114    -0.626952674942
    C            1.060546403469    -1.461987386259    -0.629886024152
    O           -0.239392521430     0.080773654277     0.576249145510
    C            2.433574484084    -0.779041932404    -0.659937352256
    H            0.927022550338    -2.087952956073    -1.502156578959
    H            0.975227362433    -2.078733677080     0.257191860705
    H            2.536892439429    -0.157400538160    -1.542747181501
    H            3.221045953447    -1.523978382000    -0.679963905281
    H            2.578445406808    -0.157627934157     0.216305766934
    C           -1.237087763530     1.088070239984     0.707061939107
    C           -1.249764993845     1.529764155012     2.155199956063
    H           -2.191555903353     0.679163942486     0.405188712845
    H           -1.000736248286     1.906848440733     0.041188701991
    H           -1.482737374155     0.697222485365     2.809275295845
    H           -1.999923204073     2.300468263590     2.299857577477
    H           -0.285116408219     1.931745798936     2.443643299665

  Mulliken Charges: (a.u.)
   Center  Symbol    Alpha    Beta     Spin     Total
       1     O     4.28546  4.28546  0.00000 -0.57091
       2     C     2.61477  2.61477  0.00000  0.77047
       3     C     3.19378  3.19378  0.00000 -0.38756
       4     O     4.30983  4.30983  0.00000 -0.61966
       5     C     3.25126  3.25126  0.00000 -0.50251
       6     H     0.39921  0.39921  0.00000  0.20159
       7     H     0.40416  0.40416  0.00000  0.19168
       8     H     0.40934  0.40934  0.00000  0.18132
       9     H     0.41163  0.41163  0.00000  0.17674
      10     H     0.40923  0.40923  0.00000  0.18154
      11     C     3.00240  3.00240  0.00000 -0.00480
      12     C     3.24854  3.24854  0.00000 -0.49709
      13     H     0.40982  0.40982  0.00000  0.18037
      14     H     0.41034  0.41034  0.00000  0.17933
      15     H     0.41179  0.41179  0.00000  0.17642
      16     H     0.41621  0.41621  0.00000  0.16758
      17     H     0.41225  0.41225  0.00000  0.17549

   Total alpha = 28.00000, Total beta = 28.00000, Total charge =  0.00000
