                              Psi4 1.0.54 Driver

  ==> Input File <==

--------------------------------------------------------------------------
set {
	reference rhf
	basis cc-pvtz
}

set_num_threads( 4 )
memory 2 gb

molecule MOL {
0 1

H	 -0.366580	 2.045936	 -0.305741
C	 0.351829	 1.335402	 0.083179
N	 -0.000018	 0.000080	 -0.334836
H	 1.327156	 1.599860	 -0.305475
H	 0.380566	 1.445403	 1.171445
C	 1.122138	 -0.903692	 -0.255201
C	 -1.149971	 -0.503172	 0.376913
H	 0.842038	 -1.875696	 -0.641004
H	 1.941640	 -0.529499	 -0.855686
H	 1.486561	 -1.038208	 0.767625
H	 -1.991602	 0.163668	 0.238483
H	 -1.427520	 -1.475727	 -0.009388
H	 -0.972597	 -0.604429	 1.451807

	symmetry c1
}
set optking {
	frozen_dihedral = ("
		6 3 2 1
	")
}

ee,wfn = optimize('scf', return_wfn=True)
oeprop( wfn, 'DIPOLE', 'QUADRUPOLE', 'MULLIKEN_CHARGES')
f=open( 'psi4out.xyz', 'w' )
f.write( "13  " )
f.write( str(ee) + "\n" )
f.write( MOL.save_string_xyz() )
f.close()
--------------------------------------------------------------------------

    Molecular point group: c1
  Charge       = 0
  Multiplicity = 1
  Basis Set: CC-PVTZ
  Basis Set:
  @DF-RHF Final Energy:  -173.33288376791000
    Total Energy =                       -173.3328837679098342
    Molecular point group: c1
  Basis Set: CC-PVTZ
  Basis Set:
  Basis Set: CC-PVTZ
  Basis Set:
  @DF-RHF Final Energy:  -173.33307651405508
    Total Energy =                       -173.3330765140551648
  Basis Set: CC-PVTZ
  Basis Set:
  Basis Set: CC-PVTZ
  Basis Set:
  @DF-RHF Final Energy:  -173.33309590639567
    Total Energy =                       -173.3330959063955845
  Basis Set: CC-PVTZ
  Basis Set:
  Charge       = 0
  Multiplicity = 1
  Basis Set: CC-PVTZ
  Basis Set:

    Orbital Energies (a.u.)
    -----------------------

    Doubly Occupied:

       1A    -15.537899     2A    -11.234358     3A    -11.234178
       4A    -11.234062     5A     -1.225874     6A     -0.952949
       7A     -0.952513     8A     -0.806020     9A     -0.642512
      10A     -0.631738    11A     -0.630505    12A     -0.546722
      13A     -0.543099    14A     -0.516110    15A     -0.503133
      16A     -0.502554    17A     -0.346121

  @DF-RHF Final Energy:  -173.33309694847952

   => Energetics <=

    Nuclear Repulsion Energy =            139.3019392060927544
    One-Electron Energy =                -509.1893780208758926
    Two-Electron Energy =                 196.5543418663037869
    DFT Exchange-Correlation Energy =       0.0000000000000000
    Empirical Dispersion Energy =           0.0000000000000000
    PCM Polarization Energy =               0.0000000000000000
    EFP Energy =                            0.0000000000000000
    Total Energy =                       -173.3330969484793513
    Molecular point group: c1
  Basis Set: CC-PVTZ
  Basis Set:

  -Total Gradient:
     Atom            X                  Y                   Z
    ------   -----------------  -----------------  -----------------
       1        0.001795350200     0.000333855621    -0.002756312968
       2       -0.002050517893    -0.000151372516     0.002615367962
       3       -0.000350647756    -0.000641236451     0.002550888133
       4        0.000019073401     0.000005635903    -0.000025302993
       5        0.000001795296    -0.000039837576    -0.000047524345
       6        0.000657272596     0.000469309659    -0.002343393062
       7       -0.000033152073    -0.000024920190     0.000093869452
       8        0.000000793272    -0.000012894830    -0.000001801914
       9       -0.000026890299     0.000020337887     0.000002510144
      10       -0.000031603932     0.000026056255    -0.000033710955
      11        0.000013305217     0.000007111358    -0.000010405736
      12        0.000010035684     0.000006483260    -0.000014738677
      13       -0.000004813713     0.000001471620    -0.000029445040

  **** Optimization is complete! (in 4 steps) ****
    Final optimized geometry and variables:
    Molecular point group: c1

    Geometry (in Angstrom), charge = 0, multiplicity = 1:

    H           -0.463290712328     2.061808308805    -0.298886596203
    C            0.265479167780     1.359864246299     0.088922473819
    N           -0.077962719070     0.015191655362    -0.306675811622
    H            1.222751827355     1.631887689551    -0.337384541443
    H            0.335151334487     1.485228751376     1.172592904276
    C            1.037433493721    -0.895801686872    -0.237733858359
    C           -1.246056563913    -0.475550890321     0.379303466575
    H            0.741084806079    -1.867816388325    -0.611989580199
    H            1.848895327384    -0.534094550099    -0.855844453613
    H            1.420812720712    -1.031537876177     0.778667223906
    H           -2.072749787784     0.209237592317     0.235124310562
    H           -1.536849350898    -1.438285513910    -0.022045996764
    H           -1.089540651978    -0.590716606472     1.456398141249

  Mulliken Charges: (a.u.)
   Center  Symbol    Alpha    Beta     Spin     Total
       1     H     0.45162  0.45162  0.00000  0.09677
       2     C     3.08847  3.08847  0.00000 -0.17694
       3     N     3.59614  3.59614  0.00000 -0.19227
       4     H     0.45478  0.45478  0.00000  0.09044
       5     H     0.47257  0.47257  0.00000  0.05487
       6     C     3.08808  3.08808  0.00000 -0.17616
       7     C     3.08911  3.08911  0.00000 -0.17822
       8     H     0.45305  0.45305  0.00000  0.09390
       9     H     0.45241  0.45241  0.00000  0.09518
      10     H     0.47451  0.47451  0.00000  0.05099
      11     H     0.45296  0.45296  0.00000  0.09408
      12     H     0.45290  0.45290  0.00000  0.09419
      13     H     0.47342  0.47342  0.00000  0.05317

   Total alpha = 17.00000, Total beta = 17.00000, Total charge =  0.00000

*** Psi4 exiting successfully. Buy a developer a beer!
