  ==> Input File <==

--------------------------------------------------------------------------
set {
	reference rhf
	basis 6-31G*
}

set_num_threads( 4 )
memory 2 gb

molecule MOL {
0 1

H	 2.591676	 2.013956	 0.335017
O	 3.341076	 1.666752	 -0.126416
C	 3.569581	 0.339145	 0.272707
C	 2.648527	 -0.662386	 -0.415276
H	 4.598905	 0.126949	 0.013593
H	 3.483007	 0.246244	 1.354675
C	 1.166959	 -0.479736	 -0.076950
H	 2.790407	 -0.579770	 -1.489711
H	 2.963797	 -1.664607	 -0.129750
C	 0.274838	 -1.533157	 -0.739705
H	 0.849428	 0.511840	 -0.387299
H	 1.033777	 -0.527819	 1.003925
C	 -1.209393	 -1.447698	 -0.365407
H	 0.378035	 -1.460711	 -1.820884
H	 0.642590	 -2.519846	 -0.466020
C	 -1.927445	 -0.189206	 -0.860459
H	 -1.715766	 -2.319379	 -0.774768
H	 -1.311968	 -1.519620	 0.716324
C	 -3.426726	 -0.199097	 -0.554691
H	 -1.781673	 -0.092083	 -1.935368
H	 -1.483477	 0.696060	 -0.411574
C	 -4.144748	 1.058891	 -1.042107
H	 -3.881768	 -1.074440	 -1.013165
H	 -3.574459	 -0.305851	 0.517999
H	 -4.043141	 1.176580	 -2.117305
H	 -5.205176	 1.020924	 -0.812574
H	 -3.736944	 1.950114	 -0.573298

	symmetry c1
}
set optking {
	frozen_dihedral = ("
		4 3 2 1
	")
}

ee = optimize('scf')
oeprop('DIPOLE', 'QUADRUPOLE', 'MULLIKEN_CHARGES')
f=open( 'psi4out.xyz', 'w' )
f.write( "27  " )
f.write( str(ee) + "\n" )
f.write( MOL.save_string_xyz() )
f.close()
--------------------------------------------------------------------------

    Molecular point group: c1
  Charge       = 0
  Multiplicity = 1
  Basis Set: 6-31G*
  Basis Set:
  @DF-RHF Final Energy:  -388.28167786214107
    Total Energy =                       -388.2816778621413505
    Molecular point group: c1
  Basis Set: 6-31G*
  Basis Set:
  Basis Set: 6-31G*
  Basis Set:
  @DF-RHF Final Energy:  -388.28167171182082
    Total Energy =                       -388.2816717118211045
  Basis Set: 6-31G*
  Basis Set:
  Basis Set: 6-31G*
  Basis Set:
  @DF-RHF Final Energy:  -388.28168688834540
    Total Energy =                       -388.2816868883459165
  Basis Set: 6-31G*
  Basis Set:
  Basis Set: 6-31G*
  Basis Set:
  @DF-RHF Final Energy:  -388.28168878749347
    Total Energy =                       -388.2816887874944314
  Basis Set: 6-31G*
  Basis Set:
  Charge       = 0
  Multiplicity = 1
  Basis Set: 6-31G*
  Basis Set:

    Orbital Energies (a.u.)
    -----------------------

    Doubly Occupied:

       1A    -20.552505     2A    -11.267275     3A    -11.218255
       4A    -11.216351     5A    -11.215685     6A    -11.215044
       7A    -11.214270     8A    -11.213702     9A    -11.209054
      10A     -1.359071    11A     -1.094435    12A     -1.060911
      13A     -1.011133    14A     -0.947983    15A     -0.887292
      16A     -0.819048    17A     -0.800822    18A     -0.777340
      19A     -0.696047    20A     -0.651003    21A     -0.636819
      22A     -0.615280    23A     -0.597958    24A     -0.582795
      25A     -0.579966    26A     -0.550895    27A     -0.541333
      28A     -0.530979    29A     -0.505368    30A     -0.492189
      31A     -0.484671    32A     -0.473208    33A     -0.468901
      34A     -0.460698    35A     -0.452400    36A     -0.441890
      37A     -0.421809

  @DF-RHF Final Energy:  -388.28168835817564

   => Energetics <=

    Nuclear Repulsion Energy =            459.8105873015546194
    One-Electron Energy =               -1437.6557836850070089
    Two-Electron Energy =                 589.5635080252772013
    DFT Exchange-Correlation Energy =       0.0000000000000000
    Empirical Dispersion Energy =           0.0000000000000000
    PCM Polarization Energy =               0.0000000000000000
    EFP Energy =                            0.0000000000000000
    Total Energy =                       -388.2816883581751881
    Molecular point group: c1
  Basis Set: 6-31G*
  Basis Set:

  -Total Gradient:
     Atom            X                  Y                   Z
    ------   -----------------  -----------------  -----------------
       1        0.000364643745     0.000180929988     0.000474860676
       2       -0.000226019186    -0.000288869932    -0.000642150109
       3       -0.000327897398     0.000129726189     0.000416823803
       4        0.000267637761    -0.000119358980    -0.000240541129
       5        0.000002615759     0.000094524681    -0.000001038339
       6       -0.000007527729     0.000023095652    -0.000003171637
       7       -0.000019277411    -0.000055334970     0.000003061095
       8        0.000021856301     0.000005594170     0.000015022015
       9       -0.000019662046    -0.000019403687    -0.000006686227
      10       -0.000013687124     0.000029051291     0.000014718431
      11       -0.000064024594     0.000012576456    -0.000014784263
      12       -0.000010979113    -0.000003539594    -0.000013886512
      13       -0.000004768327    -0.000016191982     0.000002323299
      14       -0.000007220713    -0.000014732953    -0.000002799918
      15        0.000030507968     0.000030728881     0.000018585189
      16        0.000002607172    -0.000002385880    -0.000018649524
      17        0.000007281620     0.000007605841    -0.000014244201
      18       -0.000014038789    -0.000023293018    -0.000001928684
      19        0.000002269730     0.000014807507     0.000015096221
      20       -0.000016343787    -0.000006597794    -0.000001908695
      21        0.000025350009     0.000015885629    -0.000005226072
      22        0.000001850160     0.000005868602     0.000008798306
      23        0.000006806456     0.000005295009    -0.000004571180
      24       -0.000002046988    -0.000006186330     0.000002538511
      25        0.000001050638    -0.000001427234    -0.000000494111
      26        0.000000758828     0.000000156017     0.000000942864
      27       -0.000001742944     0.000001476436    -0.000000689810

  **** Optimization is complete! (in 5 steps) ****
    Final optimized geometry and variables:
    Molecular point group: c1

    Geometry (in Angstrom), charge = 0, multiplicity = 1:

    H            2.499781716210     2.129117733161     0.742728052338
    O            3.252243091849     1.783132058831     0.285816947733
    C            3.492579792738     0.461480447920     0.699911381325
    C            2.578126110862    -0.550797300362     0.019528371377
    H            4.523384946647     0.252476314361     0.443110830310
    H            3.406894899012     0.379144308178     1.782482897220
    C            1.095593652365    -0.368818273390     0.352622418173
    H            2.722492500188    -0.475807187280    -1.055075456508
    H            2.896992355692    -1.549519731195     0.313613773993
    C            0.205299772582    -1.420726671191    -0.314735331433
    H            0.782120320839     0.623958606704     0.043085942747
    H            0.958541318110    -0.418923096148     1.433069465995
    C           -1.279846178466    -1.336033108557     0.056099365997
    H            0.311022163245    -1.345679655128    -1.395523871168
    H            0.572227899480    -2.408206308650    -0.042634394374
    C           -1.995227252704    -0.074163666697    -0.434138264737
    H           -1.786102457181    -2.205039542798    -0.359079968809
    H           -1.385323438859    -1.413494837126     1.137191605264
    C           -3.494198168064    -0.081112756629    -0.126777034629
    H           -1.850277683635     0.026073309982    -1.508866723603
    H           -1.548362826777     0.808434569785     0.017067397799
    C           -4.209389827402     1.180469803276    -0.609039253426
    H           -3.952074930881    -0.953627323313    -0.587828383700
    H           -3.641153957469    -0.191221972742     0.945701427299
    H           -4.108533667004     1.301637124999    -1.683909486723
    H           -5.269693436182     1.144514507614    -0.378578875668
    H           -3.798723230338     2.068964352999    -0.137554652369

  Mulliken Charges: (a.u.)
   Center  Symbol    Alpha    Beta     Spin     Total
       1     H     0.28003  0.28003  0.00000  0.43995
       2     O     4.37057  4.37057  0.00000 -0.74115
       3     C     2.99895  2.99895  0.00000  0.00209
       4     C     3.15919  3.15919  0.00000 -0.31838
       5     H     0.41470  0.41470  0.00000  0.17060
       6     H     0.43192  0.43192  0.00000  0.13617
       7     C     3.16280  3.16280  0.00000 -0.32560
       8     H     0.41506  0.41506  0.00000  0.16989
       9     H     0.42490  0.42490  0.00000  0.15019
      10     C     3.15211  3.15211  0.00000 -0.30423
      11     H     0.42106  0.42106  0.00000  0.15787
      12     H     0.42650  0.42650  0.00000  0.14700
      13     C     3.15346  3.15346  0.00000 -0.30692
      14     H     0.42170  0.42170  0.00000  0.15659
      15     H     0.42180  0.42180  0.00000  0.15639
      16     C     3.15229  3.15229  0.00000 -0.30458
      17     H     0.42139  0.42139  0.00000  0.15722
      18     H     0.42448  0.42448  0.00000  0.15104
      19     C     3.15121  3.15121  0.00000 -0.30243
      20     H     0.42354  0.42354  0.00000  0.15291
      21     H     0.42380  0.42380  0.00000  0.15241
      22     C     3.23913  3.23913  0.00000 -0.47825
      23     H     0.42290  0.42290  0.00000  0.15420
      24     H     0.42342  0.42342  0.00000  0.15315
      25     H     0.42142  0.42142  0.00000  0.15715
      26     H     0.41931  0.41931  0.00000  0.16138
      27     H     0.42233  0.42233  0.00000  0.15533

   Total alpha = 37.00000, Total beta = 37.00000, Total charge = -0.00000
