                              Psi4 1.0.54 Driver

  ==> Input File <==

--------------------------------------------------------------------------
set {
	reference rhf
	basis cc-pvtz
}

set_num_threads( 4 )
memory 2 gb

molecule MOL {
0 1

H	 -2.816458	 -0.841657	 -0.064679
N	 -1.878861	 -0.711874	 0.250184
C	 -1.341419	 0.551458	 -0.220231
H	 -1.333674	 -1.468530	 -0.105118
C	 -1.850095	 1.693174	 0.629699
H	 -0.252646	 0.584635	 -0.224088
H	 -1.675276	 0.712807	 -1.239327
O	 -1.354393	 1.545049	 1.925865
H	 -1.520385	 2.642260	 0.209342
H	 -2.937633	 1.684505	 0.640394
C	 -1.806854	 2.499103	 2.828241
H	 -1.358790	 2.287465	 3.788362
H	 -1.519868	 3.503106	 2.522770
H	 -2.888912	 2.467309	 2.931693

	symmetry c1
}
set optking {
	frozen_dihedral = ("
		6 3 2 4
	")
}

ee,wfn = optimize('scf', return_wfn=True)
oeprop( wfn, 'DIPOLE', 'QUADRUPOLE', 'MULLIKEN_CHARGES')
f=open( 'psi4out.xyz', 'w' )
f.write( "14  " )
f.write( str(ee) + "\n" )
f.write( MOL.save_string_xyz() )
f.close()
--------------------------------------------------------------------------

    Molecular point group: c1
  Charge       = 0
  Multiplicity = 1
  Basis Set: CC-PVTZ
  Basis Set:
  @DF-RHF Final Energy:  -248.21906011609209
    Total Energy =                       -248.2190601160921233
    Molecular point group: c1
  Basis Set: CC-PVTZ
  Basis Set:
  Basis Set: CC-PVTZ
  Basis Set:
  @DF-RHF Final Energy:  -248.22104066500592
    Total Energy =                       -248.2210406650060577
  Basis Set: CC-PVTZ
  Basis Set:
  Basis Set: CC-PVTZ
  Basis Set:
  @DF-RHF Final Energy:  -248.22134081394933
    Total Energy =                       -248.2213408139492685
  Basis Set: CC-PVTZ
  Basis Set:
  Basis Set: CC-PVTZ
  Basis Set:
  @DF-RHF Final Energy:  -248.22135999743520
    Total Energy =                       -248.2213599974352292
  Basis Set: CC-PVTZ
  Basis Set:
  Charge       = 0
  Multiplicity = 1
  Basis Set: CC-PVTZ
  Basis Set:

    Orbital Energies (a.u.)
    -----------------------

    Doubly Occupied:

       1A    -20.542764     2A    -15.525800     3A    -11.262579
       4A    -11.258304     5A    -11.241550     6A     -1.379002
       7A     -1.177116     8A     -0.999226     9A     -0.902792
      10A     -0.817630    11A     -0.683048    12A     -0.668810
      13A     -0.646157    14A     -0.622282    15A     -0.598293
      16A     -0.545143    17A     -0.520875    18A     -0.503713
      19A     -0.465568    20A     -0.413962    21A     -0.383103

  @DF-RHF Final Energy:  -248.22136131864056

   => Energetics <=

    Nuclear Repulsion Energy =            193.3824313872877383
    One-Electron Energy =                -720.8921518852448571
    Two-Electron Energy =                 279.2883591793167284
    DFT Exchange-Correlation Energy =       0.0000000000000000
    Empirical Dispersion Energy =           0.0000000000000000
    PCM Polarization Energy =               0.0000000000000000
    EFP Energy =                            0.0000000000000000
    Total Energy =                       -248.2213613186403904
    Molecular point group: c1
  Basis Set: CC-PVTZ
  Basis Set:

  -Total Gradient:
     Atom            X                  Y                   Z
    ------   -----------------  -----------------  -----------------
       1        0.000023192823     0.000010905432     0.000012091688
       2       -0.000547543814     0.000016112841    -0.000948232469
       3        0.000054478389     0.000308577908     0.000991012955
       4        0.000444002488    -0.000010966380     0.000617378774
       5       -0.000015542552    -0.000111971545     0.000082249833
       6        0.000043936078    -0.000243414384    -0.000632968781
       7       -0.000010444192    -0.000009873335    -0.000000454808
       8        0.000011994397     0.000003869932    -0.000121435567
       9        0.000028258685     0.000002614772     0.000033661263
      10       -0.000044765776     0.000007130636    -0.000048265161
      11        0.000044704714     0.000045718086     0.000026347268
      12       -0.000006554905    -0.000010451468    -0.000000409897
      13       -0.000008334551     0.000004339597    -0.000001269078
      14       -0.000017381783    -0.000012592089    -0.000009706019

  **** Optimization is complete! (in 5 steps) ****
    Final optimized geometry and variables:
    Molecular point group: c1

    Geometry (in Angstrom), charge = 0, multiplicity = 1:

    H           -1.380446607421    -1.889805202557    -1.185296620324
    N           -0.434972822297    -1.833512998751    -0.872632502981
    C            0.197344451736    -0.598672274489    -1.299964554100
    H            0.049997487978    -2.631556425452    -1.219882439410
    C           -0.187602318258     0.571990356362    -0.419028003002
    H            1.271362257233    -0.724710801534    -1.246203519898
    H           -0.040788567170    -0.334303225646    -2.330558378052
    O            0.419151783538     0.452043195056     0.824783973030
    H            0.124099082900     1.500309788102    -0.898702603438
    H           -1.272238746214     0.610185554704    -0.311316482751
    C            0.053657968833     1.429353140026     1.739012310018
    H            0.591296099812     1.241861601915     2.657173691089
    H            0.307049235120     2.426737206634     1.383467944881
    H           -1.013802624496     1.401133846127     1.947688108624

  Mulliken Charges: (a.u.)
   Center  Symbol    Alpha    Beta     Spin     Total
       1     H     0.43170  0.43170  0.00000  0.13660
       2     N     3.68771  3.68771  0.00000 -0.37542
       3     C     3.02960  3.02960  0.00000 -0.05920
       4     H     0.42685  0.42685  0.00000  0.14629
       5     C     2.95503  2.95503  0.00000  0.08994
       6     H     0.45364  0.45364  0.00000  0.09271
       7     H     0.46729  0.46729  0.00000  0.06543
       8     O     4.16803  4.16803  0.00000 -0.33606
       9     H     0.47428  0.47428  0.00000  0.05143
      10     H     0.48052  0.48052  0.00000  0.03895
      11     C     3.03202  3.03202  0.00000 -0.06404
      12     H     0.44706  0.44706  0.00000  0.10589
      13     H     0.47429  0.47429  0.00000  0.05142
      14     H     0.47197  0.47197  0.00000  0.05606

   Total alpha = 21.00000, Total beta = 21.00000, Total charge =  0.00000

*** Psi4 exiting successfully. Buy a developer a beer!
