                              Psi4 1.0.54 Driver

  ==> Input File <==

--------------------------------------------------------------------------
set {
	reference rhf
	basis cc-pvtz
}

set_num_threads( 4 )
memory 2 gb

molecule MOL {
0 1

H	 -2.961265	 1.254044	 1.909970
O	 -2.270315	 0.681922	 1.631654
C	 -2.302264	 0.528872	 0.237390
C	 -1.175688	 -0.398187	 -0.171891
H	 -3.257081	 0.113545	 -0.078207
H	 -2.185926	 1.492566	 -0.254127
C	 0.196029	 0.106276	 0.266738
H	 -1.201873	 -0.515469	 -1.250677
H	 -1.365975	 -1.378728	 0.252664
C	 1.330220	 -0.826136	 -0.155230
H	 0.359542	 1.097229	 -0.145561
H	 0.212134	 0.218135	 1.348778
C	 2.719700	 -0.407669	 0.328325
H	 1.339388	 -0.911200	 -1.239363
H	 1.119001	 -1.821953	 0.224128
C	 3.241564	 0.893452	 -0.276737
H	 3.418299	 -1.204729	 0.093035
H	 2.711776	 -0.323368	 1.411960
H	 3.254204	 0.841071	 -1.360784
H	 2.634460	 1.745075	 0.005842
H	 4.254264	 1.092401	 0.054971

	symmetry c1
}
set optking {
	frozen_dihedral = ("
		2 3 4 8
	")
}

ee,wfn = optimize('scf', return_wfn=True)
oeprop( wfn, 'DIPOLE', 'QUADRUPOLE', 'MULLIKEN_CHARGES')
f=open( 'psi4out.xyz', 'w' )
f.write( "21  " )
f.write( str(ee) + "\n" )
f.write( MOL.save_string_xyz() )
f.close()
--------------------------------------------------------------------------

    Molecular point group: c1
  Charge       = 0
  Multiplicity = 1
  Basis Set: CC-PVTZ
  Basis Set:
  @DF-RHF Final Energy:  -310.33266910794373
    Total Energy =                       -310.3326691079438433
    Molecular point group: c1
  Basis Set: CC-PVTZ
  Basis Set:
  Basis Set: CC-PVTZ
  Basis Set:
  @DF-RHF Final Energy:  -310.33281595362035
    Total Energy =                       -310.3328159536202975
  Basis Set: CC-PVTZ
  Basis Set:
  Basis Set: CC-PVTZ
  Basis Set:
  @DF-RHF Final Energy:  -310.33284142812431
    Total Energy =                       -310.3328414281241976
  Basis Set: CC-PVTZ
  Basis Set:
  Charge       = 0
  Multiplicity = 1
  Basis Set: CC-PVTZ
  Basis Set:

    Orbital Energies (a.u.)
    -----------------------

    Doubly Occupied:

       1A    -20.546244     2A    -11.265902     3A    -11.210494
       4A    -11.208929     5A    -11.206731     6A    -11.203690
       7A    -11.202539     8A     -1.364262     9A     -1.082161
      10A     -1.031218    11A     -0.954418    12A     -0.875922
      13A     -0.801874    14A     -0.773451    15A     -0.707133
      16A     -0.647604    17A     -0.622123    18A     -0.604511
      19A     -0.586044    20A     -0.569328    21A     -0.533190
      22A     -0.527076    23A     -0.503264    24A     -0.490181
      25A     -0.479234    26A     -0.456768    27A     -0.453639
      28A     -0.441858    29A     -0.429926

  @DF-RHF Final Energy:  -310.33284116130761

   => Energetics <=

    Nuclear Repulsion Energy =            317.4866510482880244
    One-Electron Energy =               -1050.0795472553197669
    Two-Electron Energy =                 422.2600550457243003
    DFT Exchange-Correlation Energy =       0.0000000000000000
    Empirical Dispersion Energy =           0.0000000000000000
    PCM Polarization Energy =               0.0000000000000000
    EFP Energy =                            0.0000000000000000
    Total Energy =                       -310.3328411613074991
    Molecular point group: c1
  Basis Set: CC-PVTZ
  Basis Set:

  -Total Gradient:
     Atom            X                  Y                   Z
    ------   -----------------  -----------------  -----------------
       1        0.000001869718    -0.000007488465    -0.000026275785
       2        0.000775408099     0.000936004005    -0.000087005569
       3       -0.000808782913    -0.000991982590     0.000086263751
       4       -0.000975942523    -0.001201186201     0.000152733872
       5        0.000049040045    -0.000037677745    -0.000004204226
       6        0.000038999629     0.000009621095    -0.000018150054
       7        0.000027913344    -0.000036706140     0.000128792407
       8        0.000899139614     0.001251854367    -0.000183256242
       9       -0.000000314262     0.000024269150     0.000019456143
      10       -0.000023601769     0.000052293726    -0.000054918613
      11       -0.000058829064    -0.000040743256    -0.000028871850
      12        0.000029458722     0.000013318457     0.000009095398
      13       -0.000072176237     0.000068425373     0.000078335228
      14       -0.000016421700     0.000023960821    -0.000040562427
      15        0.000014813422    -0.000031091330    -0.000015892519
      16        0.000052321574    -0.000001277244    -0.000025525360
      17        0.000016653164    -0.000038982797     0.000015142996
      18       -0.000016694983     0.000027156545     0.000027489060
      19       -0.000006227634     0.000015718269    -0.000033335199
      20        0.000054553992    -0.000018934650     0.000021593093
      21        0.000018819759    -0.000016551392    -0.000020904105

  **** Optimization is complete! (in 4 steps) ****
    Final optimized geometry and variables:
    Molecular point group: c1

    Geometry (in Angstrom), charge = 0, multiplicity = 1:

    H           -3.205547122165     1.149743572745     1.612938481877
    O           -2.505941693737     0.581274324735     1.349836840151
    C           -2.500576418088     0.437687620732    -0.046703904683
    C           -1.369190583784    -0.487506161847    -0.451765930926
    H           -3.446586570472     0.027055114483    -0.390204017482
    H           -2.369449902389     1.407129984459    -0.523867708389
    C            0.011203339879    -0.000489958044    -0.016344097664
    H           -1.389780949488    -0.579526619397    -1.534874234487
    H           -1.558316013982    -1.474412080271    -0.041053986425
    C            1.129975407355    -0.938585479864    -0.465079182656
    H            0.174518484361     0.994123126862    -0.421115358222
    H            0.031325246941     0.098229715819     1.062654125870
    C            2.527276092753    -0.547634838529     0.019379811160
    H            1.134509931605    -1.004784178604    -1.551249074052
    H            0.909250760484    -1.939010097632    -0.102613859751
    C            3.067081624143     0.752819862484    -0.571183678247
    H            3.213773606464    -1.351991584892    -0.227420563357
    H            2.522263451003    -0.475882632790     1.103696478562
    H            3.071856124288     0.715485877562    -1.656091094493
    H            2.475810217465     1.609837227905    -0.272284842683
    H            4.085259898489     0.930245485695    -0.243750980526

  Mulliken Charges: (a.u.)
   Center  Symbol    Alpha    Beta     Spin     Total
       1     H     0.39587  0.39587  0.00000  0.20826
       2     O     4.19827  4.19827  0.00000 -0.39655
       3     C     2.97414  2.97414  0.00000  0.05172
       4     C     3.09137  3.09137  0.00000 -0.18275
       5     H     0.46527  0.46527  0.00000  0.06946
       6     H     0.47356  0.47356  0.00000  0.05287
       7     C     3.09124  3.09124  0.00000 -0.18247
       8     H     0.45492  0.45492  0.00000  0.09016
       9     H     0.45203  0.45203  0.00000  0.09595
      10     C     3.09450  3.09450  0.00000 -0.18901
      11     H     0.45744  0.45744  0.00000  0.08511
      12     H     0.44297  0.44297  0.00000  0.11407
      13     C     3.08951  3.08951  0.00000 -0.17902
      14     H     0.45619  0.45619  0.00000  0.08761
      15     H     0.45005  0.45005  0.00000  0.09990
      16     C     3.15250  3.15250  0.00000 -0.30499
      17     H     0.44963  0.44963  0.00000  0.10075
      18     H     0.45427  0.45427  0.00000  0.09146
      19     H     0.45597  0.45597  0.00000  0.08807
      20     H     0.45332  0.45332  0.00000  0.09336
      21     H     0.44698  0.44698  0.00000  0.10604

   Total alpha = 29.00000, Total beta = 29.00000, Total charge =  0.00000

*** Psi4 exiting successfully. Buy a developer a beer!
