                              Psi4 1.0.54 Driver

  ==> Input File <==

--------------------------------------------------------------------------
set {
	reference rhf
	basis cc-pvtz
}

set_num_threads( 4 )
memory 2 gb

molecule MOL {
0 1

H	 -0.517152	 0.727607	 -2.474359
C	 0.039019	 1.361625	 -1.770418
C	 0.062554	 0.862911	 -0.350953
O	 0.567611	 2.347384	 -2.152549
C	 -1.339253	 0.577611	 0.196911
H	 0.588246	 1.585647	 0.259617
H	 0.640254	 -0.058681	 -0.352985
C	 -1.813142	 -0.849710	 -0.061612
H	 -2.032833	 1.276441	 -0.256032
H	 -1.357249	 0.782269	 1.263793
H	 -1.839268	 -1.063526	 -1.124230
H	 -2.810118	 -1.001930	 0.334000
H	 -1.159274	 -1.579980	 0.402282

	symmetry c1
}
set optking {
	frozen_dihedral = ("
		6 3 5 9
	")
}

ee,wfn = optimize('scf', return_wfn=True)
oeprop( wfn, 'DIPOLE', 'QUADRUPOLE', 'MULLIKEN_CHARGES')
f=open( 'psi4out.xyz', 'w' )
f.write( "13  " )
f.write( str(ee) + "\n" )
f.write( MOL.save_string_xyz() )
f.close()
--------------------------------------------------------------------------

    Molecular point group: c1
  Charge       = 0
  Multiplicity = 1
  Basis Set: CC-PVTZ
  Basis Set:
  @DF-RHF Final Energy:  -231.06762682337390
    Total Energy =                       -231.0676268233739847
    Molecular point group: c1
  Basis Set: CC-PVTZ
  Basis Set:
  Basis Set: CC-PVTZ
  Basis Set:
  @DF-RHF Final Energy:  -231.06722823570499
    Total Energy =                       -231.0672282357047322
  Basis Set: CC-PVTZ
  Basis Set:
  Basis Set: CC-PVTZ
  Basis Set:
  @DF-RHF Final Energy:  -231.06645131144867
    Total Energy =                       -231.0664513114486738
  Basis Set: CC-PVTZ
  Basis Set:
  Basis Set: CC-PVTZ
  Basis Set:
  @DF-RHF Final Energy:  -231.06790256971496
    Total Energy =                       -231.0679025697148177
  Basis Set: CC-PVTZ
  Basis Set:
  @DF-RHF Final Energy:  -231.06792425124311
    Total Energy =                       -231.0679242512430562
  Basis Set: CC-PVTZ
  Basis Set:
  @DF-RHF Final Energy:  -231.06793895430630
    Total Energy =                       -231.0679389543061575
  Basis Set: CC-PVTZ
  Basis Set:
  Basis Set: CC-PVTZ
  Basis Set:
  @DF-RHF Final Energy:  -231.06794687500951
    Total Energy =                       -231.0679468750094543
  Basis Set: CC-PVTZ
  Basis Set:
  Basis Set: CC-PVTZ
  Basis Set:
  @DF-RHF Final Energy:  -231.06794965419627
    Total Energy =                       -231.0679496541962408
  Basis Set: CC-PVTZ
  Basis Set:
  Charge       = 0
  Multiplicity = 1
  Basis Set: CC-PVTZ
  Basis Set:

    Orbital Energies (a.u.)
    -----------------------

    Doubly Occupied:

       1A    -20.551842     2A    -11.322114     3A    -11.237329
       4A    -11.234625     5A    -11.223868     6A     -1.406977
       7A     -1.087713     8A     -0.975660     9A     -0.849116
      10A     -0.791682    11A     -0.675787    12A     -0.653414
      13A     -0.607047    14A     -0.598339    15A     -0.584902
      16A     -0.529689    17A     -0.506806    18A     -0.493582
      19A     -0.486945    20A     -0.412684

  @DF-RHF Final Energy:  -231.06794989759302

   => Energetics <=

    Nuclear Repulsion Energy =            171.9694545074293330
    One-Electron Energy =                -653.6145672150341852
    Two-Electron Energy =                 250.5771628100118846
    DFT Exchange-Correlation Energy =       0.0000000000000000
    Empirical Dispersion Energy =           0.0000000000000000
    PCM Polarization Energy =               0.0000000000000000
    EFP Energy =                            0.0000000000000000
    Total Energy =                       -231.0679498975929960
    Molecular point group: c1
  Basis Set: CC-PVTZ
  Basis Set:

  -Total Gradient:
     Atom            X                  Y                   Z
    ------   -----------------  -----------------  -----------------
       1        0.000020269487     0.000019089036     0.000005076038
       2       -0.000048848926    -0.000058181948     0.000025412851
       3       -0.001329086777     0.001922999077    -0.002131286752
       4        0.000023191060     0.000031372043    -0.000017022987
       5        0.000744741262     0.001450684577     0.002560129059
       6        0.000975989620    -0.001808383680     0.001344554001
       7       -0.000000321412    -0.000002756723    -0.000003427184
       8        0.000009191852    -0.000013859769     0.000008777631
       9       -0.000398312949    -0.001549272148    -0.001792089312
      10       -0.000000317919    -0.000002471028    -0.000000798013
      11        0.000001409832     0.000005802705     0.000009305503
      12        0.000009147690     0.000005438396    -0.000003444323
      13       -0.000007052817    -0.000000460541    -0.000005186513

  **** Optimization is complete! (in 9 steps) ****
    Final optimized geometry and variables:
    Molecular point group: c1

    Geometry (in Angstrom), charge = 0, multiplicity = 1:

    H           -0.193581414431    -0.017542905011    -1.606356662370
    C            0.488510394949     0.531095075763    -0.944392125165
    C            0.545735410221     0.042232620545     0.477070811681
    O            1.117147556733     1.438481873359    -1.367731025590
    C           -0.840909737443    -0.274419774521     1.062095402827
    H            1.078350651566     0.773323274455     1.069499689238
    H            1.153358865182    -0.860550408646     0.477480460531
    C           -1.296027622499    -1.710365144437     0.812045834325
    H           -1.576865993005     0.403283854420     0.638983573320
    H           -0.823489445920    -0.084611946716     2.127814815733
    H           -1.329148888044    -1.941106474328    -0.247373983304
    H           -2.287690762859    -1.878665708031     1.214647085375
    H           -0.621315998219    -2.417901552468     1.281425115604

  Mulliken Charges: (a.u.)
   Center  Symbol    Alpha    Beta     Spin     Total
       1     H     0.46461  0.46461  0.00000  0.07078
       2     C     2.90513  2.90513  0.00000  0.18974
       3     C     3.08488  3.08488  0.00000 -0.16976
       4     O     4.16466  4.16466  0.00000 -0.32932
       5     C     3.10139  3.10139  0.00000 -0.20278
       6     H     0.43618  0.43618  0.00000  0.12763
       7     H     0.45126  0.45126  0.00000  0.09748
       8     C     3.14690  3.14690  0.00000 -0.29381
       9     H     0.44934  0.44934  0.00000  0.10131
      10     H     0.44231  0.44231  0.00000  0.11538
      11     H     0.45487  0.45487  0.00000  0.09026
      12     H     0.44549  0.44549  0.00000  0.10902
      13     H     0.45297  0.45297  0.00000  0.09407

   Total alpha = 20.00000, Total beta = 20.00000, Total charge = -0.00000

*** Psi4 exiting successfully. Buy a developer a beer!
