  ==> Input File <==

--------------------------------------------------------------------------
set {
	reference rhf
	basis 6-31G*
}

set_num_threads( 4 )
memory 2 gb

molecule MOL {
0 1

H	 -1.132059	 0.602056	 0.585092
N	 -0.712432	 0.000013	 -0.096310
C	 0.734192	 -0.000004	 0.040609
H	 -0.982435	 0.346883	 -0.996109
H	 1.139899	 -0.873598	 -0.456463
H	 1.139939	 0.873831	 -0.456100
H	 1.096456	 -0.000300	 1.069655

	symmetry c1
}
set optking {
	frozen_dihedral = ("
		1 2 3 7
	")
}

ee = optimize('scf')
oeprop('DIPOLE', 'QUADRUPOLE', 'MULLIKEN_CHARGES')
f=open( 'psi4out.xyz', 'w' )
f.write( "7  " )
f.write( str(ee) + "\n" )
f.write( MOL.save_string_xyz() )
f.close()
--------------------------------------------------------------------------

    Molecular point group: c1
  Charge       = 0
  Multiplicity = 1
  Basis Set: 6-31G*
  Basis Set:
  @DF-RHF Final Energy:   -95.20675207601859
    Total Energy =                        -95.2067520760186596
    Molecular point group: c1
  Basis Set: 6-31G*
  Basis Set:
  Basis Set: 6-31G*
  Basis Set:
  @DF-RHF Final Energy:   -95.20850722785318
    Total Energy =                        -95.2085072278531186
  Basis Set: 6-31G*
  Basis Set:
  Basis Set: 6-31G*
  Basis Set:
  @DF-RHF Final Energy:   -95.20875969795324
    Total Energy =                        -95.2087596979533259
  Basis Set: 6-31G*
  Basis Set:
  Basis Set: 6-31G*
  Basis Set:
  @DF-RHF Final Energy:   -95.20876397811053
    Total Energy =                        -95.2087639781105537
  Basis Set: 6-31G*
  Basis Set:
  Charge       = 0
  Multiplicity = 1
  Basis Set: 6-31G*
  Basis Set:

    Orbital Energies (a.u.)
    -----------------------

    Doubly Occupied:

       1A    -15.533090     2A    -11.237362     3A     -1.169093
       4A     -0.896583     5A     -0.665930     6A     -0.601002
       7A     -0.558330     8A     -0.518569     9A     -0.380267

  @DF-RHF Final Energy:   -95.20876438504912

   => Energetics <=

    Nuclear Repulsion Energy =             42.3217367003413045
    One-Electron Energy =                -211.9405492515479636
    Two-Electron Energy =                  74.4100481661574662
    DFT Exchange-Correlation Energy =       0.0000000000000000
    Empirical Dispersion Energy =           0.0000000000000000
    PCM Polarization Energy =               0.0000000000000000
    EFP Energy =                            0.0000000000000000
    Total Energy =                        -95.2087643850491787
    Molecular point group: c1
  Basis Set: 6-31G*
  Basis Set:

  -Total Gradient:
     Atom            X                  Y                   Z
    ------   -----------------  -----------------  -----------------
       1       -0.000141246647    -0.002082428033     0.001712138606
       2        0.000084635220     0.003218938327    -0.002143192975
       3        0.000084804322    -0.003619147824     0.000392465124
       4        0.000012659564     0.000004004654     0.000014288066
       5       -0.000012802680     0.000032275338     0.000004600065
       6       -0.000018764692    -0.000016005559    -0.000009186856
       7       -0.000009285087     0.002462363097     0.000028887971

  **** Optimization is complete! (in 5 steps) ****
    Final optimized geometry and variables:
    Molecular point group: c1

    Geometry (in Angstrom), charge = 0, multiplicity = 1:

    H           -1.128713282899     0.559146315937     0.648696399057
    N           -0.716407122539    -0.031571848479    -0.044657198066
    C            0.733847923716    -0.025159241668     0.053161826717
    H           -1.027944092833     0.281410407234    -0.941951927649
    H            1.142215593987    -0.913397944942    -0.415236976468
    H            1.209653887023     0.844281310629    -0.402138737920
    H            1.020997882443    -0.033202987119     1.098125231682

  Mulliken Charges: (a.u.)
   Center  Symbol    Alpha    Beta     Spin     Total
       1     H     0.33246  0.33246  0.00000  0.33507
       2     N     3.92101  3.92101  0.00000 -0.84202
       3     C     3.14566  3.14566  0.00000 -0.29133
       4     H     0.33238  0.33238  0.00000  0.33525
       5     H     0.41641  0.41641  0.00000  0.16719
       6     H     0.43268  0.43268  0.00000  0.13463
       7     H     0.41940  0.41940  0.00000  0.16121

   Total alpha =  9.00000, Total beta =  9.00000, Total charge = -0.00000
