  ==> Input File <==

--------------------------------------------------------------------------
set {
	reference rhf
	basis 6-31G*
}

set_num_threads( 4 )
memory 2 gb

molecule MOL {
0 1

H	 -4.208896	 0.121468	 -0.719659
C	 -3.391192	 -0.114969	 -0.066882
C	 -2.234704	 -0.477729	 -0.571800
H	 -3.544699	 -0.047007	 0.993649
O	 -1.180634	 -0.819263	 0.215062
H	 -2.058395	 -0.545052	 -1.630846
C	 0.051604	 -1.018856	 -0.387932
C	 1.043764	 0.054862	 -0.001873
H	 -0.017620	 -1.041351	 -1.469781
H	 0.437898	 -1.966374	 -0.042284
F	 2.212596	 -0.199467	 -0.571921
F	 0.652529	 1.252447	 -0.405055
F	 1.230877	 0.110694	 1.300533

	symmetry c1
}
set optking {
	frozen_dihedral = ("
		3 5 7 9
	")
}

ee = optimize('scf')
oeprop('DIPOLE', 'QUADRUPOLE', 'MULLIKEN_CHARGES')
f=open( 'psi4out.xyz', 'w' )
f.write( "13  " )
f.write( str(ee) + "\n" )
f.write( MOL.save_string_xyz() )
f.close()
--------------------------------------------------------------------------

    Molecular point group: c1
  Charge       = 0
  Multiplicity = 1
  Basis Set: 6-31G*
  Basis Set:
  @DF-RHF Final Energy:  -527.53448147290146
    Total Energy =                       -527.5344814729021437
    Molecular point group: c1
  Basis Set: 6-31G*
  Basis Set:
  Basis Set: 6-31G*
  Basis Set:
  @DF-RHF Final Energy:  -527.53477370302437
    Total Energy =                       -527.5347737030244843
  Basis Set: 6-31G*
  Basis Set:
  Basis Set: 6-31G*
  Basis Set:
  @DF-RHF Final Energy:  -527.53487865919328
    Total Energy =                       -527.5348786591931685
  Basis Set: 6-31G*
  Basis Set:
  Basis Set: 6-31G*
  Basis Set:
  @DF-RHF Final Energy:  -527.53489204443622
    Total Energy =                       -527.5348920444357645
  Basis Set: 6-31G*
  Basis Set:
  @DF-RHF Final Energy:  -527.53492116774419
    Total Energy =                       -527.5349211677445282
  @DF-RHF Final Energy:  -527.53496070234507
    Total Energy =                       -527.5349607023449607
  Basis Set: 6-31G*
  Basis Set:
  @DF-RHF Final Energy:  -527.53498337595545
    Total Energy =                       -527.5349833759555622
  Basis Set: 6-31G*
  Basis Set:
  Basis Set: 6-31G*
  Basis Set:
  @DF-RHF Final Energy:  -527.53498765659617
    Total Energy =                       -527.5349876565960585
  Basis Set: 6-31G*
  Basis Set:
  Basis Set: 6-31G*
  Basis Set:
  @DF-RHF Final Energy:  -527.53498918286346
    Total Energy =                       -527.5349891828634554
  Basis Set: 6-31G*
  Basis Set:
  Charge       = 0
  Multiplicity = 1
  Basis Set: 6-31G*
  Basis Set:

    Orbital Energies (a.u.)
    -----------------------

    Doubly Occupied:

       1A    -26.343408     2A    -26.341326     3A    -26.339221
       4A    -20.607495     5A    -11.501874     6A    -11.318753
       7A    -11.301064     8A    -11.217575     9A     -1.740180
      10A     -1.638330    11A     -1.636719    12A     -1.437823
      13A     -1.085854    14A     -1.015786    15A     -0.924076
      16A     -0.836283    17A     -0.829939    18A     -0.815360
      19A     -0.794887    20A     -0.723749    21A     -0.710920
      22A     -0.698461    23A     -0.676281    24A     -0.657829
      25A     -0.653387    26A     -0.641549    27A     -0.627793
      28A     -0.589593    29A     -0.563838    30A     -0.528328
      31A     -0.508077    32A     -0.353375

  @DF-RHF Final Energy:  -527.53498929938291

   => Energetics <=

    Nuclear Repulsion Energy =            410.1952267107384955
    One-Electron Energy =               -1544.1421719615852908
    Two-Electron Energy =                 606.4119559514639377
    DFT Exchange-Correlation Energy =       0.0000000000000000
    Empirical Dispersion Energy =           0.0000000000000000
    PCM Polarization Energy =               0.0000000000000000
    EFP Energy =                            0.0000000000000000
    Total Energy =                       -527.5349892993828007
    Molecular point group: c1
  Basis Set: 6-31G*
  Basis Set:

  -Total Gradient:
     Atom            X                  Y                   Z
    ------   -----------------  -----------------  -----------------
       1        0.000003609948     0.000001631242     0.000000027737
       2        0.000014205103    -0.000000518225     0.000001406692
       3       -0.000404845217    -0.001230861670    -0.000042417074
       4       -0.000005951771     0.000000901874     0.000001857867
       5        0.000714699195     0.002232997726    -0.000005892748
       6       -0.000001914083     0.000004752792    -0.000000998446
       7       -0.000668168180    -0.002487148118     0.000239660807
       8       -0.000013021525    -0.000003092450    -0.000010553146
       9        0.000365163470     0.001476355673    -0.000199394083
      10        0.000006108498    -0.000004306768     0.000003816206
      11       -0.000014665787    -0.000008622789     0.000007537081
      12        0.000001872351     0.000015939070     0.000001699061
      13        0.000002907991     0.000001971646     0.000003250051

  **** Optimization is complete! (in 10 steps) ****
    Final optimized geometry and variables:
    Molecular point group: c1

    Geometry (in Angstrom), charge = 0, multiplicity = 1:

    H           -4.205781095790     0.182803559236    -0.663997964627
    C           -3.420438842806    -0.134615990778    -0.005744047199
    C           -2.184553095985    -0.198660105531    -0.445043516368
    H           -3.669280368689    -0.380216938476     1.009555056341
    O           -1.151495399307    -0.559093547672     0.358149109360
    H           -1.914452171120     0.050259172392    -1.456485586298
    C            0.046847004887    -0.936346328717    -0.232960682874
    C            1.093429254204     0.124221471872     0.014236735879
    H           -0.040734330982    -1.061734793620    -1.305109058497
    H            0.386554890299    -1.863317427864     0.207519013392
    F            2.239767201732    -0.245399070383    -0.538839546238
    F            0.741620046904     1.280647297618    -0.520939287521
    F            1.309091696860     0.321903278361     1.298292245445

  Mulliken Charges: (a.u.)
   Center  Symbol    Alpha    Beta     Spin     Total
       1     H     0.40702  0.40702  0.00000  0.18596
       2     C     3.23456  3.23456  0.00000 -0.46913
       3     C     2.89721  2.89721  0.00000  0.20558
       4     H     0.40153  0.40153  0.00000  0.19694
       5     O     4.30291  4.30291  0.00000 -0.60581
       6     H     0.40628  0.40628  0.00000  0.18745
       7     C     3.05958  3.05958  0.00000 -0.11916
       8     C     2.45352  2.45352  0.00000  1.09295
       9     H     0.40582  0.40582  0.00000  0.18836
      10     H     0.39301  0.39301  0.00000  0.21398
      11     F     4.68350  4.68350  0.00000 -0.36699
      12     F     4.67999  4.67999  0.00000 -0.35998
      13     F     4.67508  4.67508  0.00000 -0.35015

   Total alpha = 32.00000, Total beta = 32.00000, Total charge =  0.00000
