  ==> Input File <==

--------------------------------------------------------------------------
set {
	reference rhf
	basis 6-31G*
}

set_num_threads( 1 )
memory 2 gb

molecule MOL {
0 1

H	 -2.646374	 -0.642757	 1.268656
C	 -2.083525	 -0.384536	 0.393091
O	 -0.807605	 -0.127164	 0.768327
F	 -2.118945	 -1.383102	 -0.486752
F	 -2.621877	 0.670592	 -0.209486
C	 -0.027374	 -1.193990	 1.175522
C	 0.668605	 -0.770259	 2.462466
Cl	 1.162099	 -1.616648	 -0.066947
H	 -0.611664	 -2.073896	 1.380812
F	 1.423841	 -1.746478	 2.919364
F	 -0.247278	 -0.501636	 3.371553
F	 1.412354	 0.295899	 2.294780

	symmetry c1
}
set optking {
	frozen_dihedral = ("
		10 7 6 9,
		9 6 3 2
	")
}

ee = energy('scf')
oeprop('DIPOLE', 'QUADRUPOLE', 'MULLIKEN_CHARGES')
f=open( 'psi4out.xyz', 'w' )
f.write( "12  " )
f.write( str(ee) + "\n" )
f.write( MOL.save_string_xyz() )
f.close()
--------------------------------------------------------------------------

    Molecular point group: c1

    Geometry (in Angstrom), charge = 0, multiplicity = 1:

       Center              X                  Y                   Z               Mass
    ------------   -----------------  -----------------  -----------------  -----------------
           H         -2.462899192034     0.118856644828     0.122399037915     1.007825032070
           C         -1.900050192034     0.377077644828    -0.753165962085    12.000000000000
           O         -0.624130192034     0.634449644828    -0.377929962085    15.994914619560
           F         -1.935470192034    -0.621488355172    -1.633008962085    18.998403224000
           F         -2.438402192034     1.432205644828    -1.355742962085    18.998403224000
           C          0.156100807966    -0.432376355172     0.029265037915    12.000000000000
           C          0.852079807966    -0.008645355172     1.316209037915    12.000000000000
          CL          1.345573807966    -0.855034355172    -1.213203962085    34.968852682000
           H         -0.428189192034    -1.312282355172     0.234555037915     1.007825032070
           F          1.607315807966    -0.984864355172     1.773107037915    18.998403224000
           F         -0.063803192034     0.259977644828     2.225296037915    18.998403224000
           F          1.595828807966     1.057512644828     1.148523037915    18.998403224000

  Charge       = 0
  Multiplicity = 1
  Basis Set: 6-31G*
  Basis Set:

    Orbital Energies (a.u.)
    -----------------------

    Doubly Occupied:

       1A   -104.846868     2A    -26.366823     3A    -26.365137
       4A    -26.361363     5A    -26.346062     6A    -26.345645
       7A    -20.648387     8A    -11.533007     9A    -11.491194
      10A    -11.408320    11A    -10.581543    12A     -8.050908
      13A     -8.047323    14A     -8.047236    15A     -1.766670
      16A     -1.714520    17A     -1.663539    18A     -1.661493
      19A     -1.636446    20A     -1.488459    21A     -1.182639
      22A     -1.053572    23A     -0.986327    24A     -0.929881
      25A     -0.860578    26A     -0.854671    27A     -0.842665
      28A     -0.835947    29A     -0.816961    30A     -0.786684
      31A     -0.733475    32A     -0.730143    33A     -0.703671
      34A     -0.693583    35A     -0.684649    36A     -0.679561
      37A     -0.663448    38A     -0.657933    39A     -0.650609
      40A     -0.634398    41A     -0.618153    42A     -0.573227
      43A     -0.516906    44A     -0.478666    45A     -0.472060

  @DF-RHF Final Energy: -1146.30741355257487

   => Energetics <=

    Nuclear Repulsion Energy =            728.8575580625087014
    One-Electron Energy =               -3040.3072930736452690
    Two-Electron Energy =                1165.1423214585629466
    DFT Exchange-Correlation Energy =       0.0000000000000000
    Empirical Dispersion Energy =           0.0000000000000000
    PCM Polarization Energy =               0.0000000000000000
    EFP Energy =                            0.0000000000000000
    Total Energy =                      -1146.3074135525735073

  Mulliken Charges: (a.u.)
   Center  Symbol    Alpha    Beta     Spin     Total
       1     H     0.41810  0.41810  0.00000  0.16380
       2     C     2.56575  2.56575  0.00000  0.86850
       3     O     4.29984  4.29984  0.00000 -0.59968
       4     F     4.68193  4.68193  0.00000 -0.36387
       5     F     4.67423  4.67423  0.00000 -0.34847
       6     C     3.04091  3.04091  0.00000 -0.08182
       7     C     2.43276  2.43276  0.00000  1.13448
       8    CL     8.49464  8.49464  0.00000  0.01072
       9     H     0.37328  0.37328  0.00000  0.25345
      10     F     4.67346  4.67346  0.00000 -0.34692
      11     F     4.67822  4.67822  0.00000 -0.35644
      12     F     4.66687  4.66687  0.00000 -0.33374

   Total alpha = 45.00000, Total beta = 45.00000, Total charge = -0.00000
