  ==> Input File <==

--------------------------------------------------------------------------
set {
	reference rhf
	basis 6-31G*
}

set_num_threads( 4 )
memory 2 gb

molecule MOL {
0 1

O	 0.625848	 1.349995	 -0.000749
C	 0.486307	 0.169203	 0.000779
C	 1.608116	 -0.841643	 0.000302
O	 -0.698257	 -0.426125	 0.001050
C	 2.990107	 -0.200498	 -0.000684
H	 1.468623	 -1.481519	 -0.865924
H	 1.469683	 -1.481289	 0.866878
H	 3.129736	 0.423364	 -0.875135
H	 3.757882	 -0.966877	 -0.001197
H	 3.130964	 0.423383	 0.873533
C	 -1.285669	 -0.721708	 1.263974
C	 -2.618549	 -1.389353	 0.999413
H	 -1.402695	 0.197228	 1.822048
H	 -0.619145	 -1.366221	 1.820696
H	 -3.272497	 -0.733204	 0.436405
H	 -3.102835	 -1.632814	 1.939541
H	 -2.484766	 -2.305269	 0.435093

	symmetry c1
}
set optking {
	frozen_dihedral = ("
		11 4 2 3
	")
}

ee = optimize('scf')
oeprop('DIPOLE', 'QUADRUPOLE', 'MULLIKEN_CHARGES')
f=open( 'psi4out.xyz', 'w' )
f.write( "17  " )
f.write( str(ee) + "\n" )
f.write( MOL.save_string_xyz() )
f.close()
--------------------------------------------------------------------------

    Molecular point group: c1
  Charge       = 0
  Multiplicity = 1
  Basis Set: 6-31G*
  Basis Set:
  @DF-RHF Final Energy:  -344.89100108193162
    Total Energy =                       -344.8910010819313356
    Molecular point group: c1
  Basis Set: 6-31G*
  Basis Set:
  Basis Set: 6-31G*
  Basis Set:
  @DF-RHF Final Energy:  -344.89210270097141
    Total Energy =                       -344.8921027009719182
  Basis Set: 6-31G*
  Basis Set:
  Basis Set: 6-31G*
  Basis Set:
  @DF-RHF Final Energy:  -344.89208320382386
    Total Energy =                       -344.8920832038234039
  Basis Set: 6-31G*
  Basis Set:
  Basis Set: 6-31G*
  Basis Set:
  @DF-RHF Final Energy:  -344.89226964355078
    Total Energy =                       -344.8922696435502644
  Basis Set: 6-31G*
  Basis Set:
  Basis Set: 6-31G*
  Basis Set:
  @DF-RHF Final Energy:  -344.89230577280034
    Total Energy =                       -344.8923057728003982
  Basis Set: 6-31G*
  Basis Set:
  Charge       = 0
  Multiplicity = 1
  Basis Set: 6-31G*
  Basis Set:

    Orbital Energies (a.u.)
    -----------------------

    Doubly Occupied:

       1A    -20.582392     2A    -20.556329     3A    -11.374148
       4A    -11.295937     5A    -11.242047     6A    -11.224737
       7A    -11.218838     8A     -1.457344     9A     -1.366274
      10A     -1.065217    11A     -1.037196    12A     -0.904327
      13A     -0.864540    14A     -0.769862    15A     -0.701227
      16A     -0.683899    17A     -0.656166    18A     -0.636494
      19A     -0.603449    20A     -0.564035    21A     -0.556125
      22A     -0.530239    23A     -0.526916    24A     -0.520683
      25A     -0.506771    26A     -0.487204    27A     -0.450774
      28A     -0.434536

  @DF-RHF Final Energy:  -344.89230637671233

   => Energetics <=

    Nuclear Repulsion Energy =            314.3485871463421972
    One-Electron Energy =               -1092.8463780738411515
    Two-Electron Energy =                 433.6054845507865139
    DFT Exchange-Correlation Energy =       0.0000000000000000
    Empirical Dispersion Energy =           0.0000000000000000
    PCM Polarization Energy =               0.0000000000000000
    EFP Energy =                            0.0000000000000000
    Total Energy =                       -344.8923063767124404
    Molecular point group: c1
  Basis Set: 6-31G*
  Basis Set:

  -Total Gradient:
     Atom            X                  Y                   Z
    ------   -----------------  -----------------  -----------------
       1        0.000016963762     0.000028496095    -0.000010762181
       2        0.000403527219    -0.001178536377    -0.003270317613
       3       -0.000029445091     0.000037505526     0.002252493995
       4       -0.001608008954     0.003437191719     0.001000357488
       5        0.000050703083    -0.000020646992     0.000013148580
       6        0.000000630874     0.000004474744     0.000015071759
       7       -0.000001961955     0.000014211801    -0.000004308468
       8       -0.000004838431    -0.000005848757     0.000004692959
       9        0.000030571738     0.000008974850    -0.000002668512
      10       -0.000002164556    -0.000003753718    -0.000006991103
      11        0.001161379403    -0.002360262340     0.000025560020
      12       -0.000012143968     0.000005117381    -0.000005470968
      13        0.000038581570    -0.000001289594    -0.000048106339
      14       -0.000032419225     0.000023971915     0.000042870721
      15       -0.000012853300    -0.000001461145    -0.000003509869
      16       -0.000002942554     0.000010400113    -0.000002497165
      17        0.000004420384     0.000001454781     0.000000436697

  **** Optimization is complete! (in 6 steps) ****
    Final optimized geometry and variables:
    Molecular point group: c1

    Geometry (in Angstrom), charge = 0, multiplicity = 1:

    O            0.461796194457     1.612821927563    -0.355938403225
    C            0.352104989586     0.436456400535    -0.329351877842
    C            1.508640523803    -0.535111019066    -0.323372615227
    O           -0.860351681712    -0.163138785590    -0.326553011194
    C            2.873031723893     0.142705177925    -0.330223978591
    H            1.384455267923    -1.183616792968    -1.186306688700
    H            1.397173829358    -1.180178472017     0.544129512142
    H            2.990673228418     0.767864751597    -1.206771427402
    H            3.662438946648    -0.601337430669    -0.331996070459
    H            2.999943584426     0.772974539700     0.541824311089
    C           -1.446214351968    -0.445515388071     0.934945784417
    C           -2.810343573537    -1.052668557131     0.686492339189
    H           -1.527376972773     0.474716112785     1.502150978310
    H           -0.814648836972    -1.133882005928     1.488472606811
    H           -3.434804463218    -0.360956871096     0.134115717160
    H           -3.294464786326    -1.281052108877     1.630549412497
    H           -2.720193580045    -1.967938086726     0.113078765160

  Mulliken Charges: (a.u.)
   Center  Symbol    Alpha    Beta     Spin     Total
       1     O     4.25213  4.25213  0.00000 -0.50426
       2     C     2.61317  2.61317  0.00000  0.77366
       3     C     3.21122  3.21122  0.00000 -0.42243
       4     O     4.32240  4.32240  0.00000 -0.64481
       5     C     3.23893  3.23893  0.00000 -0.47786
       6     H     0.39846  0.39846  0.00000  0.20308
       7     H     0.40703  0.40703  0.00000  0.18594
       8     H     0.40801  0.40801  0.00000  0.18399
       9     H     0.41797  0.41797  0.00000  0.16406
      10     H     0.41092  0.41092  0.00000  0.17817
      11     C     3.00297  3.00297  0.00000 -0.00595
      12     C     3.24617  3.24617  0.00000 -0.49233
      13     H     0.41139  0.41139  0.00000  0.17723
      14     H     0.42445  0.42445  0.00000  0.15111
      15     H     0.40618  0.40618  0.00000  0.18764
      16     H     0.41760  0.41760  0.00000  0.16481
      17     H     0.41102  0.41102  0.00000  0.17796

   Total alpha = 28.00000, Total beta = 28.00000, Total charge = -0.00000
