  ==> Input File <==

--------------------------------------------------------------------------
set {
	reference rhf
	basis 6-31G*
}

set_num_threads( 4 )
memory 2 gb

molecule MOL {
0 1

H	 -2.491496	 -2.282006	 0.419261
C	 -1.938138	 -1.378368	 0.244302
C	 -2.589854	 -0.174956	 0.034514
C	 -0.560138	 -1.405611	 0.226354
H	 -3.664132	 -0.132963	 0.044811
C	 -1.864780	 0.980396	 -0.189448
H	 -0.026475	 -2.319265	 0.385156
C	 0.154804	 -0.237046	 -0.000077
H	 -2.389060	 1.904236	 -0.349903
C	 -0.471687	 0.995058	 -0.215616
N	 1.611208	 -0.370857	 -0.000034
C	 0.219074	 2.316945	 -0.469379
O	 2.274126	 0.622059	 -0.008063
O	 2.068510	 -1.474748	 0.007823
H	 0.832577	 2.280499	 -1.358994
H	 -0.529240	 3.089369	 -0.594930
H	 0.866338	 2.591421	 0.352105

	symmetry c1
}
set optking {
	frozen_dihedral = ("
		4 8 11 13
	")
}

ee = optimize('scf')
oeprop('DIPOLE', 'QUADRUPOLE', 'MULLIKEN_CHARGES')
f=open( 'psi4out.xyz', 'w' )
f.write( "17  " )
f.write( str(ee) + "\n" )
f.write( MOL.save_string_xyz() )
f.close()
--------------------------------------------------------------------------

    Molecular point group: c1
  Charge       = 0
  Multiplicity = 1
  Basis Set: 6-31G*
  Basis Set:
  @DF-RHF Final Energy:  -473.20646486814081
    Total Energy =                       -473.2064648681403014
    Molecular point group: c1
  Basis Set: 6-31G*
  Basis Set:
  Basis Set: 6-31G*
  Basis Set:
  @DF-RHF Final Energy:  -473.20610810119393
    Total Energy =                       -473.2061081011936494
  Basis Set: 6-31G*
  Basis Set:
  Basis Set: 6-31G*
  Basis Set:
  @DF-RHF Final Energy:  -473.20551229645616
    Total Energy =                       -473.2055122964561633
  Basis Set: 6-31G*
  Basis Set:
  Basis Set: 6-31G*
  Basis Set:
  @DF-RHF Final Energy:  -473.20646906989214
    Total Energy =                       -473.2064690698925915
  Basis Set: 6-31G*
  Basis Set:
  Basis Set: 6-31G*
  Basis Set:
  @DF-RHF Final Energy:  -473.20654108108209
    Total Energy =                       -473.2065410810826052
  Basis Set: 6-31G*
  Basis Set:
  Basis Set: 6-31G*
  Basis Set:
  @DF-RHF Final Energy:  -473.20659398602731
    Total Energy =                       -473.2065939860274284
  Basis Set: 6-31G*
  Basis Set:
  Basis Set: 6-31G*
  Basis Set:
  @DF-RHF Final Energy:  -473.20659608285501
    Total Energy =                       -473.2065960828550715
  Basis Set: 6-31G*
  Basis Set:
  Charge       = 0
  Multiplicity = 1
  Basis Set: 6-31G*
  Basis Set:

    Orbital Energies (a.u.)
    -----------------------

    Doubly Occupied:

       1A    -20.598186     2A    -20.596029     3A    -15.853059
       4A    -11.300835     5A    -11.283174     6A    -11.265729
       7A    -11.264554     8A    -11.253784     9A    -11.252937
      10A    -11.232808    11A     -1.631571    12A     -1.413450
      13A     -1.199373    14A     -1.091306    15A     -1.071515
      16A     -0.979757    17A     -0.930404    18A     -0.846393
      19A     -0.822894    20A     -0.768541    21A     -0.731358
      22A     -0.724987    23A     -0.693003    24A     -0.663999
      25A     -0.637877    26A     -0.597750    27A     -0.588819
      28A     -0.561771    29A     -0.540956    30A     -0.519879
      31A     -0.518756    32A     -0.484491    33A     -0.476597
      34A     -0.447962    35A     -0.369907    36A     -0.353416

  @DF-RHF Final Energy:  -473.20659644132127

   => Energetics <=

    Nuclear Repulsion Energy =            509.7790881899455826
    One-Electron Energy =               -1654.8357143487908161
    Two-Electron Energy =                 671.8500297175243077
    DFT Exchange-Correlation Energy =       0.0000000000000000
    Empirical Dispersion Energy =           0.0000000000000000
    PCM Polarization Energy =               0.0000000000000000
    EFP Energy =                            0.0000000000000000
    Total Energy =                       -473.2065964413208121
    Molecular point group: c1
  Basis Set: 6-31G*
  Basis Set:

  -Total Gradient:
     Atom            X                  Y                   Z
    ------   -----------------  -----------------  -----------------
       1        0.000000055426    -0.000000337011    -0.000001681840
       2        0.000005539063    -0.000000696124     0.000014146281
       3       -0.000002366407     0.000008259053    -0.000006276187
       4       -0.000028623896    -0.000088691362    -0.000438573182
       5        0.000000350318     0.000001187697    -0.000000253646
       6       -0.000012056124    -0.000010730732    -0.000016807930
       7       -0.000007634134     0.000005940031    -0.000000541077
       8       -0.000009464209     0.000126591253     0.000389007592
       9        0.000000268225    -0.000000504508     0.000000185383
      10        0.000018396127    -0.000007588469     0.000059337223
      11       -0.000005482046    -0.000024031897     0.000541007471
      12       -0.000020626720     0.000008375876    -0.000017542340
      13        0.000006871461    -0.000021094296    -0.000524392434
      14        0.000036438245     0.000016015381     0.000003388601
      15        0.000009108197    -0.000000026044    -0.000005529839
      16        0.000004303010    -0.000002219858    -0.000002393954
      17        0.000004923458    -0.000010448988     0.000006919876

  **** Optimization is complete! (in 8 steps) ****
    Final optimized geometry and variables:
    Molecular point group: c1

    Geometry (in Angstrom), charge = 0, multiplicity = 1:

    H           -2.490096818755    -2.279292092013     0.461833164770
    C           -1.936828423455    -1.375381488526     0.287884831303
    C           -2.588732269979    -0.169945985816     0.090136534713
    C           -0.558970272488    -1.404608834563     0.257063851055
    H           -3.662839552126    -0.127259835587     0.107919084405
    C           -1.864408606066     0.985751459187    -0.135011516870
    H           -0.024634269523    -2.320467128120     0.401594411519
    C            0.154484230205    -0.233872367174     0.039418114591
    H           -2.388937730635     1.909893084084    -0.293342700114
    C           -0.471517667755     0.999398411179    -0.166254124366
    N            1.610503642397    -0.366573125041     0.032869096119
    C            0.222303775072     2.317922171531    -0.428537074523
    O            2.271876520756     0.627454118924     0.032029437035
    O            2.067896858531    -1.470441509321     0.031453098819
    H            0.900162318767     2.253585757085    -1.268494288347
    H           -0.522323932983     3.074547714355    -0.641635989918
    H            0.804178323543     2.634232376233     0.426357963805

  Mulliken Charges: (a.u.)
   Center  Symbol    Alpha    Beta     Spin     Total
       1     H     0.38933  0.38933  0.00000  0.22134
       2     C     3.11200  3.11200  0.00000 -0.22399
       3     C     3.08043  3.08043  0.00000 -0.16085
       4     C     3.08418  3.08418  0.00000 -0.16837
       5     H     0.38941  0.38941  0.00000  0.22119
       6     C     3.12607  3.12607  0.00000 -0.25215
       7     H     0.36286  0.36286  0.00000  0.27427
       8     C     2.93635  2.93635  0.00000  0.12730
       9     H     0.39271  0.39271  0.00000  0.21458
      10     C     2.96297  2.96297  0.00000  0.07407
      11     N     3.24398  3.24398  0.00000  0.51204
      12     C     3.23578  3.23578  0.00000 -0.47157
      13     O     4.23691  4.23691  0.00000 -0.47382
      14     O     4.23644  4.23644  0.00000 -0.47288
      15     H     0.39918  0.39918  0.00000  0.20165
      16     H     0.41516  0.41516  0.00000  0.16968
      17     H     0.39624  0.39624  0.00000  0.20752

   Total alpha = 36.00000, Total beta = 36.00000, Total charge = -0.00000
