                              Psi4 1.0.54 Driver

  ==> Input File <==

--------------------------------------------------------------------------
set {
	reference rhf
	basis cc-pvtz
}

set_num_threads( 4 )
memory 2 gb

molecule MOL {
0 1

O	 0.843598	 1.893167	 0.457532
C	 0.037563	 1.837416	 1.322553
C	 -1.228176	 1.019986	 1.288245
O	 0.148721	 2.503678	 2.460145
C	 -1.413045	 0.229353	 0.001137
H	 -1.210245	 0.364654	 2.152941
H	 -2.055458	 1.702714	 1.452407
C	 -2.702562	 -0.586401	 0.000228
H	 -0.562552	 -0.427984	 -0.140674
H	 -1.409225	 0.911265	 -0.841790
C	 -3.953810	 0.284959	 -0.000782
H	 -2.717793	 -1.238567	 -0.869075
H	 -2.719108	 -1.238472	 0.869576
H	 -3.983727	 0.924403	 -0.876454
H	 -4.852989	 -0.320147	 -0.001515
H	 -3.985140	 0.924399	 0.874841
C	 1.293832	 3.314791	 2.627875
H	 2.193451	 2.719431	 2.578269
H	 1.199152	 3.765490	 3.602438
H	 1.334684	 4.079099	 1.866043

	symmetry c1
}
set optking {
	frozen_dihedral = ("
		9 5 8 12
	")
}

ee,wfn = optimize('scf', return_wfn=True)
oeprop( wfn, 'DIPOLE', 'QUADRUPOLE', 'MULLIKEN_CHARGES')
f=open( 'psi4out.xyz', 'w' )
f.write( "20  " )
f.write( str(ee) + "\n" )
f.write( MOL.save_string_xyz() )
f.close()
--------------------------------------------------------------------------

    Molecular point group: c1
  Charge       = 0
  Multiplicity = 1
  Basis Set: CC-PVTZ
  Basis Set:
  @DF-RHF Final Energy:  -384.08100988689057
    Total Energy =                       -384.0810098868903424
    Molecular point group: c1
  Basis Set: CC-PVTZ
  Basis Set:
  Basis Set: CC-PVTZ
  Basis Set:
  @DF-RHF Final Energy:  -384.08110630612259
    Total Energy =                       -384.0811063061229333
  Basis Set: CC-PVTZ
  Basis Set:
  Basis Set: CC-PVTZ
  Basis Set:
  @DF-RHF Final Energy:  -384.08159224108971
    Total Energy =                       -384.0815922410897656
  Basis Set: CC-PVTZ
  Basis Set:
  Basis Set: CC-PVTZ
  Basis Set:
  @DF-RHF Final Energy:  -384.08141792256424
    Total Energy =                       -384.0814179225637872
  Basis Set: CC-PVTZ
  Basis Set:
  Basis Set: CC-PVTZ
  Basis Set:
  @DF-RHF Final Energy:  -384.08160950629832
    Total Energy =                       -384.0816095062982640
  Basis Set: CC-PVTZ
  Basis Set:
  Charge       = 0
  Multiplicity = 1
  Basis Set: CC-PVTZ
  Basis Set:

    Orbital Energies (a.u.)
    -----------------------

    Doubly Occupied:

       1A    -20.596311     2A    -20.534167     3A    -11.364654
       4A    -11.278492     5A    -11.233486     6A    -11.218674
       7A    -11.217480     8A    -11.210740     9A     -1.472211
      10A     -1.365820    11A     -1.089855    12A     -1.023731
      13A     -0.968687    14A     -0.895422    15A     -0.800586
      16A     -0.766275    17A     -0.703656    18A     -0.685963
      19A     -0.676084    20A     -0.635030    21A     -0.612279
      22A     -0.596087    23A     -0.570859    24A     -0.549985
      25A     -0.534961    26A     -0.524453    27A     -0.510018
      28A     -0.475188    29A     -0.472777    30A     -0.468469
      31A     -0.459099    32A     -0.440863

  @DF-RHF Final Energy:  -384.08161157102592

   => Energetics <=

    Nuclear Repulsion Energy =            385.3342131535472959
    One-Electron Energy =               -1286.9269235519216181
    Two-Electron Energy =                 517.5110988273482917
    DFT Exchange-Correlation Energy =       0.0000000000000000
    Empirical Dispersion Energy =           0.0000000000000000
    PCM Polarization Energy =               0.0000000000000000
    EFP Energy =                            0.0000000000000000
    Total Energy =                       -384.0816115710259737
    Molecular point group: c1
  Basis Set: CC-PVTZ
  Basis Set:

  -Total Gradient:
     Atom            X                  Y                   Z
    ------   -----------------  -----------------  -----------------
       1        0.000034196402    -0.000037563571    -0.000056895867
       2       -0.000029794358     0.000080136812    -0.000008578476
       3        0.000037803518    -0.000063849948     0.000015780522
       4       -0.000019972813    -0.000024932065     0.000038668002
       5       -0.000008359122    -0.000001370479     0.000188878605
       6       -0.000013200796    -0.000007911386     0.000019580695
       7       -0.000023292067     0.000005511375    -0.000014506420
       8       -0.000099806198     0.000139578788    -0.000063717579
       9       -0.000032896778     0.000017985593    -0.000148495518
      10        0.000022034469     0.000037723436    -0.000030800806
      11        0.000042796171     0.000007378333    -0.000032124182
      12        0.000071764242    -0.000108549058     0.000068799850
      13       -0.000015572748    -0.000039869437     0.000028566040
      14       -0.000003791733     0.000023714872    -0.000016942468
      15       -0.000001795755    -0.000038923046    -0.000012424954
      16        0.000034159926     0.000010317426     0.000025719199
      17        0.000009823195    -0.000003372631    -0.000009138598
      18        0.000006936206    -0.000002905078     0.000002615314
      19       -0.000007978817     0.000000092684     0.000009072739
      20       -0.000003052939     0.000006807381    -0.000004056093

  **** Optimization is complete! (in 6 steps) ****
    Final optimized geometry and variables:
    Molecular point group: c1

    Geometry (in Angstrom), charge = 0, multiplicity = 1:

    O            1.665858003499     0.618068957945    -0.608400697785
    C            0.885986290835     0.529865114145     0.277620688491
    C           -0.373993594911    -0.297441170887     0.257794060673
    O            1.024922201669     1.164251432264     1.430485126325
    C           -0.581206777191    -1.055978541288    -1.046872636272
    H           -0.323313043723    -0.978049220712     1.101832527344
    H           -1.195465283614     0.376625982599     0.469588146973
    C           -1.817321311536    -1.956244958039    -1.044814050467
    H            0.297433213662    -1.658819796187    -1.241099271693
    H           -0.644771044504    -0.348373900409    -1.866409432350
    C           -3.149345709233    -1.212469632561    -0.985534271696
    H           -1.795718333702    -2.560688934060    -1.945649430444
    H           -1.755821859253    -2.653699764167    -0.213182266865
    H           -3.236751417416    -0.505545947191    -1.804184465936
    H           -3.979499886462    -1.905460394038    -1.058346450992
    H           -3.268368882087    -0.662377204202    -0.059299124345
    C            2.167722299976     1.980470498820     1.588398393054
    H            3.070406989601     1.395017296180     1.495279346341
    H            2.098000351178     2.401890751458     2.578078669740
    H            2.179910182976     2.766905485723     0.848378832724

  Mulliken Charges: (a.u.)
   Center  Symbol    Alpha    Beta     Spin     Total
       1     O     4.19680  4.19680  0.00000 -0.39360
       2     C     2.80481  2.80481  0.00000  0.39037
       3     C     3.10206  3.10206  0.00000 -0.20412
       4     O     4.14712  4.14712  0.00000 -0.29424
       5     C     3.08864  3.08864  0.00000 -0.17727
       6     H     0.44016  0.44016  0.00000  0.11969
       7     H     0.43933  0.43933  0.00000  0.12133
       8     C     3.09421  3.09421  0.00000 -0.18843
       9     H     0.44115  0.44115  0.00000  0.11770
      10     H     0.44662  0.44662  0.00000  0.10676
      11     C     3.15266  3.15266  0.00000 -0.30532
      12     H     0.44570  0.44570  0.00000  0.10861
      13     H     0.45512  0.45512  0.00000  0.08975
      14     H     0.45318  0.45318  0.00000  0.09364
      15     H     0.44556  0.44556  0.00000  0.10887
      16     H     0.45513  0.45513  0.00000  0.08974
      17     C     3.03789  3.03789  0.00000 -0.07578
      18     H     0.45426  0.45426  0.00000  0.09149
      19     H     0.44526  0.44526  0.00000  0.10949
      20     H     0.45433  0.45433  0.00000  0.09133

   Total alpha = 32.00000, Total beta = 32.00000, Total charge = -0.00000

*** Psi4 exiting successfully. Buy a developer a beer!
