  ==> Input File <==

--------------------------------------------------------------------------
set {
	reference rhf
	basis cc-pvtz
}

set_num_threads( 4 )
memory 2 gb

molecule MOL {
0 1

H	 -2.498963	 -0.741158	 -0.729149
O	 -2.346257	 -0.289210	 0.080372
C	 -1.183935	 0.486039	 -0.009831
C	 0.062853	 -0.375310	 0.027457
H	 -1.178881	 1.094526	 -0.908634
H	 -1.184406	 1.155156	 0.838676
O	 1.172093	 0.457955	 -0.054438
H	 0.052476	 -1.081302	 -0.804627
H	 0.076323	 -0.955658	 0.947560
C	 2.343140	 -0.174039	 -0.455004
H	 2.240540	 -0.609643	 -1.446466
H	 3.127724	 0.567895	 -0.480477
H	 2.627083	 -0.961448	 0.239175

	symmetry c1
}
set optking {
	frozen_dihedral = ("
		10 7 4 8
	")
}

ee = optimize('scf')
oeprop('DIPOLE', 'QUADRUPOLE', 'MULLIKEN_CHARGES')
f=open( 'psi4out.xyz', 'w' )
f.write( "13  " )
f.write( str(ee) + "\n" )
f.write( MOL.save_string_xyz() )
f.close()
--------------------------------------------------------------------------

    Molecular point group: c1
  Charge       = 0
  Multiplicity = 1
  Basis Set: CC-PVTZ
  Basis Set:
  @DF-RHF Final Energy:  -268.06134093457700
    Total Energy =                       -268.0613409345770037
    Molecular point group: c1
  Basis Set: CC-PVTZ
  Basis Set:
  Basis Set: CC-PVTZ
  Basis Set:
  @DF-RHF Final Energy:  -268.06139824090104
    Total Energy =                       -268.0613982409010418
  Basis Set: CC-PVTZ
  Basis Set:
  Charge       = 0
  Multiplicity = 1
  Basis Set: CC-PVTZ
  Basis Set:

    Orbital Energies (a.u.)
    -----------------------

    Doubly Occupied:

       1A    -20.555403     2A    -20.553039     3A    -11.269205
       4A    -11.268277     5A    -11.267667     6A     -1.391089
       7A     -1.369330     8A     -1.019667     9A     -0.914687
      10A     -0.843131    11A     -0.712247    12A     -0.673755
      13A     -0.663808    14A     -0.641968    15A     -0.594171
      16A     -0.569867    17A     -0.552228    18A     -0.491530
      19A     -0.480031    20A     -0.447232    21A     -0.420517

  @DF-RHF Final Energy:  -268.06141283175248

   => Energetics <=

    Nuclear Repulsion Energy =            190.4725090966461210
    One-Electron Energy =                -743.6701414247245339
    Two-Electron Energy =                 285.1362194963259640
    DFT Exchange-Correlation Energy =       0.0000000000000000
    Empirical Dispersion Energy =           0.0000000000000000
    PCM Polarization Energy =               0.0000000000000000
    EFP Energy =                            0.0000000000000000
    Total Energy =                       -268.0614128317524205
    Molecular point group: c1
  Basis Set: CC-PVTZ
  Basis Set:

  -Total Gradient:
     Atom            X                  Y                   Z
    ------   -----------------  -----------------  -----------------
       1       -0.000032627842    -0.000031302289    -0.000006809959
       2        0.000079422436    -0.000041718156    -0.000041623338
       3       -0.000061122772     0.000153675787     0.000079882056
       4       -0.001745746946     0.002068124584    -0.002360545241
       5        0.000010262952    -0.000022893639    -0.000034259707
       6       -0.000009080908     0.000023359949    -0.000009064514
       7        0.000897866764    -0.000944357742     0.002916311201
       8        0.001194113281    -0.001491703188     0.001349097666
       9        0.000023472534    -0.000053535597    -0.000061775456
      10       -0.000317557609     0.000286519385    -0.001852255425
      11        0.000010767708     0.000013965002    -0.000002594404
      12       -0.000049773439     0.000023199404     0.000020140284
      13        0.000000003841     0.000016666499     0.000003496836

  **** Optimization is complete! (in 3 steps) ****
    Final optimized geometry and variables:
    Molecular point group: c1

    Geometry (in Angstrom), charge = 0, multiplicity = 1:

    H           -2.509519917760    -0.756366433157    -0.591201733387
    O           -2.338382084366    -0.286946269547     0.204601082633
    C           -1.175901205241     0.482033315771     0.073327544215
    C            0.068976596137    -0.382179909995     0.097231914449
    H           -1.190611671628     1.075542696067    -0.835514354295
    H           -1.153148960973     1.165396715363     0.910144165965
    O            1.184663066244     0.446698601450     0.034649758315
    H            0.063381369629    -1.083703074518    -0.737393310802
    H            0.080642763543    -0.976665499051     1.008422147657
    C            2.363060761918    -0.179414963834    -0.353546321292
    H            2.278101725447    -0.598845132398    -1.353182134713
    H            3.146929111839     0.563734289776    -0.352489304135
    H            2.637985655810    -0.977153157181     0.332923282476

  Mulliken Charges: (a.u.)
   Center  Symbol    Alpha    Beta     Spin     Total
       1     H     0.39473  0.39473  0.00000  0.21054
       2     O     4.20141  4.20141  0.00000 -0.40283
       3     C     2.97311  2.97311  0.00000  0.05379
       4     C     2.96577  2.96577  0.00000  0.06846
       5     H     0.46774  0.46774  0.00000  0.06453
       6     H     0.45230  0.45230  0.00000  0.09540
       7     O     4.17653  4.17653  0.00000 -0.35305
       8     H     0.48392  0.48392  0.00000  0.03216
       9     H     0.46544  0.46544  0.00000  0.06913
      10     C     3.03160  3.03160  0.00000 -0.06319
      11     H     0.47083  0.47083  0.00000  0.05834
      12     H     0.44650  0.44650  0.00000  0.10701
      13     H     0.47014  0.47014  0.00000  0.05973

   Total alpha = 21.00000, Total beta = 21.00000, Total charge = -0.00000
