                              Psi4 1.0.54 Driver

  ==> Input File <==

--------------------------------------------------------------------------
set {
	reference rhf
	basis cc-pvtz
}

set_num_threads( 4 )
memory 2 gb

molecule MOL {
0 1

H	 -0.788679	 -2.513385	 0.260963
N	 -0.047143	 -1.855477	 0.147583
C	 -0.561396	 -0.500007	 0.035200
H	 0.454500	 -2.115834	 -0.675767
C	 0.575129	 0.507849	 -0.048832
H	 -1.154621	 -0.295337	 0.920306
H	 -1.222511	 -0.365611	 -0.822284
C	 1.951750	 -0.141983	 0.035101
H	 0.478254	 1.061643	 -0.975981
H	 0.467676	 1.231891	 0.755499
H	 2.101550	 -0.848142	 -0.774949
H	 2.738260	 0.600794	 -0.026526
H	 2.078939	 -0.679792	 0.968824

	symmetry c1
}
set optking {
	frozen_dihedral = ("
		6 3 5 9
	")
}

ee,wfn = optimize('scf', return_wfn=True)
oeprop( wfn, 'DIPOLE', 'QUADRUPOLE', 'MULLIKEN_CHARGES')
f=open( 'psi4out.xyz', 'w' )
f.write( "13  " )
f.write( str(ee) + "\n" )
f.write( MOL.save_string_xyz() )
f.close()
--------------------------------------------------------------------------

    Molecular point group: c1
  Charge       = 0
  Multiplicity = 1
  Basis Set: CC-PVTZ
  Basis Set:
  @DF-RHF Final Energy:  -173.33986070850770
    Total Energy =                       -173.3398607085076151
    Molecular point group: c1
  Basis Set: CC-PVTZ
  Basis Set:
  Basis Set: CC-PVTZ
  Basis Set:
  @DF-RHF Final Energy:  -173.34015893343266
    Total Energy =                       -173.3401589334325479
  Basis Set: CC-PVTZ
  Basis Set:
  Basis Set: CC-PVTZ
  Basis Set:
  @DF-RHF Final Energy:  -173.34273858314651
    Total Energy =                       -173.3427385831465983
  Basis Set: CC-PVTZ
  Basis Set:
  Basis Set: CC-PVTZ
  Basis Set:
  @DF-RHF Final Energy:  -173.34298128565536
    Total Energy =                       -173.3429812856554690
  Basis Set: CC-PVTZ
  Basis Set:
  Basis Set: CC-PVTZ
  Basis Set:
  @DF-RHF Final Energy:  -173.34299922123111
    Total Energy =                       -173.3429992212310538
  Basis Set: CC-PVTZ
  Basis Set:
  Basis Set: CC-PVTZ
  Basis Set:
  @DF-RHF Final Energy:  -173.34300405282829
    Total Energy =                       -173.3430040528282632
  Basis Set: CC-PVTZ
  Basis Set:
  Charge       = 0
  Multiplicity = 1
  Basis Set: CC-PVTZ
  Basis Set:

    Orbital Energies (a.u.)
    -----------------------

    Doubly Occupied:

       1A    -15.526848     2A    -11.239287     3A    -11.210525
       4A    -11.199902     5A     -1.177346     6A     -1.026135
       7A     -0.906739     8A     -0.785930     9A     -0.669357
      10A     -0.631709    11A     -0.591253    12A     -0.560811
      13A     -0.537172    14A     -0.489791    15A     -0.474289
      16A     -0.459527    17A     -0.380962

  @DF-RHF Final Energy:  -173.34300479218683

   => Energetics <=

    Nuclear Repulsion Energy =            133.8537257083051486
    One-Electron Energy =                -498.6582978226630871
    Two-Electron Energy =                 191.4615673221711631
    DFT Exchange-Correlation Energy =       0.0000000000000000
    Empirical Dispersion Energy =           0.0000000000000000
    PCM Polarization Energy =               0.0000000000000000
    EFP Energy =                            0.0000000000000000
    Total Energy =                       -173.3430047921867754
    Molecular point group: c1
  Basis Set: CC-PVTZ
  Basis Set:

  -Total Gradient:
     Atom            X                  Y                   Z
    ------   -----------------  -----------------  -----------------
       1        0.000001316700     0.000021529225    -0.000009943772
       2        0.000009873858    -0.000008922622     0.000011326058
       3        0.000749232415    -0.000899145524     0.001193318447
       4        0.000007748346    -0.000001461822    -0.000008795497
       5        0.000741844665    -0.001176197419    -0.000980548689
       6       -0.000769609501     0.000959116315    -0.000848906411
       7        0.000008473411    -0.000010839745     0.000003961264
       8       -0.000002934818     0.000010503550     0.000023387296
       9       -0.000758416647     0.001124643475     0.000631821789
      10        0.000003558130    -0.000012951358     0.000000704531
      11       -0.000002409480    -0.000011289067    -0.000014783764
      12        0.000011867502     0.000005750261    -0.000008441291
      13       -0.000000544577    -0.000000735268     0.000006900038

  **** Optimization is complete! (in 7 steps) ****
    Final optimized geometry and variables:
    Molecular point group: c1

    Geometry (in Angstrom), charge = 0, multiplicity = 1:

    H           -1.560202172622    -1.818298440961     0.340205088287
    N           -0.726534509924    -1.306482718898     0.144115014186
    C           -1.029810798271     0.108355513770    -0.018304078868
    H           -0.337093065450    -1.693358679467    -0.689396834586
    C            0.223180703835     1.013319033381    -0.127163695271
    H           -1.609209978602     0.411865274266     0.844650871254
    H           -1.666216711013     0.293484374008    -0.882277734362
    C            1.574582615763     0.321173593725     0.030627346930
    H            0.201130972299     1.534922640016    -1.078178593279
    H            0.150863147416     1.789644468356     0.626972963121
    H            1.747848572908    -0.414720557385    -0.746173877684
    H            2.370802901364     1.054606037693    -0.033488948602
    H            1.652922187956    -0.185162230627     0.982687872570

  Mulliken Charges: (a.u.)
   Center  Symbol    Alpha    Beta     Spin     Total
       1     H     0.42930  0.42930  0.00000  0.14140
       2     N     3.68485  3.68485  0.00000 -0.36969
       3     C     3.03355  3.03355  0.00000 -0.06710
       4     H     0.43131  0.43131  0.00000  0.13739
       5     C     3.09206  3.09206  0.00000 -0.18412
       6     H     0.45645  0.45645  0.00000  0.08709
       7     H     0.46274  0.46274  0.00000  0.07453
       8     C     3.14657  3.14657  0.00000 -0.29315
       9     H     0.45317  0.45317  0.00000  0.09366
      10     H     0.45347  0.45347  0.00000  0.09305
      11     H     0.46018  0.46018  0.00000  0.07965
      12     H     0.45085  0.45085  0.00000  0.09830
      13     H     0.44551  0.44551  0.00000  0.10898

   Total alpha = 17.00000, Total beta = 17.00000, Total charge = -0.00000

*** Psi4 exiting successfully. Buy a developer a beer!
