                              Psi4 1.0.54 Driver

  ==> Input File <==

--------------------------------------------------------------------------
set {
	reference rhf
	basis cc-pvtz
}

set_num_threads( 4 )
memory 2 gb

molecule MOL {
0 1

H	 3.632303	 -1.038326	 -0.345330
O	 2.824271	 -1.154299	 0.131461
C	 2.076458	 -0.067370	 -0.038225
C	 0.626018	 -0.337582	 0.258241
O	 2.538288	 0.965419	 -0.381593
C	 -0.267326	 0.883135	 0.076490
H	 0.325620	 -1.161483	 -0.378003
H	 0.574537	 -0.713685	 1.275261
C	 -1.726822	 0.642622	 0.463839
H	 -0.210803	 1.217591	 -0.953497
H	 0.129920	 1.693110	 0.675679
C	 -2.480891	 -0.340606	 -0.429852
H	 -2.243098	 1.597649	 0.438609
H	 -1.776542	 0.301208	 1.495542
C	 -3.955933	 -0.460128	 -0.060472
H	 -2.393755	 -0.020485	 -1.464726
H	 -2.024244	 -1.323637	 -0.374360
H	 -4.467673	 -1.160944	 -0.709827
H	 -4.458917	 0.497287	 -0.144505
H	 -4.076458	 -0.806900	 0.960497

	symmetry c1
}
set optking {
	frozen_dihedral = ("
		1 2 3 5
	")
}

ee,wfn = optimize('scf', return_wfn=True)
oeprop( wfn, 'DIPOLE', 'QUADRUPOLE', 'MULLIKEN_CHARGES')
f=open( 'psi4out.xyz', 'w' )
f.write( "20  " )
f.write( str(ee) + "\n" )
f.write( MOL.save_string_xyz() )
f.close()
--------------------------------------------------------------------------

    Molecular point group: c1
  Charge       = 0
  Multiplicity = 1
  Basis Set: CC-PVTZ
  Basis Set:
  @DF-RHF Final Energy:  -384.09268181767925
    Total Energy =                       -384.0926818176792494
    Molecular point group: c1
  Basis Set: CC-PVTZ
  Basis Set:
  Basis Set: CC-PVTZ
  Basis Set:
  @DF-RHF Final Energy:  -384.08940131225063
    Total Energy =                       -384.0894013122501747
  Basis Set: CC-PVTZ
  Basis Set:
  Basis Set: CC-PVTZ
  Basis Set:
  @DF-RHF Final Energy:  -384.09261993879556
    Total Energy =                       -384.0926199387949396
  Basis Set: CC-PVTZ
  Basis Set:
  Basis Set: CC-PVTZ
  Basis Set:
  @DF-RHF Final Energy:  -384.09289703665843
    Total Energy =                       -384.0928970366580870
  Basis Set: CC-PVTZ
  Basis Set:
  @DF-RHF Final Energy:  -384.09290546375229
    Total Energy =                       -384.0929054637520608
  @DF-RHF Final Energy:  -384.09290957863459
    Total Energy =                       -384.0929095786341350
  Basis Set: CC-PVTZ
  Basis Set:
  @DF-RHF Final Energy:  -384.09290288306158
    Total Energy =                       -384.0929028830615835
  Basis Set: CC-PVTZ
  Basis Set:
  Basis Set: CC-PVTZ
  Basis Set:
  @DF-RHF Final Energy:  -384.09290695973772
    Total Energy =                       -384.0929069597376611
  Basis Set: CC-PVTZ
  Basis Set:
  Basis Set: CC-PVTZ
  Basis Set:
  @DF-RHF Final Energy:  -384.09291267538651
    Total Energy =                       -384.0929126753867422
  Basis Set: CC-PVTZ
  Basis Set:
  Charge       = 0
  Multiplicity = 1
  Basis Set: CC-PVTZ
  Basis Set:

    Orbital Energies (a.u.)
    -----------------------

    Doubly Occupied:

       1A    -20.602111     2A    -20.541334     3A    -11.373435
       4A    -11.238505     5A    -11.220979     6A    -11.218853
       7A    -11.218226     8A    -11.210645     9A     -1.475636
      10A     -1.369349    11A     -1.097495    12A     -1.042149
      13A     -0.962297    14A     -0.870051    15A     -0.818067
      16A     -0.778152    17A     -0.704210    18A     -0.692193
      19A     -0.666838    20A     -0.634695    21A     -0.611055
      22A     -0.593696    23A     -0.571679    24A     -0.556448
      25A     -0.543854    26A     -0.512779    27A     -0.496802
      28A     -0.484771    29A     -0.471332    30A     -0.468503
      31A     -0.458484    32A     -0.446099

  @DF-RHF Final Energy:  -384.09291277258603

   => Energetics <=

    Nuclear Repulsion Energy =            376.4974253075320121
    One-Electron Energy =               -1269.2792312254032367
    Two-Electron Energy =                 508.6888931452851921
    DFT Exchange-Correlation Energy =       0.0000000000000000
    Empirical Dispersion Energy =           0.0000000000000000
    PCM Polarization Energy =               0.0000000000000000
    EFP Energy =                            0.0000000000000000
    Total Energy =                       -384.0929127725860326
    Molecular point group: c1
  Basis Set: CC-PVTZ
  Basis Set:

  -Total Gradient:
     Atom            X                  Y                   Z
    ------   -----------------  -----------------  -----------------
       1       -0.002787741426    -0.003384589544    -0.005293002076
       2        0.003657277287     0.005218395541     0.009373946687
       3       -0.001522535655    -0.003807278862    -0.010203707817
       4        0.000030822209     0.000037231431     0.000127654708
       5        0.000612319267     0.001944741324     0.005996627025
       6        0.000003760742    -0.000007048110    -0.000007651179
       7        0.000002604528     0.000004966932     0.000003447414
       8        0.000000991029    -0.000004585268     0.000003256926
       9        0.000006548578    -0.000008460951     0.000008112976
      10       -0.000002002487    -0.000000235852     0.000000978657
      11       -0.000001737103    -0.000000532874    -0.000001296501
      12       -0.000005792491     0.000010740707    -0.000011365723
      13        0.000006139924    -0.000003619801    -0.000001783853
      14       -0.000000380236     0.000000935997    -0.000000193613
      15        0.000001918969    -0.000005445345     0.000005312362
      16        0.000000280440     0.000000701622    -0.000002901249
      17       -0.000005341152     0.000005865917     0.000002471724
      18        0.000001686608    -0.000000763590     0.000002558363
      19        0.000003253726    -0.000002651280    -0.000002745431
      20       -0.000002072759     0.000001632000     0.000000280600

  **** Optimization is complete! (in 10 steps) ****
    Final optimized geometry and variables:
    Molecular point group: c1

    Geometry (in Angstrom), charge = 0, multiplicity = 1:

    H            3.666866755010    -1.038979713587    -0.248755816255
    O            2.842505766657    -1.129367678719     0.203852271542
    C            2.073939797166    -0.078813655224    -0.085621357677
    C            0.628458770639    -0.341827931591     0.239082668149
    O            2.521295273236     0.933322796868    -0.499290142533
    C           -0.263098829424     0.882952766862     0.077575825482
    H            0.312995525239    -1.160779120572    -0.397241669460
    H            0.593238440224    -0.725066538786     1.253791599786
    C           -1.716798523993     0.646676326337     0.488805136204
    H           -0.222219077669     1.221999863059    -0.951433701862
    H            0.147174526972     1.688859918141     0.673974619583
    C           -2.490721080802    -0.327574100149    -0.397836455411
    H           -2.228999118514     1.604168955652     0.478241845217
    H           -1.750433127325     0.299209479199     1.519120882003
    C           -3.958178931422    -0.448158976399     0.000580606109
    H           -2.424075645324     0.001195228409    -1.431555035218
    H           -2.034752313558    -1.311780441979    -0.359963120686
    H           -4.483449913511    -1.145172635014    -0.642036649608
    H           -4.462069341498     0.509991844288    -0.068225566044
    H           -4.058442167302    -0.800275701700     1.021914746506

  Mulliken Charges: (a.u.)
   Center  Symbol    Alpha    Beta     Spin     Total
       1     H     0.38147  0.38147  0.00000  0.23707
       2     O     4.16305  4.16305  0.00000 -0.32609
       3     C     2.80406  2.80406  0.00000  0.39187
       4     C     3.11132  3.11132  0.00000 -0.22263
       5     O     4.18814  4.18814  0.00000 -0.37628
       6     C     3.09293  3.09293  0.00000 -0.18586
       7     H     0.43918  0.43918  0.00000  0.12165
       8     H     0.43705  0.43705  0.00000  0.12591
       9     C     3.09898  3.09898  0.00000 -0.19795
      10     H     0.44508  0.44508  0.00000  0.10985
      11     H     0.43989  0.43989  0.00000  0.12022
      12     C     3.08685  3.08685  0.00000 -0.17370
      13     H     0.44556  0.44556  0.00000  0.10888
      14     H     0.45385  0.45385  0.00000  0.09230
      15     C     3.14955  3.14955  0.00000 -0.29911
      16     H     0.45252  0.45252  0.00000  0.09495
      17     H     0.45443  0.45443  0.00000  0.09114
      18     H     0.44777  0.44777  0.00000  0.10445
      19     H     0.45357  0.45357  0.00000  0.09286
      20     H     0.45476  0.45476  0.00000  0.09048

   Total alpha = 32.00000, Total beta = 32.00000, Total charge =  0.00000

*** Psi4 exiting successfully. Buy a developer a beer!
