                              Psi4 1.0.54 Driver

  ==> Input File <==

--------------------------------------------------------------------------
set {
	reference rhf
	basis cc-pvtz
}

set_num_threads( 4 )
memory 2 gb

molecule MOL {
0 1

H	 2.539627	 -0.333470	 -1.387914
O	 1.717494	 0.116400	 -1.326515
C	 1.362648	 0.293034	 0.020667
C	 0.027642	 1.012027	 0.090274
H	 2.113265	 0.888222	 0.534566
H	 1.307137	 -0.666599	 0.527110
C	 -1.138737	 0.285728	 -0.581921
H	 0.148092	 1.987101	 -0.370410
H	 -0.203761	 1.185879	 1.138340
C	 -1.933983	 -0.631436	 0.343653
H	 -0.763151	 -0.285569	 -1.422081
H	 -1.808359	 1.035291	 -0.992333
H	 -2.789188	 -1.049673	 -0.174718
H	 -1.335629	 -1.461368	 0.700418
H	 -2.305435	 -0.092167	 1.209725

	symmetry c1
}
set optking {
	frozen_dihedral = ("
		8 4 7 11
	")
}

ee,wfn = optimize('scf', return_wfn=True)
oeprop( wfn, 'DIPOLE', 'QUADRUPOLE', 'MULLIKEN_CHARGES')
f=open( 'psi4out.xyz', 'w' )
f.write( "15  " )
f.write( str(ee) + "\n" )
f.write( MOL.save_string_xyz() )
f.close()
--------------------------------------------------------------------------

    Molecular point group: c1
  Charge       = 0
  Multiplicity = 1
  Basis Set: CC-PVTZ
  Basis Set:
  @DF-RHF Final Energy:  -232.23549187447566
    Total Energy =                       -232.2354918744755992
    Molecular point group: c1
  Basis Set: CC-PVTZ
  Basis Set:
  Basis Set: CC-PVTZ
  Basis Set:
  @DF-RHF Final Energy:  -232.23593820391000
    Total Energy =                       -232.2359382039099955
  Basis Set: CC-PVTZ
  Basis Set:
  Basis Set: CC-PVTZ
  Basis Set:
  @DF-RHF Final Energy:  -232.23609479557052
    Total Energy =                       -232.2360947955705797
  Basis Set: CC-PVTZ
  Basis Set:
  Basis Set: CC-PVTZ
  Basis Set:
  @DF-RHF Final Energy:  -232.23610078670163
    Total Energy =                       -232.2361007867013996
  Basis Set: CC-PVTZ
  Basis Set:
  Basis Set: CC-PVTZ
  Basis Set:
  @DF-RHF Final Energy:  -232.23610218872187
    Total Energy =                       -232.2361021887218726
  Basis Set: CC-PVTZ
  Basis Set:
  Charge       = 0
  Multiplicity = 1
  Basis Set: CC-PVTZ
  Basis Set:

    Orbital Energies (a.u.)
    -----------------------

    Doubly Occupied:

       1A    -20.546540     2A    -11.266414     3A    -11.210565
       4A    -11.207619     5A    -11.204371     6A     -1.364493
       7A     -1.065529     8A     -0.972959     9A     -0.864580
      10A     -0.781917    11A     -0.706713    12A     -0.650751
      13A     -0.606113    14A     -0.579203    15A     -0.564022
      16A     -0.535769    17A     -0.506456    18A     -0.476633
      19A     -0.469516    20A     -0.454888    21A     -0.432658

  @DF-RHF Final Energy:  -232.23610229958695

   => Energetics <=

    Nuclear Repulsion Energy =            190.3487910210529321
    One-Electron Energy =                -692.2343679503453586
    Two-Electron Energy =                 269.6494746297054803
    DFT Exchange-Correlation Energy =       0.0000000000000000
    Empirical Dispersion Energy =           0.0000000000000000
    PCM Polarization Energy =               0.0000000000000000
    EFP Energy =                            0.0000000000000000
    Total Energy =                       -232.2361022995869462
    Molecular point group: c1
  Basis Set: CC-PVTZ
  Basis Set:

  -Total Gradient:
     Atom            X                  Y                   Z
    ------   -----------------  -----------------  -----------------
       1        0.000002209743     0.000005755715    -0.000004908098
       2        0.000011778467    -0.000001116865     0.000001780755
       3       -0.000000295992    -0.000022274559    -0.000011279482
       4        0.002466597397    -0.002021859114    -0.002064463846
       5        0.000007327110    -0.000000637560     0.000002133764
       6        0.000004459476    -0.000006118248     0.000008291774
       7       -0.000934931342     0.003187795838    -0.001743618906
       8       -0.001928067168     0.001212894938     0.001991389775
       9       -0.000008456390    -0.000002852591    -0.000002849191
      10       -0.000013771847    -0.000007036551     0.000011146052
      11        0.000390607811    -0.002353055173     0.001803934632
      12        0.000004331513     0.000000231732     0.000003719507
      13        0.000000626215     0.000003226201     0.000003857381
      14        0.000001726738    -0.000000048736    -0.000004169046
      15       -0.000004141732     0.000005094973     0.000005034928

  **** Optimization is complete! (in 6 steps) ****
    Final optimized geometry and variables:
    Molecular point group: c1

    Geometry (in Angstrom), charge = 0, multiplicity = 1:

    H            2.499900191129    -0.529767849355    -1.030758890241
    O            1.709714330929    -0.024674654166    -0.981419266607
    C            1.268478463729     0.054147496066     0.349294981742
    C           -0.043554905591     0.813764266586     0.389021623301
    H            2.004291826950     0.570457839112     0.960404188037
    H            1.139056189842    -0.942802688932     0.765076043295
    C           -1.210986019276     0.094936998961    -0.300657278659
    H            0.108440958049     1.792303128893    -0.052607869671
    H           -0.294308764660     0.994378961421     1.431361886603
    C           -1.974716370827    -0.844021556628     0.631609999166
    H           -0.829059667653    -0.477621201121    -1.137214895201
    H           -1.899707389966     0.827447128568    -0.705733332092
    H           -2.765157294831    -1.362941124439     0.101254095426
    H           -1.321767765332    -1.596973309650     1.060899683421
    H           -2.429437785661    -0.297731389653     1.451548373833

  Mulliken Charges: (a.u.)
   Center  Symbol    Alpha    Beta     Spin     Total
       1     H     0.39544  0.39544  0.00000  0.20913
       2     O     4.19891  4.19891  0.00000 -0.39781
       3     C     2.97260  2.97260  0.00000  0.05479
       4     C     3.09254  3.09254  0.00000 -0.18508
       5     H     0.46443  0.46443  0.00000  0.07115
       6     H     0.47351  0.47351  0.00000  0.05298
       7     C     3.09091  3.09091  0.00000 -0.18182
       8     H     0.44676  0.44676  0.00000  0.10647
       9     H     0.45706  0.45706  0.00000  0.08588
      10     C     3.14922  3.14922  0.00000 -0.29844
      11     H     0.44622  0.44622  0.00000  0.10756
      12     H     0.44975  0.44975  0.00000  0.10050
      13     H     0.44849  0.44849  0.00000  0.10302
      14     H     0.45753  0.45753  0.00000  0.08494
      15     H     0.45663  0.45663  0.00000  0.08673

   Total alpha = 21.00000, Total beta = 21.00000, Total charge = -0.00000

*** Psi4 exiting successfully. Buy a developer a beer!
