  ==> Input File <==

--------------------------------------------------------------------------
set {
	reference rhf
	basis cc-pvtz
}

set_num_threads( 4 )
memory 2 gb

molecule MOL {
0 1

H	 -1.835082	 1.385983	 0.000069
C	 -1.300516	 0.441153	 -0.000028
O	 -0.006604	 0.654344	 -0.000106
O	 -1.828920	 -0.612308	 0.000113
C	 0.852093	 -0.482521	 -0.000161
C	 1.546496	 -0.535802	 -1.340186
H	 0.258892	 -1.368251	 0.177469
H	 1.558638	 -0.386589	 0.811969
H	 0.827014	 -0.627924	 -2.143822
H	 2.209377	 -1.392165	 -1.373127
H	 2.133276	 0.358689	 -1.506147

	symmetry c1
}
set optking {
	frozen_dihedral = ("
		7 5 3 2
	")
}

ee = optimize('scf')
oeprop('DIPOLE', 'QUADRUPOLE', 'MULLIKEN_CHARGES')
f=open( 'psi4out.xyz', 'w' )
f.write( "11  " )
f.write( str(ee) + "\n" )
f.write( MOL.save_string_xyz() )
f.close()
--------------------------------------------------------------------------

    Molecular point group: c1
  Charge       = 0
  Multiplicity = 1
  Basis Set: CC-PVTZ
  Basis Set:
  @DF-RHF Final Energy:  -266.92909448636692
    Total Energy =                       -266.9290944863668074
    Molecular point group: c1
  Basis Set: CC-PVTZ
  Basis Set:
  Basis Set: CC-PVTZ
  Basis Set:
  @DF-RHF Final Energy:  -266.92958131654382
    Total Energy =                       -266.9295813165437039
  Basis Set: CC-PVTZ
  Basis Set:
  Basis Set: CC-PVTZ
  Basis Set:
  @DF-RHF Final Energy:  -266.92918328540577
    Total Energy =                       -266.9291832854059408
  Basis Set: CC-PVTZ
  Basis Set:
  Basis Set: CC-PVTZ
  Basis Set:
  @DF-RHF Final Energy:  -266.93001440492549
    Total Energy =                       -266.9300144049254868
  Basis Set: CC-PVTZ
  Basis Set:
  Basis Set: CC-PVTZ
  Basis Set:
  @DF-RHF Final Energy:  -266.93004908653495
    Total Energy =                       -266.9300490865350639
  Basis Set: CC-PVTZ
  Basis Set:
  Charge       = 0
  Multiplicity = 1
  Basis Set: CC-PVTZ
  Basis Set:

    Orbital Energies (a.u.)
    -----------------------

    Doubly Occupied:

       1A    -20.604556     2A    -20.544869     3A    -11.371400
       4A    -11.288661     5A    -11.224286     6A     -1.477022
       7A     -1.377600     8A     -1.051934     9A     -0.909930
      10A     -0.799390    11A     -0.748879    12A     -0.687573
      13A     -0.664504    14A     -0.618114    15A     -0.573418
      16A     -0.550123    17A     -0.537085    18A     -0.503307
      19A     -0.458793    20A     -0.458526

  @DF-RHF Final Energy:  -266.93005539040473

   => Energetics <=

    Nuclear Repulsion Energy =            180.5144361700709226
    One-Electron Energy =                -721.9890455191458614
    Two-Electron Energy =                 274.5445539586702353
    DFT Exchange-Correlation Energy =       0.0000000000000000
    Empirical Dispersion Energy =           0.0000000000000000
    PCM Polarization Energy =               0.0000000000000000
    EFP Energy =                            0.0000000000000000
    Total Energy =                       -266.9300553904047320
    Molecular point group: c1
  Basis Set: CC-PVTZ
  Basis Set:

  -Total Gradient:
     Atom            X                  Y                   Z
    ------   -----------------  -----------------  -----------------
       1        0.000032351705    -0.000004485258     0.000022476584
       2       -0.000045492588    -0.000073960102     0.000558398464
       3        0.000012990409     0.000035112017    -0.001176493477
       4       -0.000014484195     0.000018179250     0.000037953886
       5        0.000196367340     0.000010021977     0.001206985134
       6       -0.000054178247     0.000033495481     0.000061515764
       7       -0.000118676175    -0.000041622515    -0.000741333931
       8        0.000049343419    -0.000011163383     0.000017823918
       9       -0.000011657426    -0.000000686568    -0.000024647688
      10       -0.000039277183     0.000023872682     0.000030315148
      11       -0.000007287060     0.000011236419     0.000007006195

  **** Optimization is complete! (in 6 steps) ****
    Final optimized geometry and variables:
    Molecular point group: c1

    Geometry (in Angstrom), charge = 0, multiplicity = 1:

    H           -1.659205254568     1.527626161674     0.331739940498
    C           -1.158661339239     0.565050489876     0.294621898253
    O            0.141442597320     0.744340657248     0.281357601909
    O           -1.729214068898    -0.465746380954     0.269357525455
    C            1.012720240986    -0.385061696829     0.250353228638
    C            1.737357288912    -0.436599289248    -1.077027525753
    H            0.440564916053    -1.281771551439     0.418191112808
    H            1.705763676460    -0.246705821155     1.067448529004
    H            1.038594577814    -0.586353821580    -1.890732680837
    H            2.441725167884    -1.260388670790    -1.077203046420
    H            2.282922441048     0.481517584333    -1.254635806431

  Mulliken Charges: (a.u.)
   Center  Symbol    Alpha    Beta     Spin     Total
       1     H     0.45013  0.45013  0.00000  0.09973
       2     C     2.83968  2.83968  0.00000  0.32065
       3     O     4.14969  4.14969  0.00000 -0.29938
       4     O     4.19655  4.19655  0.00000 -0.39309
       5     C     2.98125  2.98125  0.00000  0.03750
       6     C     3.13654  3.13654  0.00000 -0.27308
       7     H     0.44391  0.44391  0.00000  0.11218
       8     H     0.44893  0.44893  0.00000  0.10215
       9     H     0.44923  0.44923  0.00000  0.10153
      10     H     0.45339  0.45339  0.00000  0.09321
      11     H     0.45070  0.45070  0.00000  0.09860

   Total alpha = 20.00000, Total beta = 20.00000, Total charge = -0.00000
