  ==> Input File <==

--------------------------------------------------------------------------
set {
	reference rhf
	basis 6-31G*
}

set_num_threads( 4 )
memory 2 gb

molecule MOL {
0 1

H	 -0.784465	 4.447774	 0.616431
O	 -0.101902	 3.844857	 0.358548
C	 -0.546125	 2.524403	 0.536481
C	 0.571087	 1.586992	 0.113581
H	 -0.808631	 2.345627	 1.578324
H	 -1.437031	 2.336070	 -0.061145
C	 0.198102	 0.111031	 0.262842
H	 1.451011	 1.812978	 0.709729
H	 0.828869	 1.806198	 -0.918880
C	 1.331804	 -0.827780	 -0.158768
H	 -0.079833	 -0.084653	 1.295621
H	 -0.684448	 -0.103565	 -0.338466
C	 2.723619	 -0.410569	 0.329459
H	 1.342964	 -0.912588	 -1.244120
H	 1.116806	 -1.824343	 0.220779
C	 3.243875	 0.895854	 -0.272975
H	 3.424222	 -1.207124	 0.091250
H	 2.714788	 -0.329854	 1.414619
H	 3.251977	 0.848779	 -1.358681
H	 2.637085	 1.747371	 0.016682
H	 4.259473	 1.094070	 0.055697

	symmetry c1
}
set optking {
	frozen_dihedral = ("
		4 7 10 14
	")
}

ee = optimize('scf')
oeprop('DIPOLE', 'QUADRUPOLE', 'MULLIKEN_CHARGES')
f=open( 'psi4out.xyz', 'w' )
f.write( "21  " )
f.write( str(ee) + "\n" )
f.write( MOL.save_string_xyz() )
f.close()
--------------------------------------------------------------------------

    Molecular point group: c1
  Charge       = 0
  Multiplicity = 1
  Basis Set: 6-31G*
  Basis Set:
  @DF-RHF Final Energy:  -310.18008733624720
    Total Energy =                       -310.1800873362469702
    Molecular point group: c1
  Basis Set: 6-31G*
  Basis Set:
  Basis Set: 6-31G*
  Basis Set:
  @DF-RHF Final Energy:  -310.19880442009776
    Total Energy =                       -310.1988044200977583
  Basis Set: 6-31G*
  Basis Set:
  Basis Set: 6-31G*
  Basis Set:
  @DF-RHF Final Energy:  -310.20430082067810
    Total Energy =                       -310.2043008206784407
  Basis Set: 6-31G*
  Basis Set:
  Basis Set: 6-31G*
  Basis Set:
  @DF-RHF Final Energy:  -310.20574088116200
    Total Energy =                       -310.2057408811618870
  Basis Set: 6-31G*
  Basis Set:
  @DF-RHF Final Energy:  -310.20636565670964
    Total Energy =                       -310.2063656567095222
  @DF-RHF Final Energy:  -310.20668485049680
    Total Energy =                       -310.2066848504967993
  @DF-RHF Final Energy:  -310.20678464682123
    Total Energy =                       -310.2067846468215748
  Basis Set: 6-31G*
  Basis Set:
  @DF-RHF Final Energy:  -310.20679721138316
    Total Energy =                       -310.2067972113828773
  Basis Set: 6-31G*
  Basis Set:
  Basis Set: 6-31G*
  Basis Set:
  @DF-RHF Final Energy:  -310.20679987955054
    Total Energy =                       -310.2067998795505446
  Basis Set: 6-31G*
  Basis Set:
  Basis Set: 6-31G*
  Basis Set:
  @DF-RHF Final Energy:  -310.20680172867299
    Total Energy =                       -310.2068017286725308
  Basis Set: 6-31G*
  Basis Set:
  Charge       = 0
  Multiplicity = 1
  Basis Set: 6-31G*
  Basis Set:

    Orbital Energies (a.u.)
    -----------------------

    Doubly Occupied:

       1A    -20.552039     2A    -11.267161     3A    -11.216903
       4A    -11.214440     5A    -11.213841     6A    -11.210337
       7A    -11.204371     8A     -1.358857     9A     -1.083854
      10A     -1.028922    11A     -0.958048    12A     -0.872535
      13A     -0.814808    14A     -0.771737    15A     -0.690495
      16A     -0.658739    17A     -0.623987    18A     -0.605096
      19A     -0.583734    20A     -0.567397    21A     -0.539739
      22A     -0.523592    23A     -0.503772    24A     -0.489317
      25A     -0.483909    26A     -0.454241    27A     -0.448630
      28A     -0.442111    29A     -0.434286

  @DF-RHF Final Energy:  -310.20680180524926

   => Energetics <=

    Nuclear Repulsion Energy =            319.3180924933006963
    One-Electron Energy =               -1053.4159840930492464
    Two-Electron Energy =                 423.8910897944992939
    DFT Exchange-Correlation Energy =       0.0000000000000000
    Empirical Dispersion Energy =           0.0000000000000000
    PCM Polarization Energy =               0.0000000000000000
    EFP Energy =                            0.0000000000000000
    Total Energy =                       -310.2068018052492562
    Molecular point group: c1
  Basis Set: 6-31G*
  Basis Set:

  -Total Gradient:
     Atom            X                  Y                   Z
    ------   -----------------  -----------------  -----------------
       1       -0.000000284398     0.000001756100     0.000000462846
       2       -0.000002694754     0.000001748828     0.000000178148
       3        0.000004474805    -0.000002455611    -0.000003152643
       4        0.001138695280    -0.000112503377     0.003189657747
       5        0.000005239130    -0.000000169716    -0.000005123350
       6       -0.000000773755     0.000000893068     0.000000037690
       7       -0.002300998917    -0.000689346675    -0.004570265010
       8       -0.000012980919    -0.000001804639    -0.000010028777
       9       -0.000001621229     0.000000064338    -0.000005134077
      10        0.003908642579     0.004323657024     0.001355675299
      11        0.000003967410     0.000009228976    -0.000002807494
      12       -0.000002925477     0.000000775820    -0.000000951098
      13        0.000018537662    -0.000009413771    -0.000008573867
      14       -0.002746869775    -0.003524137271     0.000048193015
      15       -0.000008130164    -0.000009487734    -0.000001324295
      16       -0.000007791511     0.000012255030     0.000010209613
      17        0.000006948040     0.000007881418     0.000002480965
      18        0.000001196539     0.000006654369    -0.000001321470
      19       -0.000008845704     0.000001927410     0.000006185178
      20        0.000010318115    -0.000016137718    -0.000001204865
      21       -0.000004102954    -0.000001385875    -0.000003193556

  **** Optimization is complete! (in 11 steps) ****
    Final optimized geometry and variables:
    Molecular point group: c1

    Geometry (in Angstrom), charge = 0, multiplicity = 1:

    H           -2.192124463575     3.211552516590     0.623592104038
    O           -1.440427069075     2.695360901055     0.369760663254
    C           -1.767294864863     1.330198009288     0.416390559873
    C           -0.540867974851     0.535127783444     0.002421216414
    H           -2.075275181763     1.044220164882     1.421306970128
    H           -2.597644973541     1.111979485397    -0.253695449653
    C           -0.792033976992    -0.973566832937     0.044432866211
    H            0.273108957328     0.807145057085     0.665335209004
    H           -0.254950911104     0.850494075689    -0.997170538781
    C            0.367449482719    -1.882392917195    -0.400731140463
    H           -1.057420069362    -1.241494632305     1.066370403960
    H           -1.661926851372    -1.213715808896    -0.563193392647
    C            1.762138161125    -1.575620357433     0.170457586087
    H            0.404086623601    -1.925710665487    -1.487681668232
    H            0.093929538080    -2.890767181392    -0.098114709514
    C            2.605243089884    -0.602872902622    -0.658090935445
    H            2.311985322298    -2.510042995459     0.245138964623
    H            1.666976916947    -1.206428239627     1.189385940510
    H            2.753798509705    -0.986727893486    -1.663600235599
    H            2.147380551138     0.374943860073    -0.744114553732
    H            3.585392899473    -0.468526362953    -0.210099906532

  Mulliken Charges: (a.u.)
   Center  Symbol    Alpha    Beta     Spin     Total
       1     H     0.28114  0.28114  0.00000  0.43771
       2     O     4.37208  4.37208  0.00000 -0.74415
       3     C     2.98871  2.98871  0.00000  0.02258
       4     C     3.16314  3.16314  0.00000 -0.32628
       5     H     0.43296  0.43296  0.00000  0.13409
       6     H     0.43276  0.43276  0.00000  0.13447
       7     C     3.16009  3.16009  0.00000 -0.32017
       8     H     0.41231  0.41231  0.00000  0.17539
       9     H     0.41495  0.41495  0.00000  0.17010
      10     C     3.15338  3.15338  0.00000 -0.30676
      11     H     0.42444  0.42444  0.00000  0.15111
      12     H     0.42227  0.42227  0.00000  0.15545
      13     C     3.15729  3.15729  0.00000 -0.31458
      14     H     0.42215  0.42215  0.00000  0.15569
      15     H     0.42084  0.42084  0.00000  0.15833
      16     C     3.24138  3.24138  0.00000 -0.48277
      17     H     0.42040  0.42040  0.00000  0.15920
      18     H     0.42164  0.42164  0.00000  0.15671
      19     H     0.42261  0.42261  0.00000  0.15477
      20     H     0.41478  0.41478  0.00000  0.17044
      21     H     0.42067  0.42067  0.00000  0.15865

   Total alpha = 29.00000, Total beta = 29.00000, Total charge =  0.00000
