  ==> Input File <==

--------------------------------------------------------------------------
set {
	reference rhf
	basis 6-31G*
}

set_num_threads( 4 )
memory 2 gb

molecule MOL {
0 1

H	 2.855753	 0.099359	 2.139937
O	 1.933191	 -0.085432	 2.246422
C	 1.245498	 0.219436	 1.124582
C	 1.861317	 0.734287	 -0.008996
C	 -0.121209	 0.001484	 1.130886
H	 2.925043	 0.903152	 -0.011816
C	 1.110833	 1.030581	 -1.134453
H	 -0.598127	 -0.396149	 2.005822
C	 -0.865228	 0.300799	 0.000000
H	 1.598542	 1.428570	 -2.005730
C	 -0.255568	 0.815933	 -1.136980
C	 -2.333960	 0.069074	 0.000000
H	 -0.840435	 1.045368	 -2.010076
O	 -2.847347	 -1.003763	 0.000000
H	 -2.943845	 0.977528	 0.000000

	symmetry c1
}
set optking {
	frozen_dihedral = ("
		11 9 12 14
	")
}

ee = optimize('scf')
oeprop('DIPOLE', 'QUADRUPOLE', 'MULLIKEN_CHARGES')
f=open( 'psi4out.xyz', 'w' )
f.write( "15  " )
f.write( str(ee) + "\n" )
f.write( MOL.save_string_xyz() )
f.close()
--------------------------------------------------------------------------

    Molecular point group: c1
  Charge       = 0
  Multiplicity = 1
  Basis Set: 6-31G*
  Basis Set:
  @DF-RHF Final Energy:  -418.27477484515924
    Total Energy =                       -418.2747748451594134
    Molecular point group: c1
  Basis Set: 6-31G*
  Basis Set:
  Basis Set: 6-31G*
  Basis Set:
  @DF-RHF Final Energy:  -418.27376927721571
    Total Energy =                       -418.2737692772159335
  Basis Set: 6-31G*
  Basis Set:
  Basis Set: 6-31G*
  Basis Set:
  @DF-RHF Final Energy:  -418.27512007521869
    Total Energy =                       -418.2751200752189789
  Basis Set: 6-31G*
  Basis Set:
  Basis Set: 6-31G*
  Basis Set:
  @DF-RHF Final Energy:  -418.27525394145385
    Total Energy =                       -418.2752539414542525
  Basis Set: 6-31G*
  Basis Set:
  Basis Set: 6-31G*
  Basis Set:
  @DF-RHF Final Energy:  -418.27525578026984
    Total Energy =                       -418.2752557802689353
  Basis Set: 6-31G*
  Basis Set:
  Charge       = 0
  Multiplicity = 1
  Basis Set: 6-31G*
  Basis Set:

    Orbital Energies (a.u.)
    -----------------------

    Doubly Occupied:

       1A    -20.602164     2A    -20.572340     3A    -11.336369
       4A    -11.312895     5A    -11.256501     6A    -11.252028
       7A    -11.242680     8A    -11.240910     9A    -11.239235
      10A     -1.421985    11A     -1.411589    12A     -1.167618
      13A     -1.047326    14A     -1.024027    15A     -0.898683
      16A     -0.842160    17A     -0.816796    18A     -0.737664
      19A     -0.700013    20A     -0.679855    21A     -0.655465
      22A     -0.639188    23A     -0.613158    24A     -0.600200
      25A     -0.580726    26A     -0.544200    27A     -0.529761
      28A     -0.512546    29A     -0.490938    30A     -0.423348
      31A     -0.352817    32A     -0.323741

  @DF-RHF Final Energy:  -418.27525641733121

   => Energetics <=

    Nuclear Repulsion Energy =            402.3155857568930287
    One-Electron Energy =               -1367.0438376664387761
    Two-Electron Energy =                 546.4529954922147681
    DFT Exchange-Correlation Energy =       0.0000000000000000
    Empirical Dispersion Energy =           0.0000000000000000
    PCM Polarization Energy =               0.0000000000000000
    EFP Energy =                            0.0000000000000000
    Total Energy =                       -418.2752564173309793
    Molecular point group: c1
  Basis Set: 6-31G*
  Basis Set:

  -Total Gradient:
     Atom            X                  Y                   Z
    ------   -----------------  -----------------  -----------------
       1       -0.000008096133     0.000017138385    -0.000003740357
       2        0.000009746047     0.000004631612    -0.000018073483
       3       -0.000035669611    -0.000067277058     0.000003253233
       4       -0.000016586929     0.000064178337    -0.000013401496
       5        0.000063418780     0.000003883418     0.000038508155
       6        0.000005829384    -0.000014331023     0.000003181814
       7        0.000093345770    -0.000009667301     0.000023181378
       8       -0.000005012778     0.000017016237    -0.000013858966
       9       -0.001138891403     0.005792373421    -0.000449774305
      10       -0.000001062492    -0.000002548850     0.000005674541
      11        0.000663448228    -0.004067072259    -0.001295885128
      12        0.000278950242    -0.001590047054     0.007044180692
      13       -0.000002049298     0.000000757785    -0.000001069830
      14        0.000084594300    -0.000124758379    -0.005312954006
      15        0.000008035897    -0.000024277272    -0.000009222246

  **** Optimization is complete! (in 6 steps) ****
    Final optimized geometry and variables:
    Molecular point group: c1

    Geometry (in Angstrom), charge = 0, multiplicity = 1:

    H            2.888594601800    -0.138326647104     1.832580004435
    O            1.961157137502    -0.291991456795     1.947004875762
    C            1.279177871586     0.019274626166     0.824474783718
    C            1.897075125544     0.523603803232    -0.308654715514
    C           -0.092649967981    -0.191455814458     0.834756751128
    H            2.962480403187     0.680013091794    -0.318400245952
    C            1.138807902922     0.820945690371    -1.430077949667
    H           -0.551110632165    -0.606458314040     1.712771615111
    C           -0.841739924846     0.131080796270    -0.281892756538
    H            1.625525025906     1.200849515343    -2.310122877450
    C           -0.230489802041     0.632932825198    -1.425433050175
    C           -2.316767836960    -0.138715384000    -0.295113750528
    H           -0.813711303617     0.869211150267    -2.297598975926
    O           -2.784850753630    -1.229681891680    -0.274258643892
    H           -2.962472865572     0.740263939890    -0.377615005421

  Mulliken Charges: (a.u.)
   Center  Symbol    Alpha    Beta     Spin     Total
       1     H     0.27023  0.27023  0.00000  0.45954
       2     O     4.37608  4.37608  0.00000 -0.75216
       3     C     2.79178  2.79178  0.00000  0.41644
       4     C     3.14131  3.14131  0.00000 -0.28261
       5     C     3.12286  3.12286  0.00000 -0.24573
       6     H     0.40047  0.40047  0.00000  0.19905
       7     C     3.08936  3.08936  0.00000 -0.17872
       8     H     0.38144  0.38144  0.00000  0.23712
       9     C     3.02341  3.02341  0.00000 -0.04682
      10     H     0.39366  0.39366  0.00000  0.21268
      11     C     3.11825  3.11825  0.00000 -0.23650
      12     C     2.85217  2.85217  0.00000  0.29566
      13     H     0.39421  0.39421  0.00000  0.21159
      14     O     4.22222  4.22222  0.00000 -0.44444
      15     H     0.42255  0.42255  0.00000  0.15489

   Total alpha = 32.00000, Total beta = 32.00000, Total charge = -0.00000
