                              Psi4 1.0.54 Driver

  ==> Input File <==

--------------------------------------------------------------------------
set {
	reference rhf
	basis cc-pvtz
}

set_num_threads( 4 )
memory 2 gb

molecule MOL {
0 1

O	 0.749630	 1.305591	 -0.000460
C	 0.576499	 0.134701	 -0.003900
C	 -0.765656	 -0.550508	 -0.002152
O	 1.564816	 -0.744612	 -0.000631
C	 -1.945526	 0.411052	 0.000603
H	 -0.794329	 -1.203792	 -0.868145
H	 -0.791555	 -1.205429	 0.862701
C	 -2.921338	 0.119144	 1.135285
H	 -2.457695	 0.350891	 -0.952002
H	 -1.578288	 1.426928	 0.081290
H	 -3.327866	 -0.883895	 1.058096
H	 -3.752377	 0.813802	 1.118405
H	 -2.438610	 0.205345	 2.103206
C	 2.884339	 -0.237801	 0.002883
H	 3.064150	 0.362814	 -0.876312
H	 3.533055	 -1.098529	 0.004958
H	 3.059365	 0.363432	 0.882614

	symmetry c1
}
set optking {
	frozen_dihedral = ("
		9 5 3 6
	")
}

ee,wfn = optimize('scf', return_wfn=True)
oeprop( wfn, 'DIPOLE', 'QUADRUPOLE', 'MULLIKEN_CHARGES')
f=open( 'psi4out.xyz', 'w' )
f.write( "17  " )
f.write( str(ee) + "\n" )
f.write( MOL.save_string_xyz() )
f.close()
--------------------------------------------------------------------------

    Molecular point group: c1
  Charge       = 0
  Multiplicity = 1
  Basis Set: CC-PVTZ
  Basis Set:
  @DF-RHF Final Energy:  -345.03035869501468
    Total Energy =                       -345.0303586950145700
    Molecular point group: c1
  Basis Set: CC-PVTZ
  Basis Set:
  Basis Set: CC-PVTZ
  Basis Set:
  @DF-RHF Final Energy:  -345.03055078319437
    Total Energy =                       -345.0305507831944283
  Basis Set: CC-PVTZ
  Basis Set:
  Basis Set: CC-PVTZ
  Basis Set:
  @DF-RHF Final Energy:  -345.02904365878072
    Total Energy =                       -345.0290436587812906
  Basis Set: CC-PVTZ
  Basis Set:
  Basis Set: CC-PVTZ
  Basis Set:
  @DF-RHF Final Energy:  -345.03075523938139
    Total Energy =                       -345.0307552393816195
  Basis Set: CC-PVTZ
  Basis Set:
  Basis Set: CC-PVTZ
  Basis Set:
  @DF-RHF Final Energy:  -345.03076962799838
    Total Energy =                       -345.0307696279987795
  Basis Set: CC-PVTZ
  Basis Set:
  Basis Set: CC-PVTZ
  Basis Set:
  @DF-RHF Final Energy:  -345.03077132019365
    Total Energy =                       -345.0307713201938213
  Basis Set: CC-PVTZ
  Basis Set:
  Charge       = 0
  Multiplicity = 1
  Basis Set: CC-PVTZ
  Basis Set:

    Orbital Energies (a.u.)
    -----------------------

    Doubly Occupied:

       1A    -20.596849     2A    -20.535316     3A    -11.365819
       4A    -11.278942     5A    -11.234364     6A    -11.218347
       7A    -11.211601     8A     -1.473200     9A     -1.366722
      10A     -1.078587    11A     -1.002558    12A     -0.939588
      13A     -0.828834    14A     -0.768901    15A     -0.703955
      16A     -0.685438    17A     -0.676785    18A     -0.629968
      19A     -0.602840    20A     -0.572193    21A     -0.571439
      22A     -0.532809    23A     -0.525826    24A     -0.490875
      25A     -0.486306    26A     -0.475302    27A     -0.461821
      28A     -0.443328

  @DF-RHF Final Energy:  -345.03077204078147

   => Energetics <=

    Nuclear Repulsion Energy =            313.6240788499750352
    One-Electron Energy =               -1091.7926748045961176
    Two-Electron Energy =                 433.1378239138398385
    DFT Exchange-Correlation Energy =       0.0000000000000000
    Empirical Dispersion Energy =           0.0000000000000000
    PCM Polarization Energy =               0.0000000000000000
    EFP Energy =                            0.0000000000000000
    Total Energy =                       -345.0307720407812440
    Molecular point group: c1
  Basis Set: CC-PVTZ
  Basis Set:

  -Total Gradient:
     Atom            X                  Y                   Z
    ------   -----------------  -----------------  -----------------
       1        0.000024934620    -0.000029571519    -0.000002580354
       2       -0.000031454936     0.000044899506    -0.000063515928
       3       -0.001046256248    -0.001274683553     0.001032531537
       4        0.000019575823     0.000024488365     0.000041597823
       5        0.001054735626     0.001326197529    -0.000743797952
       6        0.000650601518     0.000849001657    -0.000686239216
       7       -0.000032494324    -0.000011591456    -0.000021852424
       8        0.000024671546    -0.000033818563     0.000011813727
       9       -0.000692223196    -0.000901451511     0.000454181475
      10        0.000015811796     0.000000415883    -0.000003077408
      11        0.000006191985     0.000014240143     0.000004506245
      12        0.000017492219    -0.000001225800    -0.000013276358
      13       -0.000012674019    -0.000004689748     0.000000635531
      14        0.000006273623    -0.000012772413    -0.000015949273
      15       -0.000002133025     0.000005402982     0.000002831390
      16        0.000002859036     0.000000860021     0.000001890052
      17       -0.000005912043     0.000004298472     0.000000301134

  **** Optimization is complete! (in 7 steps) ****
    Final optimized geometry and variables:
    Molecular point group: c1

    Geometry (in Angstrom), charge = 0, multiplicity = 1:

    O            0.727451257973     1.246238134262    -0.140975875974
    C            0.532673399387     0.079175206863    -0.167090687022
    C           -0.816691937470    -0.599470894641    -0.146914949295
    O            1.507532504926    -0.813997664492    -0.215442853709
    C           -2.016484187870     0.357155843857    -0.124270632950
    H           -0.838594153518    -1.251610566004    -1.011962794870
    H           -0.813788853025    -1.256559103473     0.715590917413
    C           -3.000610528660     0.047331848541     1.000589327950
    H           -2.539138885589     0.297345142821    -1.071814232985
    H           -1.660128575876     1.372046757364    -0.026628899131
    H           -3.390761528428    -0.962017986621     0.919543371370
    H           -3.842136025303     0.729561154441     0.977092220621
    H           -2.525171234930     0.141532776206     1.971214549754
    C            2.834199841492    -0.327214764582    -0.234528796184
    H            2.999549971687     0.295230444204    -1.101354479222
    H            3.469658986780    -1.196979305767    -0.274223867608
    H            3.042811480793     0.246476868232     0.656296042659

  Mulliken Charges: (a.u.)
   Center  Symbol    Alpha    Beta     Spin     Total
       1     O     4.19613  4.19613  0.00000 -0.39226
       2     C     2.80174  2.80174  0.00000  0.39653
       3     C     3.10569  3.10569  0.00000 -0.21139
       4     O     4.14762  4.14762  0.00000 -0.29524
       5     C     3.08890  3.08890  0.00000 -0.17781
       6     H     0.43522  0.43522  0.00000  0.12957
       7     H     0.43938  0.43938  0.00000  0.12124
       8     C     3.14912  3.14912  0.00000 -0.29825
       9     H     0.45241  0.45241  0.00000  0.09519
      10     H     0.43530  0.43530  0.00000  0.12940
      11     H     0.45587  0.45587  0.00000  0.08825
      12     H     0.44792  0.44792  0.00000  0.10415
      13     H     0.45433  0.45433  0.00000  0.09135
      14     C     3.03626  3.03626  0.00000 -0.07252
      15     H     0.45426  0.45426  0.00000  0.09149
      16     H     0.44544  0.44544  0.00000  0.10911
      17     H     0.45440  0.45440  0.00000  0.09119

   Total alpha = 28.00000, Total beta = 28.00000, Total charge =  0.00000

*** Psi4 exiting successfully. Buy a developer a beer!
