  ==> Input File <==

--------------------------------------------------------------------------
set {
	reference rhf
	basis cc-pvtz
}

set_num_threads( 4 )
memory 2 gb

molecule MOL {
0 1

H	 -2.820666	 -1.124937	 0.548571
C	 -3.020526	 -0.542212	 -0.361029
C	 -2.653809	 0.914422	 -0.273689
O	 -3.498849	 -1.066704	 -1.306240
C	 -1.216901	 1.136108	 0.207794
H	 -2.826055	 1.371476	 -1.239487
H	 -3.342477	 1.365613	 0.437273
C	 -0.247837	 0.040196	 -0.230469
H	 -0.872882	 2.093195	 -0.169002
H	 -1.209325	 1.218376	 1.291938
C	 1.181757	 0.280428	 0.247371
H	 -0.259600	 -0.030819	 -1.314870
H	 -0.591284	 -0.923375	 0.136958
C	 2.151032	 -0.811012	 -0.202643
H	 1.515939	 1.247397	 -0.115449
H	 1.191514	 0.341223	 1.333422
C	 3.580021	 -0.656538	 0.320835
H	 2.170545	 -0.847575	 -1.289412
H	 1.766632	 -1.772905	 0.124928
C	 4.327657	 0.562694	 -0.213579
H	 4.138806	 -1.549270	 0.057813
H	 3.561991	 -0.620783	 1.406976
H	 4.355973	 0.557257	 -1.298551
H	 3.867136	 1.491650	 0.100501
H	 5.351524	 0.571613	 0.142204

	symmetry c1
}
set optking {
	frozen_dihedral = ("
		6 3 5 8
	")
}

ee = optimize('scf')
oeprop('DIPOLE', 'QUADRUPOLE', 'MULLIKEN_CHARGES')
f=open( 'psi4out.xyz', 'w' )
f.write( "25  " )
f.write( str(ee) + "\n" )
f.write( MOL.save_string_xyz() )
f.close()
--------------------------------------------------------------------------

    Molecular point group: c1
  Charge       = 0
  Multiplicity = 1
  Basis Set: CC-PVTZ
  Basis Set:
  @DF-RHF Final Energy:  -387.25510927285802
    Total Energy =                       -387.2551092728579079
    Molecular point group: c1
  Basis Set: CC-PVTZ
  Basis Set:
  Basis Set: CC-PVTZ
  Basis Set:
  @DF-RHF Final Energy:  -387.25524326387142
    Total Energy =                       -387.2552432638718756
  Basis Set: CC-PVTZ
  Basis Set:
  Basis Set: CC-PVTZ
  Basis Set:
  @DF-RHF Final Energy:  -387.25608052830916
    Total Energy =                       -387.2560805283094396
  Basis Set: CC-PVTZ
  Basis Set:
  Basis Set: CC-PVTZ
  Basis Set:
  @DF-RHF Final Energy:  -387.25622572259329
    Total Energy =                       -387.2562257225932854
  Basis Set: CC-PVTZ
  Basis Set:
  Basis Set: CC-PVTZ
  Basis Set:
  @DF-RHF Final Energy:  -387.25622976164817
    Total Energy =                       -387.2562297616484557
  Basis Set: CC-PVTZ
  Basis Set:
  Basis Set: CC-PVTZ
  Basis Set:
  @DF-RHF Final Energy:  -387.25623267360669
    Total Energy =                       -387.2562326736066325
  Basis Set: CC-PVTZ
  Basis Set:
  Charge       = 0
  Multiplicity = 1
  Basis Set: CC-PVTZ
  Basis Set:

    Orbital Energies (a.u.)
    -----------------------

    Doubly Occupied:

       1A    -20.550556     2A    -11.320919     3A    -11.233624
       4A    -11.233038     5A    -11.222711     6A    -11.218179
       7A    -11.216512     8A    -11.215380     9A    -11.208865
      10A     -1.405525    11A     -1.104476    12A     -1.069792
      13A     -1.014276    14A     -0.943807    15A     -0.877485
      16A     -0.828115    17A     -0.782811    18A     -0.779768
      19A     -0.672675    20A     -0.657793    21A     -0.635384
      22A     -0.627412    23A     -0.604678    24A     -0.595643
      25A     -0.577036    26A     -0.547898    27A     -0.543120
      28A     -0.526158    29A     -0.502521    30A     -0.498702
      31A     -0.496602    32A     -0.474757    33A     -0.465092
      34A     -0.460018    35A     -0.443309    36A     -0.411275

  @DF-RHF Final Energy:  -387.25623278077671

   => Energetics <=

    Nuclear Repulsion Energy =            440.9044879117585651
    One-Electron Energy =               -1398.3896268589292049
    Two-Electron Energy =                 570.2289061663938128
    DFT Exchange-Correlation Energy =       0.0000000000000000
    Empirical Dispersion Energy =           0.0000000000000000
    PCM Polarization Energy =               0.0000000000000000
    EFP Energy =                            0.0000000000000000
    Total Energy =                       -387.2562327807768270
    Molecular point group: c1
  Basis Set: CC-PVTZ
  Basis Set:

  -Total Gradient:
     Atom            X                  Y                   Z
    ------   -----------------  -----------------  -----------------
       1        0.000041912174    -0.000031532917    -0.000008334515
       2       -0.000031336966     0.000039145962     0.000002147028
       3        0.001617579711    -0.007342768695    -0.002165935874
       4        0.000007825465    -0.000038075819    -0.000003815099
       5        0.000958370440     0.004712670643    -0.004357004583
       6       -0.001654648510     0.005105221390     0.002927793573
       7       -0.000024848973    -0.000005511840    -0.000018451311
       8       -0.000952403851    -0.002395722391     0.003617270151
       9        0.000017066949    -0.000023802644     0.000005644887
      10        0.000016993048     0.000018317921     0.000011837159
      11        0.000025384253    -0.000040598838    -0.000040464798
      12        0.000004477248     0.000006047614     0.000029363717
      13       -0.000006994152    -0.000002346027    -0.000002923536
      14       -0.000006710072    -0.000016952128     0.000039578464
      15        0.000021054947     0.000038441880    -0.000003440502
      16       -0.000005377118    -0.000014553096    -0.000022111340
      17        0.000019974610    -0.000025988059    -0.000035297407
      18        0.000002051808    -0.000011991280     0.000006786093
      19       -0.000015015490     0.000007493884     0.000009516671
      20       -0.000019270311     0.000006254889     0.000010063446
      21        0.000006701709     0.000006903078    -0.000011273260
      22        0.000006167255    -0.000014068145    -0.000002955791
      23        0.000004369713    -0.000008603291     0.000009672435
      24       -0.000031418713     0.000022117832    -0.000006615278
      25       -0.000001905174     0.000009900073     0.000008949668

  **** Optimization is complete! (in 7 steps) ****
    Final optimized geometry and variables:
    Molecular point group: c1

    Geometry (in Angstrom), charge = 0, multiplicity = 1:

    H           -3.125598646350    -1.071925077874     0.756463960700
    C           -3.191366974923    -0.491462474812    -0.172628445244
    C           -2.717309856265     0.930484500823    -0.073028872616
    O           -3.633254894269    -0.989595342889    -1.149679988402
    C           -1.276016931573     1.098847901667     0.448340206600
    H           -2.858260065206     1.431826670669    -1.021184905031
    H           -3.391625196181     1.422677883767     0.625625249213
    C           -0.295176081617     0.014522112930     0.000513386447
    H           -0.917455310127     2.072410446659     0.135744909211
    H           -1.289129006993     1.117423022020     1.534030269129
    C            1.133899440132     0.283703660521     0.464311465655
    H           -0.312488701785    -0.068447230865    -1.083255616893
    H           -0.614888122924    -0.950478735386     0.382376607929
    C            2.114922771054    -0.804930303968     0.033479214430
    H            1.452687533551     1.246316406131     0.077330741523
    H            1.148909022845     0.369695274019     1.548680573055
    C            3.545194417888    -0.617627771422     0.542476088686
    H            2.127126174471    -0.867530770146    -1.052098793951
    H            1.746704342164    -1.764045349419     0.387075933520
    C            4.269079500987     0.602239978546    -0.022310184612
    H            4.116038264047    -1.506601980183     0.292976934326
    H            3.534830663622    -0.560139392639     1.627804212609
    H            4.289950283295     0.574712690662    -1.107071788318
    H            3.795652706614     1.529961830848     0.275852767663
    H            5.295076300586     0.635050620065     0.325846770627

  Mulliken Charges: (a.u.)
   Center  Symbol    Alpha    Beta     Spin     Total
       1     H     0.46258  0.46258  0.00000  0.07484
       2     C     2.90140  2.90140  0.00000  0.19720
       3     C     3.09149  3.09149  0.00000 -0.18298
       4     O     4.16867  4.16867  0.00000 -0.33734
       5     C     3.10888  3.10888  0.00000 -0.21776
       6     H     0.44096  0.44096  0.00000  0.11808
       7     H     0.44477  0.44477  0.00000  0.11046
       8     C     3.09532  3.09532  0.00000 -0.19065
       9     H     0.44419  0.44419  0.00000  0.11161
      10     H     0.44939  0.44939  0.00000  0.10122
      11     C     3.09465  3.09465  0.00000 -0.18930
      12     H     0.44438  0.44438  0.00000  0.11123
      13     H     0.45142  0.45142  0.00000  0.09715
      14     C     3.09517  3.09517  0.00000 -0.19033
      15     H     0.45070  0.45070  0.00000  0.09861
      16     H     0.45434  0.45434  0.00000  0.09131
      17     C     3.09101  3.09101  0.00000 -0.18201
      18     H     0.45214  0.45214  0.00000  0.09572
      19     H     0.44886  0.44886  0.00000  0.10228
      20     C     3.15271  3.15271  0.00000 -0.30542
      21     H     0.44766  0.44766  0.00000  0.10469
      22     H     0.45484  0.45484  0.00000  0.09031
      23     H     0.45420  0.45420  0.00000  0.09159
      24     H     0.45434  0.45434  0.00000  0.09131
      25     H     0.44592  0.44592  0.00000  0.10817

   Total alpha = 36.00000, Total beta = 36.00000, Total charge = -0.00000
