  ==> Input File <==

--------------------------------------------------------------------------
set {
	reference rhf
	basis 6-31G*
}

set_num_threads( 1 )
memory 2 gb

molecule MOL {
0 1

H	 3.337359	 1.200689	 -2.002882
N	 2.565097	 0.562704	 -1.991375
C	 1.604255	 0.934092	 -0.962600
H	 2.943798	 -0.346755	 -1.806170
C	 0.384567	 0.019944	 -1.012092
H	 1.293981	 1.956600	 -1.155126
H	 2.027301	 0.919806	 0.044985
C	 -0.679275	 0.379305	 0.025956
H	 -0.036742	 0.064075	 -2.012285
H	 0.705283	 -1.009933	 -0.857722
C	 -1.903357	 -0.536963	 -0.023547
H	 -0.998074	 1.409426	 -0.125921
H	 -0.243563	 0.339668	 1.023167
C	 -3.225172	 0.228290	 0.028445
H	 -1.867824	 -1.134999	 -0.931459
H	 -1.860449	 -1.239604	 0.805977
H	 -3.313397	 0.915643	 -0.808262
H	 -4.073500	 -0.448134	 -0.008893
H	 -3.306061	 0.809945	 0.942516

	symmetry c1
}
set optking {
	frozen_dihedral = ("
		6 3 5 9,
		12 8 5 9,
		1 2 3 6
	")
}

ee = energy('scf')
oeprop('DIPOLE', 'QUADRUPOLE', 'MULLIKEN_CHARGES')
f=open( 'psi4out.xyz', 'w' )
f.write( "19  " )
f.write( str(ee) + "\n" )
f.write( MOL.save_string_xyz() )
f.close()
--------------------------------------------------------------------------

    Molecular point group: c1

    Geometry (in Angstrom), charge = 0, multiplicity = 1:

       Center              X                  Y                   Z               Mass
    ------------   -----------------  -----------------  -----------------  -----------------
           H          3.513498784236     0.929304196141    -1.335210027958     1.007825032070
           N          2.741236784236     0.291319196141    -1.323703027958    14.003074004780
           C          1.780394784236     0.662707196141    -0.294928027958    12.000000000000
           H          3.119937784236    -0.618139803859    -1.138498027958     1.007825032070
           C          0.560706784236    -0.251440803859    -0.344420027958    12.000000000000
           H          1.470120784236     1.685215196141    -0.487454027958     1.007825032070
           H          2.203440784236     0.648421196141     0.712656972042     1.007825032070
           C         -0.503135215764     0.107920196141     0.693627972042    12.000000000000
           H          0.139397784236    -0.207309803859    -1.344613027958     1.007825032070
           H          0.881422784236    -1.281317803859    -0.190050027958     1.007825032070
           C         -1.727217215764    -0.808347803859     0.644124972042    12.000000000000
           H         -0.821934215764     1.138041196141     0.541750972042     1.007825032070
           H         -0.067423215764     0.068283196141     1.690838972042     1.007825032070
           C         -3.049032215764    -0.043094803859     0.696116972042    12.000000000000
           H         -1.691684215764    -1.406383803859    -0.263787027958     1.007825032070
           H         -1.684309215764    -1.510988803859     1.473648972042     1.007825032070
           H         -3.137257215764     0.644258196141    -0.140590027958     1.007825032070
           H         -3.897360215764    -0.719518803859     0.658778972042     1.007825032070
           H         -3.129921215764     0.538560196141     1.610187972042     1.007825032070

  Charge       = 0
  Multiplicity = 1
  Basis Set: 6-31G*
  Basis Set:

    Orbital Energies (a.u.)
    -----------------------

    Doubly Occupied:

       1A    -15.532353     2A    -11.239275     3A    -11.212411
       4A    -11.211254     5A    -11.209765     6A    -11.207308
       7A     -1.176453     8A     -1.072923     9A     -0.997545
      10A     -0.900210    11A     -0.814188    12A     -0.788407
      13A     -0.665163    14A     -0.636240    15A     -0.616678
      16A     -0.589939    17A     -0.574926    18A     -0.537825
      19A     -0.532031    20A     -0.496956    21A     -0.487953
      22A     -0.463558    23A     -0.454713    24A     -0.448147
      25A     -0.380764

  @DF-RHF Final Energy:  -251.34663945487969

   => Energetics <=

    Nuclear Repulsion Energy =            246.3409881073726240
    One-Electron Energy =                -826.8813159956955587
    Two-Electron Energy =                 329.1936884334435263
    DFT Exchange-Correlation Energy =       0.0000000000000000
    Empirical Dispersion Energy =           0.0000000000000000
    PCM Polarization Energy =               0.0000000000000000
    EFP Energy =                            0.0000000000000000
    Total Energy =                       -251.3466394548794369

  Mulliken Charges: (a.u.)
   Center  Symbol    Alpha    Beta     Spin     Total
       1     H     0.33254  0.33254  0.00000  0.33493
       2     N     3.92190  3.92190  0.00000 -0.84380
       3     C     3.06066  3.06066  0.00000 -0.12132
       4     H     0.33542  0.33542  0.00000  0.32917
       5     C     3.15390  3.15390  0.00000 -0.30780
       6     H     0.42081  0.42081  0.00000  0.15838
       7     H     0.43483  0.43483  0.00000  0.13034
       8     C     3.15793  3.15793  0.00000 -0.31585
       9     H     0.41286  0.41286  0.00000  0.17428
      10     H     0.42719  0.42719  0.00000  0.14561
      11     C     3.15313  3.15313  0.00000 -0.30627
      12     H     0.42123  0.42123  0.00000  0.15754
      13     H     0.42243  0.42243  0.00000  0.15513
      14     C     3.24048  3.24048  0.00000 -0.48096
      15     H     0.41953  0.41953  0.00000  0.16095
      16     H     0.42142  0.42142  0.00000  0.15716
      17     H     0.42121  0.42121  0.00000  0.15758
      18     H     0.42060  0.42060  0.00000  0.15881
      19     H     0.42194  0.42194  0.00000  0.15612

   Total alpha = 25.00000, Total beta = 25.00000, Total charge =  0.00000
