  ==> Input File <==

--------------------------------------------------------------------------
set {
	reference rhf
	basis 6-31G*
}

set_num_threads( 4 )
memory 2 gb

molecule MOL {
0 1

H	 3.253074	 0.098092	 0.259561
N	 2.434251	 -0.367735	 -0.081097
C	 1.267428	 0.496480	 0.024474
H	 2.314327	 -1.189715	 0.480046
C	 -0.016086	 -0.325158	 -0.029487
H	 1.288818	 1.183521	 -0.816092
H	 1.267576	 1.109062	 0.929528
C	 -1.282277	 0.529072	 0.046735
H	 -0.012495	 -0.908639	 -0.945788
H	 -0.015903	 -1.041248	 0.791956
C	 -2.563920	 -0.301775	 -0.006060
H	 -1.284084	 1.244622	 -0.773004
H	 -1.271387	 1.115393	 0.963286
H	 -2.621848	 -0.873522	 -0.927727
H	 -3.445135	 0.329952	 0.047812
H	 -2.609542	 -1.004582	 0.821105

	symmetry c1
}
set optking {
	frozen_dihedral = ("
		1 2 3 6
	")
}

ee = optimize('scf')
oeprop('DIPOLE', 'QUADRUPOLE', 'MULLIKEN_CHARGES')
f=open( 'psi4out.xyz', 'w' )
f.write( "16  " )
f.write( str(ee) + "\n" )
f.write( MOL.save_string_xyz() )
f.close()
--------------------------------------------------------------------------

    Molecular point group: c1
  Charge       = 0
  Multiplicity = 1
  Basis Set: 6-31G*
  Basis Set:
  @DF-RHF Final Energy:  -212.31562949273442
    Total Energy =                       -212.3156294927344447
    Molecular point group: c1
  Basis Set: 6-31G*
  Basis Set:
  Basis Set: 6-31G*
  Basis Set:
  @DF-RHF Final Energy:  -212.31574879316966
    Total Energy =                       -212.3157487931698029
  Basis Set: 6-31G*
  Basis Set:
  Basis Set: 6-31G*
  Basis Set:
  @DF-RHF Final Energy:  -212.31577114253969
    Total Energy =                       -212.3157711425396883
  Basis Set: 6-31G*
  Basis Set:
  Basis Set: 6-31G*
  Basis Set:
  @DF-RHF Final Energy:  -212.31577453701226
    Total Energy =                       -212.3157745370124303
  Basis Set: 6-31G*
  Basis Set:
  Charge       = 0
  Multiplicity = 1
  Basis Set: 6-31G*
  Basis Set:

    Orbital Energies (a.u.)
    -----------------------

    Doubly Occupied:

       1A    -15.532450     2A    -11.239723     3A    -11.217088
       4A    -11.213553     5A    -11.209483     6A     -1.176866
       7A     -1.061356     8A     -0.959835     9A     -0.844987
      10A     -0.795254    11A     -0.654400    12A     -0.646551
      13A     -0.602501    14A     -0.575330    15A     -0.570833
      16A     -0.522227    17A     -0.506398    18A     -0.471711
      19A     -0.467356    20A     -0.460144    21A     -0.382940

  @DF-RHF Final Energy:  -212.31577478090571

   => Energetics <=

    Nuclear Repulsion Energy =            186.3715154891643806
    One-Electron Energy =                -655.1526080546054800
    Two-Electron Energy =                 256.4653177845355003
    DFT Exchange-Correlation Energy =       0.0000000000000000
    Empirical Dispersion Energy =           0.0000000000000000
    PCM Polarization Energy =               0.0000000000000000
    EFP Energy =                            0.0000000000000000
    Total Energy =                       -212.3157747809055991
    Molecular point group: c1
  Basis Set: 6-31G*
  Basis Set:

  -Total Gradient:
     Atom            X                  Y                   Z
    ------   -----------------  -----------------  -----------------
       1       -0.000485508314    -0.001186389034     0.002961336616
       2        0.000234938349     0.001041111149    -0.004027698714
       3        0.001856624275     0.002036538934     0.002638641083
       4        0.000013808840    -0.000019311676     0.000006252316
       5       -0.000010349204    -0.000001989737     0.000002037921
       6       -0.001609496371    -0.001876240326    -0.001574790707
       7       -0.000003043519    -0.000000430494    -0.000000774339
       8       -0.000001325371     0.000003386137    -0.000011625101
       9        0.000001134741     0.000009133470    -0.000000561216
      10        0.000005152092    -0.000002605105    -0.000003966349
      11       -0.000001819061    -0.000003024401     0.000018130797
      12        0.000005449259     0.000003405813    -0.000003466330
      13       -0.000001831676    -0.000001563631    -0.000002841667
      14        0.000003267451     0.000001887173     0.000000667005
      15       -0.000001285204    -0.000000495990    -0.000001863593
      16       -0.000005716286    -0.000003412282     0.000000522279

  **** Optimization is complete! (in 5 steps) ****
    Final optimized geometry and variables:
    Molecular point group: c1

    Geometry (in Angstrom), charge = 0, multiplicity = 1:

    H            3.264070522269     0.100266570580     0.218528419374
    N            2.437479093110    -0.363406189318    -0.107285600572
    C            1.270865444351     0.499565187517     0.042228177450
    H            2.336679120620    -1.175254278316     0.473133217207
    C           -0.013804475224    -0.322059139627    -0.016097740876
    H            1.263433577309     1.201460005391    -0.786340585447
    H            1.284447818928     1.082289614551     0.964974859137
    C           -1.279642968554     0.534142457338     0.040310602246
    H           -0.005347941267    -0.910913837908    -0.929728195197
    H           -0.023884896995    -1.031876478456     0.810972153001
    C           -2.561507799375    -0.296418930984    -0.011669177798
    H           -1.274111707437     1.239318320204    -0.787843400640
    H           -1.274203041600     1.130906656768     0.950051767124
    H           -2.612961530513    -0.879824964605    -0.926419621731
    H           -3.442180218047     0.337121392987     0.026949641277
    H           -2.614815457068    -0.988267522055     0.824226293122

  Mulliken Charges: (a.u.)
   Center  Symbol    Alpha    Beta     Spin     Total
       1     H     0.33355  0.33355  0.00000  0.33291
       2     N     3.92195  3.92195  0.00000 -0.84391
       3     C     3.05468  3.05468  0.00000 -0.10936
       4     H     0.33612  0.33612  0.00000  0.32777
       5     C     3.15912  3.15912  0.00000 -0.31824
       6     H     0.41990  0.41990  0.00000  0.16020
       7     H     0.43401  0.43401  0.00000  0.13199
       8     C     3.15467  3.15467  0.00000 -0.30933
       9     H     0.41316  0.41316  0.00000  0.17368
      10     H     0.42800  0.42800  0.00000  0.14399
      11     C     3.23904  3.23904  0.00000 -0.47808
      12     H     0.42121  0.42121  0.00000  0.15757
      13     H     0.42321  0.42321  0.00000  0.15359
      14     H     0.42039  0.42039  0.00000  0.15921
      15     H     0.41906  0.41906  0.00000  0.16188
      16     H     0.42193  0.42193  0.00000  0.15614

   Total alpha = 21.00000, Total beta = 21.00000, Total charge = -0.00000
