                              Psi4 1.0.54 Driver

  ==> Input File <==

--------------------------------------------------------------------------
set {
	reference rhf
	basis cc-pvtz
}

set_num_threads( 4 )
memory 2 gb

molecule MOL {
0 1

H	 2.807452	 -0.332712	 0.470105
O	 1.969864	 -0.770557	 0.491886
C	 1.050374	 0.054877	 0.000135
C	 -0.318151	 -0.570512	 0.000144
O	 1.319178	 1.141542	 -0.380484
C	 -1.454884	 0.441630	 -0.000560
H	 -0.371613	 -1.223646	 -0.864985
H	 -0.371920	 -1.222758	 0.865929
C	 -2.822577	 -0.232186	 0.000063
H	 -1.359760	 1.084704	 -0.867077
H	 -1.359641	 1.085996	 0.864983
H	 -2.954352	 -0.858985	 -0.875745
H	 -3.615886	 0.505352	 0.000019
H	 -2.953878	 -0.858359	 0.876394

	symmetry c1
}
set optking {
	frozen_dihedral = ("
		2 3 4 7
	")
}

ee,wfn = optimize('scf', return_wfn=True)
oeprop( wfn, 'DIPOLE', 'QUADRUPOLE', 'MULLIKEN_CHARGES')
f=open( 'psi4out.xyz', 'w' )
f.write( "14  " )
f.write( str(ee) + "\n" )
f.write( MOL.save_string_xyz() )
f.close()
--------------------------------------------------------------------------

    Molecular point group: c1
  Charge       = 0
  Multiplicity = 1
  Basis Set: CC-PVTZ
  Basis Set:
  @DF-RHF Final Energy:  -306.00040298997857
    Total Energy =                       -306.0004029899785110
    Molecular point group: c1
  Basis Set: CC-PVTZ
  Basis Set:
  Basis Set: CC-PVTZ
  Basis Set:
  @DF-RHF Final Energy:  -306.00047178428827
    Total Energy =                       -306.0004717842884929
  Basis Set: CC-PVTZ
  Basis Set:
  Basis Set: CC-PVTZ
  Basis Set:
  @DF-RHF Final Energy:  -306.00051601152887
    Total Energy =                       -306.0005160115292142
  Basis Set: CC-PVTZ
  Basis Set:
  Basis Set: CC-PVTZ
  Basis Set:
  @DF-RHF Final Energy:  -306.00057855631411
    Total Energy =                       -306.0005785563138829
  Basis Set: CC-PVTZ
  Basis Set:
  Basis Set: CC-PVTZ
  Basis Set:
  @DF-RHF Final Energy:  -306.00059588258273
    Total Energy =                       -306.0005958825827292
  Basis Set: CC-PVTZ
  Basis Set:
  Charge       = 0
  Multiplicity = 1
  Basis Set: CC-PVTZ
  Basis Set:

    Orbital Energies (a.u.)
    -----------------------

    Doubly Occupied:

       1A    -20.605227     2A    -20.540259     3A    -11.374102
       4A    -11.239679     5A    -11.224846     6A    -11.215720
       7A     -1.478324     8A     -1.369393     9A     -1.084540
      10A     -0.980729    11A     -0.858978    12A     -0.794813
      13A     -0.705017    14A     -0.691777    15A     -0.666770
      16A     -0.620231    17A     -0.596686    18A     -0.574257
      19A     -0.547374    20A     -0.508037    21A     -0.492467
      22A     -0.484090    23A     -0.482558    24A     -0.446823

  @DF-RHF Final Energy:  -306.00059640060914

   => Energetics <=

    Nuclear Repulsion Energy =            240.4327001186479151
    One-Electron Energy =                -893.7011975016796441
    Two-Electron Energy =                 347.2679009824223613
    DFT Exchange-Correlation Energy =       0.0000000000000000
    Empirical Dispersion Energy =           0.0000000000000000
    PCM Polarization Energy =               0.0000000000000000
    EFP Energy =                            0.0000000000000000
    Total Energy =                       -306.0005964006093109
    Molecular point group: c1
  Basis Set: CC-PVTZ
  Basis Set:

  -Total Gradient:
     Atom            X                  Y                   Z
    ------   -----------------  -----------------  -----------------
       1        0.000061669140     0.000007642037    -0.000014006212
       2       -0.000153179560     0.000317742115     0.000806386271
       3        0.000024568519    -0.000219310159    -0.001164625114
       4        0.000371486007    -0.000807244706     0.000902153478
       5        0.000034746399    -0.000031477213     0.000021206481
       6        0.000011698566     0.000004776062    -0.000006246929
       7       -0.000386337326     0.000768487433    -0.000531251069
       8        0.000010782068    -0.000015059158     0.000007663917
       9        0.000006397585    -0.000022149296    -0.000006059385
      10       -0.000002203517     0.000018440351    -0.000013068193
      11        0.000023837670    -0.000017208550    -0.000004476550
      12       -0.000009840442    -0.000005417904    -0.000002925250
      13        0.000008410835     0.000003215122     0.000003029562
      14       -0.000002035939    -0.000002436135     0.000002218993

  **** Optimization is complete! (in 6 steps) ****
    Final optimized geometry and variables:
    Molecular point group: c1

    Geometry (in Angstrom), charge = 0, multiplicity = 1:

    H            2.826120334657    -0.344612653778     0.369688403790
    O            1.987914254370    -0.776500749300     0.440856975465
    C            1.051089653306     0.046766387270    -0.019269884142
    C           -0.317446384163    -0.580045717803     0.006806023852
    O            1.305934474176     1.133337753339    -0.410384324023
    C           -1.450268324325     0.439020387229    -0.014392277333
    H           -0.373555517900    -1.220706065405    -0.869455213333
    H           -0.380950290575    -1.231690995390     0.868966267476
    C           -2.821059003350    -0.227862597329    -0.032997738837
    H           -1.335643328775     1.079394252092    -0.879160906503
    H           -1.367640383394     1.083099285163     0.854250451868
    H           -2.942923649625    -0.852012580795    -0.912122824379
    H           -3.610473926122     0.513800923165    -0.043109204313
    H           -2.968104825449    -0.855088369741     0.839989786608

  Mulliken Charges: (a.u.)
   Center  Symbol    Alpha    Beta     Spin     Total
       1     H     0.38149  0.38149  0.00000  0.23701
       2     O     4.15932  4.15932  0.00000 -0.31863
       3     C     2.80778  2.80778  0.00000  0.38443
       4     C     3.10062  3.10062  0.00000 -0.20124
       5     O     4.19267  4.19267  0.00000 -0.38534
       6     C     3.08144  3.08144  0.00000 -0.16289
       7     H     0.44243  0.44243  0.00000  0.11515
       8     H     0.43694  0.43694  0.00000  0.12612
       9     C     3.15008  3.15008  0.00000 -0.30017
      10     H     0.44183  0.44183  0.00000  0.11634
      11     H     0.44967  0.44967  0.00000  0.10066
      12     H     0.45499  0.45499  0.00000  0.09002
      13     H     0.44520  0.44520  0.00000  0.10960
      14     H     0.45553  0.45553  0.00000  0.08893

   Total alpha = 24.00000, Total beta = 24.00000, Total charge =  0.00000

*** Psi4 exiting successfully. Buy a developer a beer!
