                              Psi4 1.0.54 Driver

  ==> Input File <==

--------------------------------------------------------------------------
set {
	reference rhf
	basis cc-pvtz
}

set_num_threads( 4 )
memory 2 gb

molecule MOL {
0 1

H	 -2.698799	 -0.000846	 0.036018
C	 -1.694291	 -0.000483	 0.434279
O	 -0.828718	 -0.000608	 -0.655022
H	 -1.576855	 0.881100	 1.056504
H	 -1.576401	 -0.881658	 1.057001
C	 -1.312790	 0.420179	 -1.906617
C	 -2.406515	 -0.493145	 -2.448721
C	 -1.728620	 1.886916	 -1.910743
H	 -0.449233	 0.320161	 -2.552283
H	 -2.093294	 -1.528614	 -2.396238
H	 -2.607277	 -0.250522	 -3.485820
H	 -3.336829	 -0.387298	 -1.902924
H	 -0.945263	 2.502022	 -1.485253
H	 -1.904855	 2.216056	 -2.928280
H	 -2.640872	 2.055921	 -1.350586

	symmetry c1
}
set optking {
	frozen_dihedral = ("
		6 3 2 1
	")
}

ee,wfn = optimize('scf', return_wfn=True)
oeprop( wfn, 'DIPOLE', 'QUADRUPOLE', 'MULLIKEN_CHARGES')
f=open( 'psi4out.xyz', 'w' )
f.write( "15  " )
f.write( str(ee) + "\n" )
f.write( MOL.save_string_xyz() )
f.close()
--------------------------------------------------------------------------

    Molecular point group: c1
  Charge       = 0
  Multiplicity = 1
  Basis Set: CC-PVTZ
  Basis Set:
  @DF-RHF Final Energy:  -232.22209007251612
    Total Energy =                       -232.2220900725159822
    Molecular point group: c1
  Basis Set: CC-PVTZ
  Basis Set:
  Basis Set: CC-PVTZ
  Basis Set:
  @DF-RHF Final Energy:  -232.22358401112021
    Total Energy =                       -232.2235840111202378
  Basis Set: CC-PVTZ
  Basis Set:
  Basis Set: CC-PVTZ
  Basis Set:
  @DF-RHF Final Energy:  -232.22430188770852
    Total Energy =                       -232.2243018877085774
  Basis Set: CC-PVTZ
  Basis Set:
  Basis Set: CC-PVTZ
  Basis Set:
  @DF-RHF Final Energy:  -232.22447897043816
    Total Energy =                       -232.2244789704381560
  Basis Set: CC-PVTZ
  Basis Set:
  Basis Set: CC-PVTZ
  Basis Set:
  @DF-RHF Final Energy:  -232.22445356051153
    Total Energy =                       -232.2244535605115630
  Basis Set: CC-PVTZ
  Basis Set:
  Basis Set: CC-PVTZ
  Basis Set:
  @DF-RHF Final Energy:  -232.22449179837710
    Total Energy =                       -232.2244917983771302
  Basis Set: CC-PVTZ
  Basis Set:
  Charge       = 0
  Multiplicity = 1
  Basis Set: CC-PVTZ
  Basis Set:

    Orbital Energies (a.u.)
    -----------------------

    Doubly Occupied:

       1A    -20.539975     2A    -11.273140     3A    -11.258954
       4A    -11.209083     5A    -11.208222     6A     -1.371721
       7A     -1.051052     8A     -0.940490     9A     -0.931601
      10A     -0.781774    11A     -0.677168    12A     -0.640659
      13A     -0.633809    14A     -0.570882    15A     -0.563668
      16A     -0.552902    17A     -0.537242    18A     -0.501012
      19A     -0.498438    20A     -0.443923    21A     -0.406470

  @DF-RHF Final Energy:  -232.22449207528942

   => Energetics <=

    Nuclear Repulsion Energy =            198.9390911368528521
    One-Electron Energy =                -709.1427985749968457
    Two-Electron Energy =                 277.9792153628545179
    DFT Exchange-Correlation Energy =       0.0000000000000000
    Empirical Dispersion Energy =           0.0000000000000000
    PCM Polarization Energy =               0.0000000000000000
    EFP Energy =                            0.0000000000000000
    Total Energy =                       -232.2244920752894473
    Molecular point group: c1
  Basis Set: CC-PVTZ
  Basis Set:

  -Total Gradient:
     Atom            X                  Y                   Z
    ------   -----------------  -----------------  -----------------
       1       -0.000171042552     0.001768758958     0.000122352284
       2        0.000023440628    -0.003023038863    -0.000338061303
       3        0.000423324376     0.002594286867     0.000606553549
       4        0.000007707575    -0.000003377991     0.000001927502
       5        0.000000844751     0.000013672972     0.000008843093
       6       -0.000246306062    -0.001388711440    -0.000315223836
       7       -0.000012630613     0.000002443939    -0.000019851343
       8       -0.000013876410     0.000027717764    -0.000034485826
       9        0.000001456300    -0.000003137023    -0.000013335897
      10        0.000009825157    -0.000004807071    -0.000012766904
      11       -0.000008894152     0.000003170338    -0.000004964921
      12       -0.000008015324    -0.000003151322     0.000008363262
      13        0.000012361527     0.000005131200    -0.000013149002
      14       -0.000009808550     0.000007602546    -0.000002434256
      15       -0.000008386653     0.000003439127     0.000006233598

  **** Optimization is complete! (in 7 steps) ****
    Final optimized geometry and variables:
    Molecular point group: c1

    Geometry (in Angstrom), charge = 0, multiplicity = 1:

    H           -1.094433136332    -0.515450721644     1.411056904622
    C           -0.051538282292    -0.447229855012     1.694906946404
    O            0.804579416293    -0.312365939020     0.601999686621
    H            0.052063491761     0.397652898711     2.369107695969
    H            0.217845893644    -1.347626322753     2.230869000403
    C            0.285772997557     0.140081932921    -0.623783617279
    C           -0.642762085626    -0.881209420313    -1.271314044623
    C           -0.345855864620     1.523102026875    -0.514127957459
    H            1.164597528549     0.226969721087    -1.250556821862
    H           -0.158159120494    -1.848482242204    -1.317966567650
    H           -0.886006400614    -0.572070061298    -2.281559829901
    H           -1.575454770738    -0.992005891292    -0.730658734927
    H            0.347442268066     2.217571304287    -0.055555204002
    H           -0.599566296943     1.896265406619    -1.499610565371
    H           -1.255276721594     1.508902428348     0.075972300103

  Mulliken Charges: (a.u.)
   Center  Symbol    Alpha    Beta     Spin     Total
       1     H     0.46955  0.46955  0.00000  0.06091
       2     C     3.03941  3.03941  0.00000 -0.07882
       3     O     4.18674  4.18674  0.00000 -0.37348
       4     H     0.46011  0.46011  0.00000  0.07979
       5     H     0.44736  0.44736  0.00000  0.10529
       6     C     2.93906  2.93906  0.00000  0.12187
       7     C     3.15428  3.15428  0.00000 -0.30856
       8     C     3.15603  3.15603  0.00000 -0.31206
       9     H     0.44626  0.44626  0.00000  0.10749
      10     H     0.44479  0.44479  0.00000  0.11042
      11     H     0.45106  0.45106  0.00000  0.09789
      12     H     0.45548  0.45548  0.00000  0.08903
      13     H     0.44479  0.44479  0.00000  0.11042
      14     H     0.44945  0.44945  0.00000  0.10110
      15     H     0.45564  0.45564  0.00000  0.08871

   Total alpha = 21.00000, Total beta = 21.00000, Total charge =  0.00000

*** Psi4 exiting successfully. Buy a developer a beer!
