  ==> Input File <==

--------------------------------------------------------------------------
set {
	reference rhf
	basis 6-31G*
}

set_num_threads( 4 )
memory 2 gb

molecule MOL {
0 1

H	 2.591676	 2.013956	 0.335017
O	 3.341076	 1.666752	 -0.126416
C	 3.569581	 0.339145	 0.272707
C	 2.539767	 -0.640285	 -0.279495
H	 4.553106	 0.084646	 -0.100901
H	 3.608576	 0.269204	 1.359154
C	 1.115811	 -0.397273	 0.226630
H	 2.556196	 -0.582511	 -1.364741
H	 2.852081	 -1.648031	 -0.010655
C	 0.115918	 -1.429151	 -0.302766
H	 0.797950	 0.599468	 -0.066350
H	 1.109961	 -0.420744	 1.316472
C	 0.722442	 -2.793045	 -0.652428
H	 -0.678741	 -1.565539	 0.428509
H	 -0.359200	 -1.024990	 -1.194178
C	 1.262665	 -3.583543	 0.542457
H	 -0.041317	 -3.390157	 -1.146335
H	 1.517736	 -2.655920	 -1.383553
C	 1.760298	 -4.978640	 0.158395
H	 0.480474	 -3.676656	 1.294533
H	 2.076237	 -3.038387	 1.014906
C	 2.305999	 -5.767434	 1.348217
H	 0.947647	 -5.536559	 -0.301836
H	 2.535142	 -4.888073	 -0.600090
H	 1.544435	 -5.903377	 2.110952
H	 2.648699	 -6.751716	 1.044275
H	 3.144976	 -5.253073	 1.808559

	symmetry c1
}
set optking {
	frozen_dihedral = ("
		14 10 7 4
	")
}

ee = optimize('scf')
oeprop('DIPOLE', 'QUADRUPOLE', 'MULLIKEN_CHARGES')
f=open( 'psi4out.xyz', 'w' )
f.write( "27  " )
f.write( str(ee) + "\n" )
f.write( MOL.save_string_xyz() )
f.close()
--------------------------------------------------------------------------

    Molecular point group: c1
  Charge       = 0
  Multiplicity = 1
  Basis Set: 6-31G*
  Basis Set:
  @DF-RHF Final Energy:  -388.27071893956935
    Total Energy =                       -388.2707189395696332
    Molecular point group: c1
  Basis Set: 6-31G*
  Basis Set:
  Basis Set: 6-31G*
  Basis Set:
  @DF-RHF Final Energy:  -388.27427175747158
    Total Energy =                       -388.2742717574711833
  Basis Set: 6-31G*
  Basis Set:
  Basis Set: 6-31G*
  Basis Set:
  @DF-RHF Final Energy:  -388.27506202494123
    Total Energy =                       -388.2750620249416897
  Basis Set: 6-31G*
  Basis Set:
  Basis Set: 6-31G*
  Basis Set:
  @DF-RHF Final Energy:  -388.27512131662860
    Total Energy =                       -388.2751213166299067
  Basis Set: 6-31G*
  Basis Set:
  Basis Set: 6-31G*
  Basis Set:
  @DF-RHF Final Energy:  -388.27517768209088
    Total Energy =                       -388.2751776820907708
  Basis Set: 6-31G*
  Basis Set:
  Basis Set: 6-31G*
  Basis Set:
  @DF-RHF Final Energy:  -388.27518179177883
    Total Energy =                       -388.2751817917786639
  Basis Set: 6-31G*
  Basis Set:
  Basis Set: 6-31G*
  Basis Set:
  @DF-RHF Final Energy:  -388.27518326444294
    Total Energy =                       -388.2751832644426031
  Basis Set: 6-31G*
  Basis Set:
  Charge       = 0
  Multiplicity = 1
  Basis Set: 6-31G*
  Basis Set:

    Orbital Energies (a.u.)
    -----------------------

    Doubly Occupied:

       1A    -20.552336     2A    -11.267359     3A    -11.220870
       4A    -11.217824     5A    -11.216241     6A    -11.214935
       7A    -11.214761     8A    -11.214098     9A    -11.209729
      10A     -1.359195    11A     -1.094427    12A     -1.059075
      13A     -1.009503    14A     -0.950537    15A     -0.887732
      16A     -0.833206    17A     -0.798952    18A     -0.763560
      19A     -0.694893    20A     -0.656031    21A     -0.637029
      22A     -0.614532    23A     -0.603667    24A     -0.584630
      25A     -0.568987    26A     -0.555034    27A     -0.548539
      28A     -0.523971    29A     -0.514873    30A     -0.489768
      31A     -0.487054    32A     -0.478658    33A     -0.467719
      34A     -0.456369    35A     -0.447460    36A     -0.437546
      37A     -0.425539

  @DF-RHF Final Energy:  -388.27518390020174

   => Energetics <=

    Nuclear Repulsion Energy =            468.8897289403988111
    One-Electron Energy =               -1455.7765485346753849
    Two-Electron Energy =                 598.6116356940747210
    DFT Exchange-Correlation Energy =       0.0000000000000000
    Empirical Dispersion Energy =           0.0000000000000000
    PCM Polarization Energy =               0.0000000000000000
    EFP Energy =                            0.0000000000000000
    Total Energy =                       -388.2751839002019096
    Molecular point group: c1
  Basis Set: 6-31G*
  Basis Set:

  -Total Gradient:
     Atom            X                  Y                   Z
    ------   -----------------  -----------------  -----------------
       1        0.000003667207    -0.000009190452     0.000002856108
       2        0.000024226272     0.000001838604    -0.000015128980
       3       -0.000028045399     0.000005763218     0.000016327546
       4        0.001433291875    -0.003469598068     0.004222906632
       5       -0.000003817301     0.000014209928    -0.000001025675
       6        0.000007395029    -0.000001372185     0.000003062573
       7       -0.001119074047     0.003760290776    -0.005496897438
       8       -0.000012728604    -0.000005811176    -0.000000691370
       9        0.000000368402     0.000045188705    -0.000020542203
      10       -0.004489373810     0.005118045489    -0.001394400298
      11       -0.000000366060    -0.000007716050    -0.000005967328
      12        0.000005368178    -0.000002094326     0.000011406914
      13       -0.000025457683    -0.000002716535    -0.000002875772
      14        0.004214868177    -0.005483822723     0.002681296371
      15       -0.000009217515    -0.000016620713    -0.000009984926
      16        0.000031498233     0.000045494779     0.000014286329
      17       -0.000007260310     0.000011120392    -0.000008778169
      18        0.000001682061     0.000013009445     0.000006283981
      19       -0.000017283172     0.000001347780    -0.000005990227
      20        0.000006505578    -0.000001241126    -0.000003704297
      21       -0.000014856540    -0.000022065324     0.000007286529
      22        0.000002889427     0.000005427132     0.000001864851
      23       -0.000001688334     0.000000015254    -0.000002810610
      24       -0.000000708431    -0.000000301219     0.000002487565
      25       -0.000001237280    -0.000002287723    -0.000001760913
      26        0.000001054237     0.000002521408    -0.000001585402
      27       -0.000001700192     0.000000564703     0.000002078210

  **** Optimization is complete! (in 8 steps) ****
    Final optimized geometry and variables:
    Molecular point group: c1

    Geometry (in Angstrom), charge = 0, multiplicity = 1:

    H            0.574738565417     4.025778395493     0.159357960052
    O            1.332381204220     3.741687603554    -0.330616662272
    C            1.696578830510     2.444827555961     0.067844483694
    C            0.756717549997     1.363309581214    -0.456373207810
    H            2.691013266039     2.284412129293    -0.328539771529
    H            1.768361466758     2.385302383499     1.153360182224
    C           -0.662853371999     1.474007588938     0.109241024409
    H            0.736577309888     1.427786474071    -1.541528674513
    H            1.187511525685     0.399737398877    -0.203713264895
    C           -1.694447990011     0.435073218191    -0.390299605669
    H           -1.058933806269     2.463510847869    -0.101174927235
    H           -0.591007519724     1.404357191795     1.193792219780
    C           -1.155595746521    -0.954569653893    -0.765783874504
    H           -2.416869333328     0.268880412191     0.404965519741
    H           -2.229556271525     0.840019461985    -1.243654668793
    C           -0.683656738147    -1.787299583614     0.429940691505
    H           -1.956323462973    -1.497530327430    -1.263695937390
    H           -0.356152594358    -0.870187141534    -1.496494468731
    C           -0.151086146788    -3.164647776003     0.029870379160
    H           -1.514540578821    -1.912653830559     1.122747996418
    H            0.088343312296    -1.255132048597     0.981183147169
    C            0.293791839092    -4.005190367013     1.226236461725
    H           -0.920191578413    -3.701082041928    -0.521802469918
    H            0.685042203093    -3.042000029798    -0.655428929226
    H           -0.530296030099    -4.176645940912     1.913061653205
    H            0.667126355269    -4.974202596745     0.909663905989
    H            1.086796345708    -3.510581149126     1.780266496107

  Mulliken Charges: (a.u.)
   Center  Symbol    Alpha    Beta     Spin     Total
       1     H     0.27977  0.27977  0.00000  0.44046
       2     O     4.37108  4.37108  0.00000 -0.74215
       3     C     2.99691  2.99691  0.00000  0.00617
       4     C     3.16502  3.16502  0.00000 -0.33004
       5     H     0.41441  0.41441  0.00000  0.17118
       6     H     0.43229  0.43229  0.00000  0.13542
       7     C     3.16347  3.16347  0.00000 -0.32694
       8     H     0.41511  0.41511  0.00000  0.16979
       9     H     0.42104  0.42104  0.00000  0.15793
      10     C     3.15365  3.15365  0.00000 -0.30731
      11     H     0.42373  0.42373  0.00000  0.15255
      12     H     0.42422  0.42422  0.00000  0.15155
      13     C     3.15842  3.15842  0.00000 -0.31684
      14     H     0.42148  0.42148  0.00000  0.15704
      15     H     0.41843  0.41843  0.00000  0.16314
      16     C     3.15276  3.15276  0.00000 -0.30551
      17     H     0.42088  0.42088  0.00000  0.15825
      18     H     0.42005  0.42005  0.00000  0.15990
      19     C     3.15144  3.15144  0.00000 -0.30288
      20     H     0.42410  0.42410  0.00000  0.15180
      21     H     0.42386  0.42386  0.00000  0.15228
      22     C     3.23920  3.23920  0.00000 -0.47840
      23     H     0.42261  0.42261  0.00000  0.15477
      24     H     0.42298  0.42298  0.00000  0.15405
      25     H     0.42174  0.42174  0.00000  0.15651
      26     H     0.41905  0.41905  0.00000  0.16190
      27     H     0.42232  0.42232  0.00000  0.15536

   Total alpha = 37.00000, Total beta = 37.00000, Total charge =  0.00000
