  ==> Input File <==

--------------------------------------------------------------------------
set {
	reference rhf
	basis 6-31G*
}

set_num_threads( 1 )
memory 2 gb

molecule MOL {
0 1

H	 1.991343	 -3.740302	 -0.510494
C	 2.209139	 -2.711250	 -0.243346
C	 0.954210	 -1.843513	 -0.327886
H	 2.618950	 -2.711735	 0.762776
H	 2.983922	 -2.352929	 -0.915331
C	 1.217350	 -0.386724	 0.039429
H	 0.184350	 -2.232582	 0.331152
H	 0.550799	 -1.891564	 -1.338006
N	 0.000003	 0.397874	 -0.023260
H	 1.595469	 -0.336314	 1.056999
H	 2.006564	 0.016436	 -0.603985
C	 -1.217365	 -0.386708	 0.039277
H	 -0.000031	 1.072115	 0.718656
C	 -2.452633	 0.504241	 -0.042481
H	 -1.215291	 -1.074557	 -0.802042
H	 -1.269739	 -1.003477	 0.942735
C	 -3.758029	 -0.289423	 -0.010781
H	 -2.394220	 1.093569	 -0.952170
H	 -2.440793	 1.210787	 0.785871
H	 -3.816659	 -0.981993	 -0.845726
H	 -4.617837	 0.370165	 -0.069296
H	 -3.847478	 -0.867502	 0.904682

	symmetry c1
}
set optking {
	frozen_dihedral = ("
		15 12 14 18
	")
}

ee = energy('scf')
oeprop('DIPOLE', 'QUADRUPOLE', 'MULLIKEN_CHARGES')
f=open( 'psi4out.xyz', 'w' )
f.write( "22  " )
f.write( str(ee) + "\n" )
f.write( MOL.save_string_xyz() )
f.close()
--------------------------------------------------------------------------

    Molecular point group: c1

    Geometry (in Angstrom), charge = 0, multiplicity = 1:

       Center              X                  Y                   Z               Mass
    ------------   -----------------  -----------------  -----------------  -----------------
           H          2.429420246552    -3.054742970634    -0.437180179632     1.007825032070
           C          2.647216246552    -2.025690970634    -0.170032179632    12.000000000000
           C          1.392287246552    -1.157953970634    -0.254572179632    12.000000000000
           H          3.057027246552    -2.026175970634     0.836089820368     1.007825032070
           H          3.421999246552    -1.667369970634    -0.842017179632     1.007825032070
           C          1.655427246552     0.298835029366     0.112742820368    12.000000000000
           H          0.622427246552    -1.547022970634     0.404465820368     1.007825032070
           H          0.988876246552    -1.206004970634    -1.264692179632     1.007825032070
           N          0.438080246552     1.083433029366     0.050053820368    14.003074004780
           H          2.033546246552     0.349245029366     1.130312820368     1.007825032070
           H          2.444641246552     0.701995029366    -0.530671179632     1.007825032070
           C         -0.779287753448     0.298851029366     0.112590820368    12.000000000000
           H          0.438046246552     1.757674029366     0.791969820368     1.007825032070
           C         -2.014555753448     1.189800029366     0.030832820368    12.000000000000
           H         -0.777213753448    -0.388997970634    -0.728728179632     1.007825032070
           H         -0.831661753448    -0.317917970634     1.016048820368     1.007825032070
           C         -3.319951753448     0.396136029366     0.062532820368    12.000000000000
           H         -1.956142753448     1.779128029366    -0.878856179632     1.007825032070
           H         -2.002715753448     1.896346029366     0.859184820368     1.007825032070
           H         -3.378581753448    -0.296433970634    -0.772412179632     1.007825032070
           H         -4.179759753448     1.055724029366     0.004017820368     1.007825032070
           H         -3.409400753448    -0.181942970634     0.977995820368     1.007825032070

  Charge       = 0
  Multiplicity = 1
  Basis Set: 6-31G*
  Basis Set:

    Orbital Energies (a.u.)
    -----------------------

    Doubly Occupied:

       1A    -15.530259     2A    -11.238102     3A    -11.235870
       4A    -11.214341     5A    -11.211642     6A    -11.209953
       7A    -11.208983     8A     -1.207048     9A     -1.054686
      10A     -1.027783    11A     -0.928355    12A     -0.881130
      13A     -0.819372    14A     -0.770904    15A     -0.670716
      16A     -0.633592    17A     -0.618226    18A     -0.613898
      19A     -0.568923    20A     -0.559452    21A     -0.545019
      22A     -0.532051    23A     -0.504458    24A     -0.486703
      25A     -0.477748    26A     -0.473093    27A     -0.466250
      28A     -0.455456    29A     -0.349599

  @DF-RHF Final Energy:  -290.36486727432901

   => Energetics <=

    Nuclear Repulsion Energy =            322.5570324155916637
    One-Electron Energy =               -1030.8566188236620746
    Two-Electron Energy =                 417.9347191337424192
    DFT Exchange-Correlation Energy =       0.0000000000000000
    Empirical Dispersion Energy =           0.0000000000000000
    PCM Polarization Energy =               0.0000000000000000
    EFP Energy =                            0.0000000000000000
    Total Energy =                       -290.3648672743279349

  Mulliken Charges: (a.u.)
   Center  Symbol    Alpha    Beta     Spin     Total
       1     H     0.41833  0.41833  0.00000  0.16333
       2     C     3.23914  3.23914  0.00000 -0.47829
       3     C     3.17525  3.17525  0.00000 -0.35050
       4     H     0.42192  0.42192  0.00000  0.15616
       5     H     0.42059  0.42059  0.00000  0.15882
       6     C     3.03759  3.03759  0.00000 -0.07518
       7     H     0.41485  0.41485  0.00000  0.17030
       8     H     0.41560  0.41560  0.00000  0.16881
       9     N     3.86000  3.86000  0.00000 -0.72000
      10     H     0.43388  0.43388  0.00000  0.13224
      11     H     0.42155  0.42155  0.00000  0.15689
      12     C     3.05897  3.05897  0.00000 -0.11793
      13     H     0.33310  0.33310  0.00000  0.33381
      14     C     3.15164  3.15164  0.00000 -0.30328
      15     H     0.41612  0.41612  0.00000  0.16776
      16     H     0.43581  0.43581  0.00000  0.12838
      17     C     3.24314  3.24314  0.00000 -0.48627
      18     H     0.41353  0.41353  0.00000  0.17294
      19     H     0.42772  0.42772  0.00000  0.14456
      20     H     0.42121  0.42121  0.00000  0.15757
      21     H     0.41780  0.41780  0.00000  0.16440
      22     H     0.42226  0.42226  0.00000  0.15547

   Total alpha = 29.00000, Total beta = 29.00000, Total charge = -0.00000
