  ==> Input File <==

--------------------------------------------------------------------------
set {
	reference rhf
	basis 6-31G*
}

set_num_threads( 4 )
memory 2 gb

molecule MOL {
0 1

O	 2.172901	 -0.281123	 0.382465
C	 1.122059	 0.121804	 -0.000188
C	 -0.170150	 -0.657997	 -0.000612
O	 0.946740	 1.342752	 -0.489600
C	 -1.412532	 0.227344	 -0.000452
H	 -0.153702	 -1.313099	 -0.867402
H	 -0.153924	 -1.313811	 0.865644
C	 -2.706999	 -0.587347	 -0.000541
H	 -1.388000	 0.879466	 -0.868000
H	 -1.387972	 0.879138	 0.867341
C	 -3.956778	 0.291888	 0.000910
H	 -2.726114	 -1.239230	 -0.871609
H	 -2.725217	 -1.240844	 0.869333
H	 -3.985213	 0.933254	 -0.875158
H	 -4.860123	 -0.309979	 0.000519
H	 -3.984618	 0.931166	 0.878514
C	 2.085596	 2.182420	 -0.545321
H	 2.488212	 2.342890	 0.444445
H	 1.744079	 3.115392	 -0.965890
H	 2.849207	 1.745940	 -1.172928

	symmetry c1
}
set optking {
	frozen_dihedral = ("
		1 2 3 6
	")
}

ee = optimize('scf')
oeprop('DIPOLE', 'QUADRUPOLE', 'MULLIKEN_CHARGES')
f=open( 'psi4out.xyz', 'w' )
f.write( "20  " )
f.write( str(ee) + "\n" )
f.write( MOL.save_string_xyz() )
f.close()
--------------------------------------------------------------------------

    Molecular point group: c1
  Charge       = 0
  Multiplicity = 1
  Basis Set: 6-31G*
  Basis Set:
  @DF-RHF Final Energy:  -383.93822759529763
    Total Energy =                       -383.9382275952973487
    Molecular point group: c1
  Basis Set: 6-31G*
  Basis Set:
  Basis Set: 6-31G*
  Basis Set:
  @DF-RHF Final Energy:  -383.93820827751938
    Total Energy =                       -383.9382082775192657
  Basis Set: 6-31G*
  Basis Set:
  Basis Set: 6-31G*
  Basis Set:
  @DF-RHF Final Energy:  -383.93830594676120
    Total Energy =                       -383.9383059467612611
  Basis Set: 6-31G*
  Basis Set:
  Basis Set: 6-31G*
  Basis Set:
  @DF-RHF Final Energy:  -383.93927653018994
    Total Energy =                       -383.9392765301901136
  Basis Set: 6-31G*
  Basis Set:
  Basis Set: 6-31G*
  Basis Set:
  @DF-RHF Final Energy:  -383.93933360711975
    Total Energy =                       -383.9393336071194653
  Basis Set: 6-31G*
  Basis Set:
  Basis Set: 6-31G*
  Basis Set:
  @DF-RHF Final Energy:  -383.93933507053271
    Total Energy =                       -383.9393350705329340
  Basis Set: 6-31G*
  Basis Set:
  Basis Set: 6-31G*
  Basis Set:
  @DF-RHF Final Energy:  -383.93933895563163
    Total Energy =                       -383.9393389556314560
  Basis Set: 6-31G*
  Basis Set:
  Charge       = 0
  Multiplicity = 1
  Basis Set: 6-31G*
  Basis Set:

    Orbital Energies (a.u.)
    -----------------------

    Doubly Occupied:

       1A    -20.606079     2A    -20.541384     3A    -11.372281
       4A    -11.281576     5A    -11.235712     6A    -11.224390
       7A    -11.222698     8A    -11.213519     9A     -1.470058
      10A     -1.361097    11A     -1.091540    12A     -1.024026
      13A     -0.966765    14A     -0.892406    15A     -0.806275
      16A     -0.774812    17A     -0.693134    18A     -0.683257
      19A     -0.671134    20A     -0.647536    21A     -0.594303
      22A     -0.591856    23A     -0.580564    24A     -0.543714
      25A     -0.531330    26A     -0.523385    27A     -0.504388
      28A     -0.492105    29A     -0.479963    30A     -0.473594
      31A     -0.453197    32A     -0.427836

  @DF-RHF Final Energy:  -383.93933940269358

   => Energetics <=

    Nuclear Repulsion Energy =            383.5937942294183358
    One-Electron Energy =               -1283.1144388629377318
    Two-Electron Energy =                 515.5813052308259330
    DFT Exchange-Correlation Energy =       0.0000000000000000
    Empirical Dispersion Energy =           0.0000000000000000
    PCM Polarization Energy =               0.0000000000000000
    EFP Energy =                            0.0000000000000000
    Total Energy =                       -383.9393394026934629
    Molecular point group: c1
  Basis Set: 6-31G*
  Basis Set:

  -Total Gradient:
     Atom            X                  Y                   Z
    ------   -----------------  -----------------  -----------------
       1        0.000174497725    -0.000280497913    -0.000775314163
       2       -0.000158485202     0.000246845930     0.001203127963
       3       -0.000333063373     0.000606359636    -0.000837849029
       4        0.000017797825     0.000046853238    -0.000017083980
       5       -0.000015573665    -0.000006406411    -0.000001897940
       6        0.000325104293    -0.000601163690     0.000425753329
       7       -0.000003106698    -0.000003309704     0.000000160329
       8       -0.000000262554     0.000000715444    -0.000024311112
       9       -0.000011062902    -0.000012876056     0.000008989876
      10        0.000007806987     0.000001758937     0.000003846951
      11        0.000004790378     0.000003506288     0.000008973159
      12        0.000000050397    -0.000002187931    -0.000003384920
      13        0.000003106811     0.000003272470    -0.000002856456
      14       -0.000001870964    -0.000004195356    -0.000002684040
      15        0.000002836768    -0.000001602213     0.000005774250
      16        0.000001032031     0.000004940407    -0.000002484927
      17       -0.000013610287     0.000002198235     0.000026476579
      18        0.000003857132     0.000003232629    -0.000006463048
      19       -0.000002505655    -0.000001572206    -0.000005087080
      20       -0.000001339048    -0.000005871737    -0.000003685742

  **** Optimization is complete! (in 8 steps) ****
    Final optimized geometry and variables:
    Molecular point group: c1

    Geometry (in Angstrom), charge = 0, multiplicity = 1:

    O            2.352399971160    -0.655863862858     0.475299426928
    C            1.328251201837    -0.191562455555     0.087269713078
    C            0.020563104861    -0.950314208991     0.064442449181
    O            1.232864497195     1.033167856748    -0.408795159440
    C           -1.254773146534    -0.107333161198     0.073107645833
    H            0.052479006293    -1.580122779831    -0.822266812939
    H            0.049231400476    -1.626267103652     0.911225031865
    C           -2.515035274043    -0.974203620185     0.097647365154
    H           -1.271419688309     0.537763967738    -0.798476861885
    H           -1.250165998647     0.548604664410     0.940051237570
    C           -3.799941303714    -0.147245005168     0.105469301031
    H           -2.516269336340    -1.634396269194    -0.767254790407
    H           -2.495429048413    -1.618970004757     0.973534796957
    H           -3.866192812232     0.482294285220    -0.777193866125
    H           -4.677261339581    -0.786043518163     0.123209006239
    H           -3.844065153989     0.500001900022     0.976674833609
    C            2.423496812602     1.798862042117    -0.459889727634
    H            2.830761884440     1.933002527325     0.531651234617
    H            2.143360201163     2.751203008449    -0.882344483331
    H            3.159672916504     1.313123020319    -1.083818398569

  Mulliken Charges: (a.u.)
   Center  Symbol    Alpha    Beta     Spin     Total
       1     O     4.28880  4.28880  0.00000 -0.57760
       2     C     2.60574  2.60574  0.00000  0.78852
       3     C     3.20936  3.20936  0.00000 -0.41872
       4     O     4.30355  4.30355  0.00000 -0.60710
       5     C     3.15285  3.15285  0.00000 -0.30570
       6     H     0.40016  0.40016  0.00000  0.19968
       7     H     0.39780  0.39780  0.00000  0.20441
       8     C     3.15456  3.15456  0.00000 -0.30912
       9     H     0.41035  0.41035  0.00000  0.17931
      10     H     0.41761  0.41761  0.00000  0.16478
      11     C     3.23949  3.23949  0.00000 -0.47898
      12     H     0.42193  0.42193  0.00000  0.15614
      13     H     0.42115  0.42115  0.00000  0.15770
      14     H     0.42048  0.42048  0.00000  0.15905
      15     H     0.41778  0.41778  0.00000  0.16443
      16     H     0.42050  0.42050  0.00000  0.15900
      17     C     3.09261  3.09261  0.00000 -0.18522
      18     H     0.40817  0.40817  0.00000  0.18366
      19     H     0.40865  0.40865  0.00000  0.18269
      20     H     0.40846  0.40846  0.00000  0.18307

   Total alpha = 32.00000, Total beta = 32.00000, Total charge = -0.00000
