  ==> Input File <==

--------------------------------------------------------------------------
set {
	reference rhf
	basis cc-pvtz
}

set_num_threads( 4 )
memory 2 gb

molecule MOL {
0 1

H	 -3.162190	 0.493205	 -0.000107
C	 -2.363908	 -0.234727	 0.000005
O	 -1.158738	 0.454634	 -0.000087
H	 -2.464314	 -0.863616	 -0.882153
H	 -2.464327	 -0.863359	 0.882345
C	 -0.028611	 -0.359694	 0.000037
C	 1.212847	 0.509314	 -0.000053
H	 -0.034155	 -1.007047	 -0.877198
H	 -0.034195	 -1.006836	 0.877430
C	 2.242443	 0.053767	 -1.028041
H	 0.917186	 1.534018	 -0.196248
H	 1.645515	 0.493609	 0.994182
H	 1.837332	 0.085033	 -2.034020
H	 3.117777	 0.691226	 -1.006682
H	 2.570746	 -0.962205	 -0.835465

	symmetry c1
}
set optking {
	frozen_dihedral = ("
		11 7 6 8
	")
}

ee = optimize('scf')
oeprop('DIPOLE', 'QUADRUPOLE', 'MULLIKEN_CHARGES')
f=open( 'psi4out.xyz', 'w' )
f.write( "15  " )
f.write( str(ee) + "\n" )
f.write( MOL.save_string_xyz() )
f.close()
--------------------------------------------------------------------------

    Molecular point group: c1
  Charge       = 0
  Multiplicity = 1
  Basis Set: CC-PVTZ
  Basis Set:
  @DF-RHF Final Energy:  -232.22270767734204
    Total Energy =                       -232.2227076773420436
    Molecular point group: c1
  Basis Set: CC-PVTZ
  Basis Set:
  Basis Set: CC-PVTZ
  Basis Set:
  @DF-RHF Final Energy:  -232.22305904043333
    Total Energy =                       -232.2230590404334976
  Basis Set: CC-PVTZ
  Basis Set:
  Basis Set: CC-PVTZ
  Basis Set:
  @DF-RHF Final Energy:  -232.22315055481596
    Total Energy =                       -232.2231505548160158
  Basis Set: CC-PVTZ
  Basis Set:
  Basis Set: CC-PVTZ
  Basis Set:
  @DF-RHF Final Energy:  -232.22315216204044
    Total Energy =                       -232.2231521620404919
  Basis Set: CC-PVTZ
  Basis Set:
  Charge       = 0
  Multiplicity = 1
  Basis Set: CC-PVTZ
  Basis Set:

    Orbital Energies (a.u.)
    -----------------------

    Doubly Occupied:

       1A    -20.548299     2A    -11.264617     3A    -11.261732
       4A    -11.212456     5A    -11.209714     6A     -1.381984
       7A     -1.055086     8A     -0.955610     9A     -0.878712
      10A     -0.809839    11A     -0.672849    12A     -0.658665
      13A     -0.633649    14A     -0.598687    15A     -0.570102
      16A     -0.544987    17A     -0.497455    18A     -0.490997
      19A     -0.478115    20A     -0.462642    21A     -0.414221

  @DF-RHF Final Energy:  -232.22315250533867

   => Energetics <=

    Nuclear Repulsion Energy =            189.9707738091535987
    One-Electron Energy =                -691.1870142669315555
    Two-Electron Energy =                 268.9930879524393958
    DFT Exchange-Correlation Energy =       0.0000000000000000
    Empirical Dispersion Energy =           0.0000000000000000
    PCM Polarization Energy =               0.0000000000000000
    EFP Energy =                            0.0000000000000000
    Total Energy =                       -232.2231525053385894
    Molecular point group: c1
  Basis Set: CC-PVTZ
  Basis Set:

  -Total Gradient:
     Atom            X                  Y                   Z
    ------   -----------------  -----------------  -----------------
       1       -0.000014156126    -0.000005628384    -0.000001486248
       2       -0.000007022708     0.000007454969     0.000001228815
       3        0.000018510798    -0.000013769118     0.000001282572
       4       -0.000006354277    -0.000000701642     0.000000003824
       5       -0.000005576984    -0.000001286881    -0.000000158872
       6       -0.001893576192     0.002864003557    -0.001355383450
       7        0.000809947047    -0.001137609863    -0.003339475153
       8        0.001507680943    -0.002212281183     0.001626552559
       9       -0.000026745111     0.000019703471     0.000001739695
      10       -0.000003210131    -0.000001721890    -0.000011075009
      11       -0.000357042262     0.000490870453     0.003054238402
      12       -0.000009946073    -0.000018628433     0.000001514278
      13        0.000001602857     0.000002872808     0.000010058521
      14       -0.000004100442     0.000001920759     0.000007351403
      15       -0.000010011338     0.000004801376     0.000003608664

  **** Optimization is complete! (in 5 steps) ****
    Final optimized geometry and variables:
    Molecular point group: c1

    Geometry (in Angstrom), charge = 0, multiplicity = 1:

    H           -3.125360215243     0.412346683445     0.242346136382
    C           -2.324104160773    -0.312442940436     0.237479500690
    O           -1.122074004330     0.381122460551     0.200513421874
    H           -2.440544801817    -0.956358780740    -0.631899762024
    H           -2.403157259038    -0.927177257615     1.131746045917
    C            0.009716105682    -0.432040719566     0.182269873740
    C            1.270137756279     0.435202867661     0.192553437159
    H           -0.001525665423    -1.079248635944    -0.694271658729
    H           -0.002215981421    -1.093979756053     1.047380457461
    C            2.330083019524    -0.018038464551    -0.804276943223
    H            0.968370325707     1.456265842289    -0.003460935349
    H            1.694921231874     0.440743109555     1.190753359478
    H            1.956165857182     0.031995093450    -1.821107832229
    H            3.213923190377     0.605794321086    -0.742726666492
    H            2.637362114149    -1.041736325499    -0.615249561499

  Mulliken Charges: (a.u.)
   Center  Symbol    Alpha    Beta     Spin     Total
       1     H     0.44691  0.44691  0.00000  0.10617
       2     C     3.02959  3.02959  0.00000 -0.05919
       3     O     4.17115  4.17115  0.00000 -0.34229
       4     H     0.47300  0.47300  0.00000  0.05399
       5     H     0.47185  0.47185  0.00000  0.05629
       6     C     2.96160  2.96160  0.00000  0.07680
       7     C     3.08637  3.08637  0.00000 -0.17273
       8     H     0.47510  0.47510  0.00000  0.04980
       9     H     0.47491  0.47491  0.00000  0.05018
      10     C     3.15257  3.15257  0.00000 -0.30514
      11     H     0.44493  0.44493  0.00000  0.11013
      12     H     0.45383  0.45383  0.00000  0.09234
      13     H     0.45338  0.45338  0.00000  0.09325
      14     H     0.44842  0.44842  0.00000  0.10315
      15     H     0.45638  0.45638  0.00000  0.08724

   Total alpha = 21.00000, Total beta = 21.00000, Total charge =  0.00000
