                              Psi4 1.0.54 Driver

  ==> Input File <==

--------------------------------------------------------------------------
set {
	reference rhf
	basis cc-pvtz
}

set_num_threads( 4 )
memory 2 gb

molecule MOL {
0 1

H	 -0.237847	 -0.971826	 0.855838
N	 -0.625934	 -0.663929	 -0.000707
C	 -1.978635	 -0.158664	 0.001017
C	 0.143068	 -0.738410	 -1.109613
H	 -2.519057	 -0.493535	 -0.876362
H	 -1.938890	 0.917202	 -0.004137
H	 -2.514266	 -0.485137	 0.884506
C	 1.530083	 -1.296475	 -0.878154
O	 -0.229003	 -0.388858	 -2.190562
H	 1.471269	 -2.304099	 -0.483397
H	 2.063029	 -1.308368	 -1.814581
H	 2.069697	 -0.686369	 -0.163167

	symmetry c1
}
set optking {
	frozen_dihedral = ("
		4 2 3 5
	")
}

ee,wfn = optimize('scf', return_wfn=True)
oeprop( wfn, 'DIPOLE', 'QUADRUPOLE', 'MULLIKEN_CHARGES')
f=open( 'psi4out.xyz', 'w' )
f.write( "12  " )
f.write( str(ee) + "\n" )
f.write( MOL.save_string_xyz() )
f.close()
--------------------------------------------------------------------------

    Molecular point group: c1
  Charge       = 0
  Multiplicity = 1
  Basis Set: CC-PVTZ
  Basis Set:
  @DF-RHF Final Energy:  -247.10038230721821
    Total Energy =                       -247.1003823072181262
    Molecular point group: c1
  Basis Set: CC-PVTZ
  Basis Set:
  Basis Set: CC-PVTZ
  Basis Set:
  @DF-RHF Final Energy:  -247.10104551612730
    Total Energy =                       -247.1010455161272148
  Basis Set: CC-PVTZ
  Basis Set:
  Basis Set: CC-PVTZ
  Basis Set:
  @DF-RHF Final Energy:  -247.10105840248701
    Total Energy =                       -247.1010584024870695
  Basis Set: CC-PVTZ
  Basis Set:
  Basis Set: CC-PVTZ
  Basis Set:
  @DF-RHF Final Energy:  -247.10118728985665
    Total Energy =                       -247.1011872898565684
  Basis Set: CC-PVTZ
  Basis Set:
  @DF-RHF Final Energy:  -247.10120137405380
    Total Energy =                       -247.1012013740538578
  @DF-RHF Final Energy:  -247.10122213889321
    Total Energy =                       -247.1012221388932062
  @DF-RHF Final Energy:  -247.10123466083493
    Total Energy =                       -247.1012346608350754
  @DF-RHF Final Energy:  -247.10123672696099
    Total Energy =                       -247.1012367269611332
  @DF-RHF Final Energy:  -247.10123802653641
    Total Energy =                       -247.1012380265364072
  @DF-RHF Final Energy:  -247.10124230735815
    Total Energy =                       -247.1012423073578930
  @DF-RHF Final Energy:  -247.10123677247134
    Total Energy =                       -247.1012367724712249
  @DF-RHF Final Energy:  -247.10124237716701
    Total Energy =                       -247.1012423771668409
  @DF-RHF Final Energy:  -247.10124658682275
    Total Energy =                       -247.1012465868228674
  @DF-RHF Final Energy:  -247.10124830976679
    Total Energy =                       -247.1012483097669588
  @DF-RHF Final Energy:  -247.10125338948910
    Total Energy =                       -247.1012533894889884
  @DF-RHF Final Energy:  -247.10125970420179
    Total Energy =                       -247.1012597042017660
  @DF-RHF Final Energy:  -247.10127607890709
    Total Energy =                       -247.1012760789072331
  @DF-RHF Final Energy:  -247.10129309669236
    Total Energy =                       -247.1012930966924159
  @DF-RHF Final Energy:  -247.10132115147081
    Total Energy =                       -247.1013211514707564
  @DF-RHF Final Energy:  -247.10134153177455
    Total Energy =                       -247.1013415317745512
  @DF-RHF Final Energy:  -247.10134942749306
    Total Energy =                       -247.1013494274930054
  @DF-RHF Final Energy:  -247.10135507115146
    Total Energy =                       -247.1013550711514313
  @DF-RHF Final Energy:  -247.10136045897724
    Total Energy =                       -247.1013604589772399
  @DF-RHF Final Energy:  -247.10136557392198
    Total Energy =                       -247.1013655739219530
  @DF-RHF Final Energy:  -247.10137051649889
    Total Energy =                       -247.1013705164988892
  @DF-RHF Final Energy:  -247.10137521621235
    Total Energy =                       -247.1013752162122614
  @DF-RHF Final Energy:  -247.10137969284727
    Total Energy =                       -247.1013796928473312
  @DF-RHF Final Energy:  -247.10138393401417
    Total Energy =                       -247.1013839340139953
  @DF-RHF Final Energy:  -247.10138792847923
    Total Energy =                       -247.1013879284792552
  Basis Set: CC-PVTZ
  Basis Set:
  @DF-RHF Final Energy:  -247.10139167755642
    Total Energy =                       -247.1013916775564212
  Basis Set: CC-PVTZ
  Basis Set:
  Basis Set: CC-PVTZ
  Basis Set:
  @DF-RHF Final Energy:  -247.10139517127567
    Total Energy =                       -247.1013951712756125
  Basis Set: CC-PVTZ
  Basis Set:
  Basis Set: CC-PVTZ
  Basis Set:
  @DF-RHF Final Energy:  -247.10139840803373
    Total Energy =                       -247.1013984080337309
  Basis Set: CC-PVTZ
  Basis Set:
  Charge       = 0
  Multiplicity = 1
  Basis Set: CC-PVTZ
  Basis Set:

    Orbital Energies (a.u.)
    -----------------------

    Doubly Occupied:

       1A    -20.505419     2A    -15.576133     3A    -11.335773
       4A    -11.253689     5A    -11.228388     6A     -1.388106
       7A     -1.231394     8A     -1.016261     9A     -0.933746
      10A     -0.789477    11A     -0.690775    12A     -0.651818
      13A     -0.635799    14A     -0.585909    15A     -0.582977
      16A     -0.555979    17A     -0.547499    18A     -0.506950
      19A     -0.417258    20A     -0.390693

  @DF-RHF Final Energy:  -247.10139918809662

   => Energetics <=

    Nuclear Repulsion Energy =            181.8242670747756904
    One-Electron Energy =                -696.2032448496302095
    Two-Electron Energy =                 267.2775785867579543
    DFT Exchange-Correlation Energy =       0.0000000000000000
    Empirical Dispersion Energy =           0.0000000000000000
    PCM Polarization Energy =               0.0000000000000000
    EFP Energy =                            0.0000000000000000
    Total Energy =                       -247.1013991880965932
    Molecular point group: c1
  Basis Set: CC-PVTZ
  Basis Set:

  -Total Gradient:
     Atom            X                  Y                   Z
    ------   -----------------  -----------------  -----------------
       1        0.000002073972     0.000003585173     0.000002009915
       2        0.000138363772     0.000328402766     0.000076648385
       3       -0.000133143536    -0.000311231600     0.000071883041
       4       -0.000070438919    -0.000159582076    -0.000050786083
       5        0.000078662760     0.000184930189    -0.000081820504
       6        0.000000092618     0.000000140447     0.000001261860
       7       -0.000000505358    -0.000001076657    -0.000000453501
       8       -0.000002438605    -0.000000452157    -0.000003791488
       9       -0.000014949800    -0.000043714447    -0.000016154718
      10       -0.000007598904    -0.000025719561    -0.000019365639
      11        0.000013813407     0.000026233782    -0.000012731311
      12       -0.000003931406    -0.000001515859     0.000033300045

  **** Optimization is complete! (in 33 steps) ****
    Final optimized geometry and variables:
    Molecular point group: c1

    Geometry (in Angstrom), charge = 0, multiplicity = 1:

    H           -0.021149353040    -0.429227755653     1.673660964717
    N           -0.409621218983    -0.125617936335     0.816550688635
    C           -1.736788667980     0.444933564326     0.822461178421
    C            0.386702173750    -0.083541884817    -0.272460915577
    H           -2.221155341275     0.238920066883    -0.118618409082
    H           -1.717364498273     1.519515218247     0.965587688854
    H           -2.310821321227    -0.003691360532     1.621366782777
    C            1.786248867728    -0.621957023941    -0.079005530460
    O            0.022486841038     0.361185059989    -1.321126030185
    H            1.844537185155    -1.363191375589     0.707464307674
    H            2.124977679409    -1.049728770681    -1.009818890519
    H            2.442203198057     0.203021494257     0.174091502979

  Mulliken Charges: (a.u.)
   Center  Symbol    Alpha    Beta     Spin     Total
       1     H     0.41119  0.41119  0.00000  0.17763
       2     N     3.61575  3.61575  0.00000 -0.23150
       3     C     3.07905  3.07905  0.00000 -0.15811
       4     C     2.84061  2.84061  0.00000  0.31878
       5     H     0.43796  0.43796  0.00000  0.12409
       6     H     0.45685  0.45685  0.00000  0.08630
       7     H     0.45528  0.45528  0.00000  0.08944
       8     C     3.14727  3.14727  0.00000 -0.29453
       9     O     4.21847  4.21847  0.00000 -0.43695
      10     H     0.45724  0.45724  0.00000  0.08551
      11     H     0.43581  0.43581  0.00000  0.12838
      12     H     0.44452  0.44452  0.00000  0.11097

   Total alpha = 20.00000, Total beta = 20.00000, Total charge = -0.00000

*** Psi4 exiting successfully. Buy a developer a beer!
