  ==> Input File <==

--------------------------------------------------------------------------
set {
	reference rhf
	basis 6-31G*
}

set_num_threads( 4 )
memory 2 gb

molecule MOL {
0 1

H	 -2.698709	 -0.000305	 0.034435
C	 -1.693833	 0.000034	 0.434417
O	 -0.828952	 -0.000968	 -0.659236
H	 -1.574200	 0.882896	 1.055746
H	 -1.574147	 -0.881698	 1.057355
C	 -1.322424	 0.420967	 -1.909420
C	 -2.422493	 -0.494187	 -2.443517
C	 -1.739178	 1.890414	 -1.908695
H	 -0.462123	 0.320456	 -2.560428
H	 -2.111552	 -1.531545	 -2.382252
H	 -2.626826	 -0.260788	 -3.483714
H	 -3.352638	 -0.381924	 -1.895438
H	 -0.955633	 2.503449	 -1.476604
H	 -1.913103	 2.227297	 -2.925909
H	 -2.653787	 2.057958	 -1.349000

	symmetry c1
}
set optking {
	frozen_dihedral = ("
		6 3 2 1
	")
}

ee = optimize('scf')
oeprop('DIPOLE', 'QUADRUPOLE', 'MULLIKEN_CHARGES')
f=open( 'psi4out.xyz', 'w' )
f.write( "15  " )
f.write( str(ee) + "\n" )
f.write( MOL.save_string_xyz() )
f.close()
--------------------------------------------------------------------------

    Molecular point group: c1
  Charge       = 0
  Multiplicity = 1
  Basis Set: 6-31G*
  Basis Set:
  @DF-RHF Final Energy:  -232.13340292109319
    Total Energy =                       -232.1334029210931362
    Molecular point group: c1
  Basis Set: 6-31G*
  Basis Set:
  Basis Set: 6-31G*
  Basis Set:
  @DF-RHF Final Energy:  -232.13506108085522
    Total Energy =                       -232.1350610808551096
  Basis Set: 6-31G*
  Basis Set:
  Basis Set: 6-31G*
  Basis Set:
  @DF-RHF Final Energy:  -232.13599547378658
    Total Energy =                       -232.1359954737865792
  Basis Set: 6-31G*
  Basis Set:
  Basis Set: 6-31G*
  Basis Set:
  @DF-RHF Final Energy:  -232.13599704042736
    Total Energy =                       -232.1359970404272985
  Basis Set: 6-31G*
  Basis Set:
  Basis Set: 6-31G*
  Basis Set:
  @DF-RHF Final Energy:  -232.13601362346174
    Total Energy =                       -232.1360136234616789
  Basis Set: 6-31G*
  Basis Set:
  Basis Set: 6-31G*
  Basis Set:
  @DF-RHF Final Energy:  -232.13603208375974
    Total Energy =                       -232.1360320837596873
  Basis Set: 6-31G*
  Basis Set:
  Charge       = 0
  Multiplicity = 1
  Basis Set: 6-31G*
  Basis Set:

    Orbital Energies (a.u.)
    -----------------------

    Doubly Occupied:

       1A    -20.546390     2A    -11.274844     3A    -11.261491
       4A    -11.211018     5A    -11.209984     6A     -1.368565
       7A     -1.049985     8A     -0.939960     9A     -0.931263
      10A     -0.781552    11A     -0.675786    12A     -0.638604
      13A     -0.632070    14A     -0.569699    15A     -0.563514
      16A     -0.552923    17A     -0.537553    18A     -0.500551
      19A     -0.497730    20A     -0.442236    21A     -0.403379

  @DF-RHF Final Energy:  -232.13603208887179

   => Energetics <=

    Nuclear Repulsion Energy =            198.6950693806602999
    One-Electron Energy =                -708.4840090709685683
    Two-Electron Energy =                 277.6529076014366524
    DFT Exchange-Correlation Energy =       0.0000000000000000
    Empirical Dispersion Energy =           0.0000000000000000
    PCM Polarization Energy =               0.0000000000000000
    EFP Energy =                            0.0000000000000000
    Total Energy =                       -232.1360320888716160
    Molecular point group: c1
  Basis Set: 6-31G*
  Basis Set:

  -Total Gradient:
     Atom            X                  Y                   Z
    ------   -----------------  -----------------  -----------------
       1        0.000130868121     0.001840500044    -0.000000505131
       2       -0.000448165294    -0.003075168158    -0.000150052303
       3        0.000825574013     0.002603171373     0.000444398336
       4        0.000002010026    -0.000008521898     0.000003479914
       5        0.000004313686     0.000008510114     0.000001055895
       6       -0.000499836366    -0.001388563154    -0.000239706337
       7       -0.000006019700     0.000002137761    -0.000019141060
       8       -0.000008819714     0.000018269782    -0.000021404125
       9       -0.000003404850    -0.000005639165     0.000009248304
      10        0.000006031412    -0.000001315279    -0.000012184093
      11       -0.000005435837     0.000005008929     0.000001529525
      12        0.000003205614    -0.000000455678    -0.000000558497
      13        0.000009814888    -0.000004384437    -0.000018370287
      14       -0.000011945980     0.000005236509    -0.000003791559
      15        0.000001809980     0.000001213260     0.000006001415

  **** Optimization is complete! (in 7 steps) ****
    Final optimized geometry and variables:
    Molecular point group: c1

    Geometry (in Angstrom), charge = 0, multiplicity = 1:

    H           -1.142311227769    -0.241253458419     1.443235683707
    C           -0.097459881834    -0.315604800346     1.721679382724
    O            0.758722826143    -0.390505440791     0.619569900003
    H            0.144672819895     0.548053692142     2.334833233510
    H            0.038654162128    -1.209535293086     2.317435453873
    C            0.296590649639     0.053038372463    -0.634492901261
    C           -0.784515577682    -0.861606644553    -1.206717242753
    C           -0.121793332143     1.521613214818    -0.614385241978
    H            1.171444263136    -0.034847570080    -1.267565782794
    H           -0.450028355833    -1.892813458521    -1.182699675932
    H           -0.993720944554    -0.593970155487    -2.237952541171
    H           -1.717360879018    -0.792718027442    -0.656355531406
    H            0.671486862117     2.131774762834    -0.196184114955
    H           -0.323548958201     1.869634695209    -1.622672847867
    H           -1.020520598498     1.681027853647    -0.026485681677

  Mulliken Charges: (a.u.)
   Center  Symbol    Alpha    Beta     Spin     Total
       1     H     0.43005  0.43005  0.00000  0.13990
       2     C     3.07944  3.07944  0.00000 -0.15888
       3     O     4.31451  4.31451  0.00000 -0.62903
       4     H     0.42463  0.42463  0.00000  0.15073
       5     H     0.41616  0.41616  0.00000  0.16768
       6     C     2.91020  2.91020  0.00000  0.17960
       7     C     3.25001  3.25001  0.00000 -0.50002
       8     C     3.25258  3.25258  0.00000 -0.50516
       9     H     0.41549  0.41549  0.00000  0.16903
      10     H     0.41145  0.41145  0.00000  0.17710
      11     H     0.42055  0.42055  0.00000  0.15890
      12     H     0.42207  0.42207  0.00000  0.15585
      13     H     0.41173  0.41173  0.00000  0.17654
      14     H     0.41927  0.41927  0.00000  0.16145
      15     H     0.42184  0.42184  0.00000  0.15632

   Total alpha = 21.00000, Total beta = 21.00000, Total charge =  0.00000
