  ==> Input File <==

--------------------------------------------------------------------------
set {
	reference rhf
	basis 6-31G*
}

set_num_threads( 4 )
memory 2 gb

molecule MOL {
0 1

H	 -0.121741	 -6.156630	 0.415862
C	 0.238573	 -5.133835	 0.373279
C	 -0.921112	 -4.146802	 0.247341
H	 0.814550	 -4.949595	 1.275794
H	 0.916391	 -5.057846	 -0.472319
C	 -0.457195	 -2.695232	 0.183137
H	 -1.599354	 -4.256123	 1.087833
H	 -1.496252	 -4.379524	 -0.647335
N	 -1.584387	 -1.788043	 0.094231
H	 0.094682	 -2.454960	 1.087938
H	 0.244099	 -2.571299	 -0.648852
C	 -1.217365	 -0.386708	 0.039277
H	 -2.135396	 -2.019647	 -0.710623
C	 -2.452633	 0.504241	 -0.042481
H	 -0.664258	 -0.150312	 0.944345
H	 -0.548682	 -0.163574	 -0.798850
C	 -3.758029	 -0.289423	 -0.010781
H	 -2.394220	 1.093569	 -0.952170
H	 -2.440793	 1.210787	 0.785871
H	 -3.816659	 -0.981993	 -0.845726
H	 -4.617837	 0.370165	 -0.069296
H	 -3.847478	 -0.867502	 0.904682

	symmetry c1
}
set optking {
	frozen_dihedral = ("
		15 12 14 18
	")
}

ee = optimize('scf')
oeprop('DIPOLE', 'QUADRUPOLE', 'MULLIKEN_CHARGES')
f=open( 'psi4out.xyz', 'w' )
f.write( "22  " )
f.write( str(ee) + "\n" )
f.write( MOL.save_string_xyz() )
f.close()
--------------------------------------------------------------------------

    Molecular point group: c1
  Charge       = 0
  Multiplicity = 1
  Basis Set: 6-31G*
  Basis Set:
  @DF-RHF Final Energy:  -290.37064214949021
    Total Energy =                       -290.3706421494902088
    Molecular point group: c1
  Basis Set: 6-31G*
  Basis Set:
  Basis Set: 6-31G*
  Basis Set:
  @DF-RHF Final Energy:  -290.37077466902377
    Total Energy =                       -290.3707746690237741
  Basis Set: 6-31G*
  Basis Set:
  Basis Set: 6-31G*
  Basis Set:
  @DF-RHF Final Energy:  -290.37367925837242
    Total Energy =                       -290.3736792583724764
  Basis Set: 6-31G*
  Basis Set:
  Basis Set: 6-31G*
  Basis Set:
  @DF-RHF Final Energy:  -290.37396136093656
    Total Energy =                       -290.3739613609365051
  Basis Set: 6-31G*
  Basis Set:
  @DF-RHF Final Energy:  -290.37398983989721
    Total Energy =                       -290.3739898398968080
  @DF-RHF Final Energy:  -290.37399320525486
    Total Energy =                       -290.3739932052550330
  Basis Set: 6-31G*
  Basis Set:
  @DF-RHF Final Energy:  -290.37399491583307
    Total Energy =                       -290.3739949158325544
  Basis Set: 6-31G*
  Basis Set:
  Basis Set: 6-31G*
  Basis Set:
  @DF-RHF Final Energy:  -290.37399864339375
    Total Energy =                       -290.3739986433937474
  Basis Set: 6-31G*
  Basis Set:
  Basis Set: 6-31G*
  Basis Set:
  @DF-RHF Final Energy:  -290.37400045334988
    Total Energy =                       -290.3740004533497654
  Basis Set: 6-31G*
  Basis Set:
  Charge       = 0
  Multiplicity = 1
  Basis Set: 6-31G*
  Basis Set:

    Orbital Energies (a.u.)
    -----------------------

    Doubly Occupied:

       1A    -15.533917     2A    -11.238821     3A    -11.238291
       4A    -11.213861     5A    -11.213757     6A    -11.209968
       7A    -11.203421     8A     -1.205360     9A     -1.055401
      10A     -1.019990    11A     -0.926422    12A     -0.880355
      13A     -0.804865    14A     -0.786135    15A     -0.666536
      16A     -0.627586    17A     -0.620847    18A     -0.599369
      19A     -0.574349    20A     -0.566378    21A     -0.532302
      22A     -0.529398    23A     -0.503723    24A     -0.485908
      25A     -0.484680    26A     -0.470991    27A     -0.458731
      28A     -0.450272    29A     -0.356947

  @DF-RHF Final Energy:  -290.37400064488531

   => Energetics <=

    Nuclear Repulsion Energy =            318.1234624285880273
    One-Electron Energy =               -1022.0777629754722966
    Two-Electron Energy =                 413.5802999019986146
    DFT Exchange-Correlation Energy =       0.0000000000000000
    Empirical Dispersion Energy =           0.0000000000000000
    PCM Polarization Energy =               0.0000000000000000
    EFP Energy =                            0.0000000000000000
    Total Energy =                       -290.3740006448856548
    Molecular point group: c1
  Basis Set: 6-31G*
  Basis Set:

  -Total Gradient:
     Atom            X                  Y                   Z
    ------   -----------------  -----------------  -----------------
       1       -0.000000445634     0.000000344863    -0.000000111595
       2        0.000000545245     0.000001331409     0.000000107952
       3       -0.000000123023     0.000002011410     0.000000237962
       4        0.000000246724    -0.000000229277     0.000000214269
       5       -0.000000024153     0.000000154736     0.000000150393
       6        0.000001220237     0.000000901289     0.000001928363
       7       -0.000000152436     0.000000155519     0.000000044135
       8       -0.000000409708     0.000000266814    -0.000000057990
       9        0.000003785024     0.000007433229    -0.000012796031
      10        0.000002132746    -0.000001240355     0.000000533461
      11        0.000000192867    -0.000000517534     0.000000239160
      12       -0.000965296838    -0.001145340353     0.001301337069
      13       -0.000002603094     0.000002632622     0.000000378004
      14       -0.000896094333    -0.001256572375    -0.001258531862
      15        0.000952536249     0.001150837524    -0.000885716036
      16        0.000004329365    -0.000000094735     0.000002587662
      17        0.000001037655     0.000005342839     0.000009401754
      18        0.000896631094     0.001223117337     0.000852382470
      19        0.000003698715     0.000007711681    -0.000007481470
      20        0.000000040080    -0.000000500222    -0.000003571890
      21       -0.000001999058    -0.000000100499    -0.000000507276
      22        0.000000752278     0.000002354079    -0.000000768506

  **** Optimization is complete! (in 10 steps) ****
    Final optimized geometry and variables:
    Molecular point group: c1

    Geometry (in Angstrom), charge = 0, multiplicity = 1:

    H            1.431276142689    -4.169179697650     0.306777724278
    C            1.762681070724    -3.135885779574     0.291152314924
    C            0.582964128060    -2.182732589397     0.104753961031
    H            2.280253859581    -2.941672505579     1.226328371461
    H            2.485161791935    -3.033313572151    -0.513669890235
    C            1.006420136805    -0.717694309736     0.076973107844
    H           -0.138745651568    -2.318991954515     0.904088176166
    H            0.067502513506    -2.425356106110    -0.823103122965
    N           -0.141011203807     0.156455342898    -0.068682083408
    H            1.500001854852    -0.469073702654     1.012635522246
    H            1.748879331183    -0.566065870422    -0.713836030912
    C            0.205300883296     1.565212758780    -0.108585259909
    H           -0.638296115260    -0.093217994749    -0.901647839931
    C           -1.017740341134     2.517210227386    -0.172828586756
    H            0.778483098069     1.782012357086     0.786699730552
    H            0.875300459892     1.788956863294    -0.943408493685
    C           -2.395023439767     1.856513083631    -0.086153237074
    H           -0.962593430986     3.110476139309    -1.081286367034
    H           -0.936888975190     3.232874105529     0.640243646503
    H           -2.588496818406     1.201177304645    -0.929728585938
    H           -3.168197430766     2.619052149862    -0.086560560958
    H           -2.496138028387     1.267923748602     0.816825129372

  Mulliken Charges: (a.u.)
   Center  Symbol    Alpha    Beta     Spin     Total
       1     H     0.41768  0.41768  0.00000  0.16464
       2     C     3.24329  3.24329  0.00000 -0.48657
       3     C     3.15573  3.15573  0.00000 -0.31146
       4     H     0.42066  0.42066  0.00000  0.15868
       5     H     0.42160  0.42160  0.00000  0.15679
       6     C     3.04585  3.04585  0.00000 -0.09170
       7     H     0.41307  0.41307  0.00000  0.17385
       8     H     0.42667  0.42667  0.00000  0.14665
       9     N     3.85891  3.85891  0.00000 -0.71781
      10     H     0.42162  0.42162  0.00000  0.15677
      11     H     0.43639  0.43639  0.00000  0.12721
      12     C     3.05165  3.05165  0.00000 -0.10330
      13     H     0.33355  0.33355  0.00000  0.33290
      14     C     3.16583  3.16583  0.00000 -0.33167
      15     H     0.41966  0.41966  0.00000  0.16068
      16     H     0.43348  0.43348  0.00000  0.13304
      17     C     3.23430  3.23430  0.00000 -0.46860
      18     H     0.42167  0.42167  0.00000  0.15666
      19     H     0.41888  0.41888  0.00000  0.16223
      20     H     0.42770  0.42770  0.00000  0.14460
      21     H     0.42250  0.42250  0.00000  0.15499
      22     H     0.40930  0.40930  0.00000  0.18140

   Total alpha = 29.00000, Total beta = 29.00000, Total charge = -0.00000
