  ==> Input File <==

--------------------------------------------------------------------------
set {
	reference rhf
	basis 6-31G*
}

set_num_threads( 4 )
memory 2 gb

molecule MOL {
0 1

O	 1.401501	 2.072622	 -0.264135
C	 0.392077	 2.405168	 -0.796672
C	 -0.904306	 1.632472	 -0.782618
O	 0.272480	 3.532062	 -1.487283
C	 -0.823008	 0.326187	 0.001381
H	 -1.669026	 2.288734	 -0.376123
H	 -1.187245	 1.454237	 -1.816493
C	 -2.149452	 -0.435131	 -0.000098
H	 -0.521352	 0.539859	 1.021938
H	 -0.039923	 -0.295976	 -0.420518
C	 -3.368779	 0.488503	 -0.000883
H	 -2.193746	 -1.087250	 -0.871175
H	 -2.195311	 -1.087803	 0.870418
C	 -4.693822	 -0.272754	 -0.001129
H	 -3.325798	 1.139422	 -0.871284
H	 -3.326423	 1.139959	 0.869145
H	 -4.781274	 -0.907928	 -0.878124
H	 -5.538651	 0.408946	 -0.001420
H	 -4.781694	 -0.907783	 0.875984
C	 1.420897	 4.355438	 -1.577542
H	 1.739491	 4.672321	 -0.594887
H	 1.126578	 5.208674	 -2.168507
H	 2.230480	 3.826994	 -2.060064

	symmetry c1
}
set optking {
	frozen_dihedral = ("
		9 5 8 12
	")
}

ee = optimize('scf')
oeprop('DIPOLE', 'QUADRUPOLE', 'MULLIKEN_CHARGES')
f=open( 'psi4out.xyz', 'w' )
f.write( "23  " )
f.write( str(ee) + "\n" )
f.write( MOL.save_string_xyz() )
f.close()
--------------------------------------------------------------------------

    Molecular point group: c1
  Charge       = 0
  Multiplicity = 1
  Basis Set: 6-31G*
  Basis Set:
  @DF-RHF Final Energy:  -422.96838562027699
    Total Energy =                       -422.9683856202765355
    Molecular point group: c1
  Basis Set: 6-31G*
  Basis Set:
  Basis Set: 6-31G*
  Basis Set:
  @DF-RHF Final Energy:  -422.96965434656227
    Total Energy =                       -422.9696543465623790
  Basis Set: 6-31G*
  Basis Set:
  Basis Set: 6-31G*
  Basis Set:
  @DF-RHF Final Energy:  -422.97156131413959
    Total Energy =                       -422.9715613141391941
  Basis Set: 6-31G*
  Basis Set:
  Basis Set: 6-31G*
  Basis Set:
  @DF-RHF Final Energy:  -422.97166404573090
    Total Energy =                       -422.9716640457312451
  Basis Set: 6-31G*
  Basis Set:
  Basis Set: 6-31G*
  Basis Set:
  @DF-RHF Final Energy:  -422.97086047862246
    Total Energy =                       -422.9708604786223987
  Basis Set: 6-31G*
  Basis Set:
  Basis Set: 6-31G*
  Basis Set:
  @DF-RHF Final Energy:  -422.97177675453980
    Total Energy =                       -422.9717767545398601
  Basis Set: 6-31G*
  Basis Set:
  Basis Set: 6-31G*
  Basis Set:
  @DF-RHF Final Energy:  -422.97178599414428
    Total Energy =                       -422.9717859941449660
  Basis Set: 6-31G*
  Basis Set:
  Charge       = 0
  Multiplicity = 1
  Basis Set: 6-31G*
  Basis Set:

    Orbital Energies (a.u.)
    -----------------------

    Doubly Occupied:

       1A    -20.603487     2A    -20.545385     3A    -11.372185
       4A    -11.280756     5A    -11.235237     6A    -11.219369
       7A    -11.219145     8A    -11.217725     9A    -11.211262
      10A     -1.469232    11A     -1.362690    12A     -1.092569
      13A     -1.041987    14A     -0.986956    15A     -0.933439
      16A     -0.852930    17A     -0.792434    18A     -0.760923
      19A     -0.700391    20A     -0.682747    21A     -0.671550
      22A     -0.643978    23A     -0.612807    24A     -0.600743
      25A     -0.578360    26A     -0.558503    27A     -0.553153
      28A     -0.526710    29A     -0.520773    30A     -0.511630
      31A     -0.492689    32A     -0.466746    33A     -0.460429
      34A     -0.458246    35A     -0.452392    36A     -0.437637

  @DF-RHF Final Energy:  -422.97178680610187

   => Energetics <=

    Nuclear Repulsion Energy =            457.9352429244880227
    One-Electron Energy =               -1483.5596751991215569
    Two-Electron Energy =                 602.6526454685322278
    DFT Exchange-Correlation Energy =       0.0000000000000000
    Empirical Dispersion Energy =           0.0000000000000000
    PCM Polarization Energy =               0.0000000000000000
    EFP Energy =                            0.0000000000000000
    Total Energy =                       -422.9717868061013633
    Molecular point group: c1
  Basis Set: 6-31G*
  Basis Set:

  -Total Gradient:
     Atom            X                  Y                   Z
    ------   -----------------  -----------------  -----------------
       1       -0.000010759219     0.000001185074     0.000004224447
       2        0.000012213221     0.000006466148     0.000003951366
       3        0.000011957193    -0.000017236266    -0.000055662041
       4       -0.000000925248     0.000004504802    -0.000008962106
       5       -0.003066847094     0.004880522206     0.000508465981
       6       -0.000007190254    -0.000007468235     0.000013606488
       7       -0.000000081867     0.000022081299    -0.000001482358
       8       -0.002237183913     0.003883312653    -0.003541141177
       9        0.002927394879    -0.004747620479     0.000136828355
      10        0.000004751819     0.000018158185     0.000010581647
      11       -0.000005599314     0.000002972221     0.000074614388
      12        0.002429840022    -0.004072974374     0.002897789678
      13       -0.000013954879     0.000004221050    -0.000021143496
      14       -0.000015439788     0.000016443842    -0.000023834381
      15        0.000004128243    -0.000025543940     0.000002144544
      16       -0.000025310170     0.000035348600     0.000007309050
      17       -0.000010084015    -0.000001693504    -0.000006042116
      18       -0.000014358814    -0.000006607003     0.000007691256
      19        0.000019869702     0.000009463283    -0.000010846500
      20        0.000000844246    -0.000005677984     0.000000803782
      21       -0.000000497471     0.000000297515     0.000001055712
      22       -0.000003534972    -0.000001280175     0.000000330404
      23        0.000000767688     0.000001125077    -0.000000282921

  **** Optimization is complete! (in 8 steps) ****
    Final optimized geometry and variables:
    Molecular point group: c1

    Geometry (in Angstrom), charge = 0, multiplicity = 1:

    O            2.330303814981     0.450064069848     0.302405610481
    C            1.348939795364     0.836914225801    -0.245545040277
    C            0.007763354009     0.143545748523    -0.245420254291
    O            1.305626014341     1.962404283433    -0.947679484673
    C            0.009147877688    -1.153890703481     0.556878992399
    H           -0.718484212596     0.855615925207     0.132049157413
    H           -0.263072656472    -0.034966417352    -1.282825129832
    C           -1.295136536018    -1.967354819715     0.487971990265
    H            0.271741876946    -0.959218734766     1.591711466556
    H            0.816551010002    -1.778955623642     0.189243521120
    C           -2.599788137077    -1.172671565976     0.570983900274
    H           -1.287652303019    -2.593692618301    -0.402097960993
    H           -1.275538259383    -2.674006445343     1.315453960453
    C           -3.829783918565    -2.077582338461     0.638907200795
    H           -2.693912935568    -0.513835484043    -0.287981055167
    H           -2.576881466510    -0.530473811847     1.449592550242
    H           -3.893732573455    -2.716802908498    -0.237205212614
    H           -4.744289327666    -1.494943387936     0.690452563267
    H           -3.796266694466    -2.720065075471     1.514010279654
    C            2.502128766132     2.715109015538    -1.029542268744
    H            2.825984796753     3.022295712247    -0.045535139482
    H            2.266961739228     3.578484513470    -1.632258624522
    H            3.285155168421     2.134786196587    -1.496050377261

  Mulliken Charges: (a.u.)
   Center  Symbol    Alpha    Beta     Spin     Total
       1     O     4.28586  4.28586  0.00000 -0.57173
       2     C     2.60448  2.60448  0.00000  0.79104
       3     C     3.21095  3.21095  0.00000 -0.42191
       4     O     4.30758  4.30758  0.00000 -0.61516
       5     C     3.15544  3.15544  0.00000 -0.31088
       6     H     0.39831  0.39831  0.00000  0.20338
       7     H     0.40076  0.40076  0.00000  0.19848
       8     C     3.15502  3.15502  0.00000 -0.31003
       9     H     0.41185  0.41185  0.00000  0.17631
      10     H     0.40911  0.40911  0.00000  0.18178
      11     C     3.15654  3.15654  0.00000 -0.31307
      12     H     0.42193  0.42193  0.00000  0.15614
      13     H     0.41942  0.41942  0.00000  0.16116
      14     C     3.23915  3.23915  0.00000 -0.47831
      15     H     0.42168  0.42168  0.00000  0.15664
      16     H     0.42228  0.42228  0.00000  0.15544
      17     H     0.42115  0.42115  0.00000  0.15771
      18     H     0.41870  0.41870  0.00000  0.16261
      19     H     0.42074  0.42074  0.00000  0.15853
      20     C     3.09240  3.09240  0.00000 -0.18479
      21     H     0.40908  0.40908  0.00000  0.18185
      22     H     0.40848  0.40848  0.00000  0.18304
      23     H     0.40911  0.40911  0.00000  0.18178

   Total alpha = 36.00000, Total beta = 36.00000, Total charge = -0.00000
