                              Psi4 1.0.54 Driver

  ==> Input File <==

--------------------------------------------------------------------------
set {
	reference rhf
	basis cc-pvtz
}

set_num_threads( 4 )
memory 2 gb

molecule MOL {
0 1

H	 -2.816458	 -0.841657	 -0.064679
N	 -1.878861	 -0.711874	 0.250184
C	 -1.341419	 0.551458	 -0.220231
H	 -1.333674	 -1.468530	 -0.105118
C	 0.082190	 0.731516	 0.254705
H	 -1.357065	 0.652078	 -1.304747
H	 -1.939897	 1.357530	 0.189797
O	 0.410654	 -0.326282	 1.103753
H	 0.757405	 0.748890	 -0.599669
H	 0.174657	 1.678479	 0.781620
C	 1.677992	 -0.241697	 1.665821
H	 1.820813	 -1.107895	 2.295653
H	 2.452300	 -0.234283	 0.901566
H	 1.785149	 0.654402	 2.272522

	symmetry c1
}
set optking {
	frozen_dihedral = ("
		8 5 3 6
	")
}

ee,wfn = optimize('scf', return_wfn=True)
oeprop( wfn, 'DIPOLE', 'QUADRUPOLE', 'MULLIKEN_CHARGES')
f=open( 'psi4out.xyz', 'w' )
f.write( "14  " )
f.write( str(ee) + "\n" )
f.write( MOL.save_string_xyz() )
f.close()
--------------------------------------------------------------------------

    Molecular point group: c1
  Charge       = 0
  Multiplicity = 1
  Basis Set: CC-PVTZ
  Basis Set:
  @DF-RHF Final Energy:  -248.20958129793672
    Total Energy =                       -248.2095812979367793
    Molecular point group: c1
  Basis Set: CC-PVTZ
  Basis Set:
  Basis Set: CC-PVTZ
  Basis Set:
  @DF-RHF Final Energy:  -248.17970117215131
    Total Energy =                       -248.1797011721513400
  Basis Set: CC-PVTZ
  Basis Set:
  Basis Set: CC-PVTZ
  Basis Set:
  @DF-RHF Final Energy:  -248.21121004309617
    Total Energy =                       -248.2112100430961732
  Basis Set: CC-PVTZ
  Basis Set:
  Basis Set: CC-PVTZ
  Basis Set:
  @DF-RHF Final Energy:  -248.21255029977610
    Total Energy =                       -248.2125502997761259
  Basis Set: CC-PVTZ
  Basis Set:
  @DF-RHF Final Energy:  -248.21272732026648
    Total Energy =                       -248.2127273202663673
  Basis Set: CC-PVTZ
  Basis Set:
  @DF-RHF Final Energy:  -248.21278766969991
    Total Energy =                       -248.2127876697001057
  Basis Set: CC-PVTZ
  Basis Set:
  Basis Set: CC-PVTZ
  Basis Set:
  @DF-RHF Final Energy:  -248.21281170047345
    Total Energy =                       -248.2128117004735373
  Basis Set: CC-PVTZ
  Basis Set:
  Basis Set: CC-PVTZ
  Basis Set:
  @DF-RHF Final Energy:  -248.21281606058588
    Total Energy =                       -248.2128160605858511
  Basis Set: CC-PVTZ
  Basis Set:
  Charge       = 0
  Multiplicity = 1
  Basis Set: CC-PVTZ
  Basis Set:

    Orbital Energies (a.u.)
    -----------------------

    Doubly Occupied:

       1A    -20.550804     2A    -15.518211     3A    -11.269207
       4A    -11.264227     5A    -11.241486     6A     -1.386338
       7A     -1.169807     8A     -0.995802     9A     -0.910533
      10A     -0.815644    11A     -0.684176    12A     -0.676448
      13A     -0.650220    14A     -0.605088    15A     -0.599130
      16A     -0.564249    17A     -0.518964    18A     -0.496332
      19A     -0.472417    20A     -0.422578    21A     -0.370588

  @DF-RHF Final Energy:  -248.21281621587946

   => Energetics <=

    Nuclear Repulsion Energy =            194.8123002928471124
    One-Electron Energy =                -723.6857283329477468
    Two-Electron Energy =                 280.6606118242211210
    DFT Exchange-Correlation Energy =       0.0000000000000000
    Empirical Dispersion Energy =           0.0000000000000000
    PCM Polarization Energy =               0.0000000000000000
    EFP Energy =                            0.0000000000000000
    Total Energy =                       -248.2128162158795135
    Molecular point group: c1
  Basis Set: CC-PVTZ
  Basis Set:

  -Total Gradient:
     Atom            X                  Y                   Z
    ------   -----------------  -----------------  -----------------
       1        0.000008896979    -0.000002281392     0.000007334193
       2       -0.000003389431     0.000024811575    -0.000007804787
       3       -0.000176439338     0.000402823334     0.000045884376
       4       -0.000005998777     0.000002148928    -0.000001308151
       5       -0.000134566343     0.000038570999     0.000419756829
       6        0.000183543938    -0.000392239339    -0.000132503112
       7       -0.000003702626     0.000004852867     0.000001458877
       8        0.000145883411    -0.000104296339    -0.000319250133
       9        0.000000316662     0.000002713952    -0.000005939583
      10        0.000000045633     0.000006495292     0.000005729510
      11       -0.000020694080     0.000015504330    -0.000013552214
      12       -0.000011733579    -0.000003903716    -0.000004772940
      13        0.000012895344     0.000001501718    -0.000002932672
      14        0.000004942209     0.000003297792     0.000007899807

  **** Optimization is complete! (in 9 steps) ****
    Final optimized geometry and variables:
    Molecular point group: c1

    Geometry (in Angstrom), charge = 0, multiplicity = 1:

    H           -2.258940783885    -1.424440314930    -1.094999579670
    N           -1.529421068434    -1.090466100803    -0.503514425291
    C           -1.323717857469     0.333507219386    -0.701380653361
    H           -0.701786503934    -1.609390682086    -0.697396584042
    C            0.047772988063     0.822667109344    -0.188732997262
    H           -1.404659811730     0.623700814911    -1.747395928519
    H           -2.107889642364     0.861767095250    -0.172595933975
    O            0.742029787530    -0.193090950773     0.461360403055
    H            0.643165139208     1.182156798597    -1.026272391967
    H           -0.091786332152     1.664343391488     0.485639338195
    C            1.983919237862     0.192577432259     0.947009348763
    H            2.433049438918    -0.665951965437     1.424667961389
    H            2.638622280863     0.531516975400     0.146437188194
    H            1.894257524174     0.992753203594     1.678349992495

  Mulliken Charges: (a.u.)
   Center  Symbol    Alpha    Beta     Spin     Total
       1     H     0.43187  0.43187  0.00000  0.13625
       2     N     3.68296  3.68296  0.00000 -0.36591
       3     C     3.03225  3.03225  0.00000 -0.06449
       4     H     0.42451  0.42451  0.00000  0.15099
       5     C     2.96205  2.96205  0.00000  0.07591
       6     H     0.46871  0.46871  0.00000  0.06258
       7     H     0.46063  0.46063  0.00000  0.07873
       8     O     4.17042  4.17042  0.00000 -0.34085
       9     H     0.47533  0.47533  0.00000  0.04935
      10     H     0.47055  0.47055  0.00000  0.05889
      11     C     3.03146  3.03146  0.00000 -0.06292
      12     H     0.44623  0.44623  0.00000  0.10754
      13     H     0.47271  0.47271  0.00000  0.05458
      14     H     0.47033  0.47033  0.00000  0.05934

   Total alpha = 21.00000, Total beta = 21.00000, Total charge = -0.00000

*** Psi4 exiting successfully. Buy a developer a beer!
