  ==> Input File <==

--------------------------------------------------------------------------
set {
	reference rhf
	basis 6-31G*
}

set_num_threads( 4 )
memory 2 gb

molecule MOL {
0 1

H	 -0.616657	 2.165744	 -2.003010
C	 0.111435	 2.126555	 -1.183222
C	 0.065331	 0.871482	 -0.349150
O	 0.863295	 3.029886	 -1.008815
C	 -1.339775	 0.583656	 0.198860
H	 0.791143	 0.965379	 0.450409
H	 0.376442	 0.047390	 -0.989653
C	 -1.808407	 -0.848507	 -0.061364
H	 -2.036183	 1.280685	 -0.256307
H	 -1.360094	 0.788874	 1.267089
H	 -1.828843	 -1.063152	 -1.125336
H	 -2.808409	 -1.004529	 0.329750
H	 -1.153967	 -1.577789	 0.406873

	symmetry c1
}
set optking {
	frozen_dihedral = ("
		6 3 5 9
	")
}

ee = optimize('scf')
oeprop('DIPOLE', 'QUADRUPOLE', 'MULLIKEN_CHARGES')
f=open( 'psi4out.xyz', 'w' )
f.write( "13  " )
f.write( str(ee) + "\n" )
f.write( MOL.save_string_xyz() )
f.close()
--------------------------------------------------------------------------

    Molecular point group: c1
  Charge       = 0
  Multiplicity = 1
  Basis Set: 6-31G*
  Basis Set:
  @DF-RHF Final Energy:  -230.98024643502501
    Total Energy =                       -230.9802464350248670
    Molecular point group: c1
  Basis Set: 6-31G*
  Basis Set:
  Basis Set: 6-31G*
  Basis Set:
  @DF-RHF Final Energy:  -230.98047162640177
    Total Energy =                       -230.9804716264018509
  Basis Set: 6-31G*
  Basis Set:
  Basis Set: 6-31G*
  Basis Set:
  @DF-RHF Final Energy:  -230.97708911612457
    Total Energy =                       -230.9770891161247732
  Basis Set: 6-31G*
  Basis Set:
  Basis Set: 6-31G*
  Basis Set:
  @DF-RHF Final Energy:  -230.98059889463164
    Total Energy =                       -230.9805988946315551
  Basis Set: 6-31G*
  Basis Set:
  Basis Set: 6-31G*
  Basis Set:
  @DF-RHF Final Energy:  -230.98063650404103
    Total Energy =                       -230.9806365040413425
  Basis Set: 6-31G*
  Basis Set:
  Basis Set: 6-31G*
  Basis Set:
  @DF-RHF Final Energy:  -230.98063777510720
    Total Energy =                       -230.9806377751072262
  Basis Set: 6-31G*
  Basis Set:
  Basis Set: 6-31G*
  Basis Set:
  @DF-RHF Final Energy:  -230.98064253762035
    Total Energy =                       -230.9806425376204402
  Basis Set: 6-31G*
  Basis Set:
  Charge       = 0
  Multiplicity = 1
  Basis Set: 6-31G*
  Basis Set:

    Orbital Energies (a.u.)
    -----------------------

    Doubly Occupied:

       1A    -20.562844     2A    -11.327318     3A    -11.239128
       4A    -11.235827     5A    -11.224728     6A     -1.403119
       7A     -1.084732     8A     -0.976634     9A     -0.842888
      10A     -0.794140    11A     -0.674207    12A     -0.645722
      13A     -0.617568    14A     -0.588926    15A     -0.575130
      16A     -0.525297    17A     -0.511894    18A     -0.489698
      19A     -0.483854    20A     -0.410747

  @DF-RHF Final Energy:  -230.98064352895511

   => Energetics <=

    Nuclear Repulsion Energy =            170.2942640356876041
    One-Electron Energy =                -650.1210111051973399
    Two-Electron Energy =                 248.8461035405543953
    DFT Exchange-Correlation Energy =       0.0000000000000000
    Empirical Dispersion Energy =           0.0000000000000000
    PCM Polarization Energy =               0.0000000000000000
    EFP Energy =                            0.0000000000000000
    Total Energy =                       -230.9806435289553406
    Molecular point group: c1
  Basis Set: 6-31G*
  Basis Set:

  -Total Gradient:
     Atom            X                  Y                   Z
    ------   -----------------  -----------------  -----------------
       1        0.000005392227    -0.000000488834    -0.000005422760
       2       -0.000003467234    -0.000004534795     0.000016808615
       3        0.000753107893    -0.002840720041     0.000303766689
       4       -0.000013494200     0.000013656078    -0.000001885249
       5       -0.000633023367    -0.001384621406    -0.002367253882
       6       -0.000474704404     0.002560639562     0.000117542881
       7       -0.000023695064    -0.000003743402     0.000008860102
       8        0.000002876632    -0.000002235587     0.000014859558
       9        0.000379739485     0.001669972516     0.001913541515
      10        0.000006798716    -0.000007131387    -0.000005239039
      11        0.000002312331     0.000009445882     0.000006811857
      12       -0.000001510006    -0.000003736450    -0.000000653526
      13       -0.000000333011    -0.000006502133    -0.000001736760

  **** Optimization is complete! (in 8 steps) ****
    Final optimized geometry and variables:
    Molecular point group: c1

    Geometry (in Angstrom), charge = 0, multiplicity = 1:

    H           -0.197733850040     1.068160172376    -1.494184945677
    C            0.544204888026     0.992352829995    -0.689769394070
    C            0.482204954154    -0.279684171921     0.119537345791
    O            1.321899850867     1.871829537855    -0.509332042785
    C           -0.939826465931    -0.566906519381     0.654428708126
    H            1.203674129026    -0.182828447309     0.920963137039
    H            0.808183720716    -1.087829447497    -0.532783345618
    C           -1.399154775847    -2.006611372257     0.431896116739
    H           -1.654218944339     0.118384223365     0.203160907924
    H           -0.963669657906    -0.341344563071     1.715526173082
    H           -1.441380104420    -2.245509260672    -0.626827523163
    H           -2.387218379660    -2.169926277501     0.849548176214
    H           -0.718584035579    -2.709586488450     0.903038276644

  Mulliken Charges: (a.u.)
   Center  Symbol    Alpha    Beta     Spin     Total
       1     H     0.43213  0.43213  0.00000  0.13574
       2     C     2.83267  2.83267  0.00000  0.33467
       3     C     3.20960  3.20960  0.00000 -0.41920
       4     O     4.23713  4.23713  0.00000 -0.47427
       5     C     3.16678  3.16678  0.00000 -0.33355
       6     H     0.39669  0.39669  0.00000  0.20662
       7     H     0.40622  0.40622  0.00000  0.18755
       8     C     3.24066  3.24066  0.00000 -0.48131
       9     H     0.41606  0.41606  0.00000  0.16789
      10     H     0.40938  0.40938  0.00000  0.18124
      11     H     0.42002  0.42002  0.00000  0.15996
      12     H     0.41542  0.41542  0.00000  0.16917
      13     H     0.41725  0.41725  0.00000  0.16550

   Total alpha = 20.00000, Total beta = 20.00000, Total charge = -0.00000
