  ==> Input File <==

--------------------------------------------------------------------------
set {
	reference rhf
	basis 6-31G*
}

set_num_threads( 4 )
memory 2 gb

molecule MOL {
0 1

H	 3.740961	 -0.898285	 0.082948
O	 2.826016	 -1.159218	 0.122261
C	 2.077727	 -0.067559	 -0.035091
C	 0.624473	 -0.343591	 0.253101
O	 2.542965	 0.974826	 -0.363729
C	 -0.265902	 0.883932	 0.072916
H	 0.324016	 -1.163849	 -0.390541
H	 0.565024	 -0.726111	 1.268924
C	 -1.728698	 0.646073	 0.462102
H	 -0.209144	 1.219470	 -0.958188
H	 0.135059	 1.692851	 0.673903
C	 -2.482460	 -0.343073	 -0.431425
H	 -2.245265	 1.602650	 0.432430
H	 -1.779332	 0.308348	 1.496285
C	 -3.960546	 -0.461025	 -0.060175
H	 -2.395034	 -0.026811	 -1.468912
H	 -2.024850	 -1.327147	 -0.371646
H	 -4.472726	 -1.168004	 -0.705284
H	 -4.465146	 0.496508	 -0.151489
H	 -4.081218	 -0.800940	 0.964585

	symmetry c1
}
set optking {
	frozen_dihedral = ("
		1 2 3 5
	")
}

ee = optimize('scf')
oeprop('DIPOLE', 'QUADRUPOLE', 'MULLIKEN_CHARGES')
f=open( 'psi4out.xyz', 'w' )
f.write( "20  " )
f.write( str(ee) + "\n" )
f.write( MOL.save_string_xyz() )
f.close()
--------------------------------------------------------------------------

    Molecular point group: c1
  Charge       = 0
  Multiplicity = 1
  Basis Set: 6-31G*
  Basis Set:
  @DF-RHF Final Energy:  -383.94811147639399
    Total Energy =                       -383.9481114763941605
    Molecular point group: c1
  Basis Set: 6-31G*
  Basis Set:
  Basis Set: 6-31G*
  Basis Set:
  @DF-RHF Final Energy:  -383.94663351603293
    Total Energy =                       -383.9466335160327048
  Basis Set: 6-31G*
  Basis Set:
  Basis Set: 6-31G*
  Basis Set:
  @DF-RHF Final Energy:  -383.94816689764389
    Total Energy =                       -383.9481668976436026
  Basis Set: 6-31G*
  Basis Set:
  Basis Set: 6-31G*
  Basis Set:
  @DF-RHF Final Energy:  -383.94817272304510
    Total Energy =                       -383.9481727230451042
  Basis Set: 6-31G*
  Basis Set:
  Basis Set: 6-31G*
  Basis Set:
  @DF-RHF Final Energy:  -383.94817036467379
    Total Energy =                       -383.9481703646737287
  Basis Set: 6-31G*
  Basis Set:
  Basis Set: 6-31G*
  Basis Set:
  @DF-RHF Final Energy:  -383.94817521050783
    Total Energy =                       -383.9481752105076566
  Basis Set: 6-31G*
  Basis Set:
  Charge       = 0
  Multiplicity = 1
  Basis Set: 6-31G*
  Basis Set:

    Orbital Energies (a.u.)
    -----------------------

    Doubly Occupied:

       1A    -20.612106     2A    -20.551865     3A    -11.381202
       4A    -11.240161     5A    -11.222876     6A    -11.220641
       7A    -11.220048     8A    -11.212349     9A     -1.474109
      10A     -1.365777    11A     -1.096157    12A     -1.040881
      13A     -0.961158    14A     -0.868774    15A     -0.816077
      16A     -0.777095    17A     -0.699959    18A     -0.689828
      19A     -0.662599    20A     -0.637118    21A     -0.601765
      22A     -0.593318    23A     -0.576703    24A     -0.555918
      25A     -0.538786    26A     -0.513368    27A     -0.495348
      28A     -0.479792    29A     -0.470504    30A     -0.467231
      31A     -0.457155    32A     -0.443706

  @DF-RHF Final Energy:  -383.94817577887358

   => Energetics <=

    Nuclear Repulsion Energy =            375.9022472761815266
    One-Electron Energy =               -1267.8120978812871726
    Two-Electron Energy =                 507.9616748262321835
    DFT Exchange-Correlation Energy =       0.0000000000000000
    Empirical Dispersion Energy =           0.0000000000000000
    PCM Polarization Energy =               0.0000000000000000
    EFP Energy =                            0.0000000000000000
    Total Energy =                       -383.9481757788735194
    Molecular point group: c1
  Basis Set: 6-31G*
  Basis Set:

  -Total Gradient:
     Atom            X                  Y                   Z
    ------   -----------------  -----------------  -----------------
       1        0.000090893964     0.000396276951     0.003888412805
       2       -0.000424727913    -0.000856660539    -0.006374524918
       3        0.000953308567     0.001201058326     0.005925441149
       4        0.000005777743    -0.000002321865    -0.000023420453
       5       -0.000643354694    -0.000723518651    -0.003415152047
       6        0.000000217024    -0.000007419154    -0.000015213690
       7        0.000005404493     0.000001262013     0.000000076158
       8        0.000004347265    -0.000007566882     0.000000394635
       9       -0.000000514473    -0.000002999246     0.000006045700
      10        0.000006789794     0.000003063604    -0.000003726144
      11        0.000000033535     0.000003217220     0.000002858758
      12        0.000004457175    -0.000008011037     0.000007165655
      13       -0.000000643353    -0.000002296337    -0.000000263427
      14       -0.000002262777    -0.000001573316     0.000002087137
      15       -0.000000035649     0.000007723014    -0.000003065148
      16        0.000003298799    -0.000002050734     0.000002802294
      17       -0.000002786431    -0.000000120204     0.000001019207
      18        0.000000217791     0.000003107855    -0.000002478164
      19       -0.000001359530     0.000001170302     0.000003105614
      20        0.000000938672    -0.000002341320    -0.000001565122

  **** Optimization is complete! (in 7 steps) ****
    Final optimized geometry and variables:
    Molecular point group: c1

    Geometry (in Angstrom), charge = 0, multiplicity = 1:

    H            3.734236709818    -0.922188144538     0.022055185224
    O            2.816539673256    -1.170788790537     0.072273772548
    C            2.079297058200    -0.063186475534    -0.019260909005
    C            0.624421241014    -0.340215330486     0.259545647230
    O            2.550100911463     0.986638606689    -0.313635743974
    C           -0.266821922967     0.884919288873     0.068088815287
    H            0.329388713078    -1.165041717166    -0.380444407400
    H            0.559672494583    -0.716582398943     1.277616881447
    C           -1.730710981668     0.647969924306     0.453632163389
    H           -0.207022783661     1.213390522668    -0.965259243059
    H            0.131238262282     1.698316268453     0.664761107767
    C           -2.479711993960    -0.349287395243    -0.434850823671
    H           -2.248547582630     1.603518840295     0.414591741371
    H           -1.784651404632     0.318281133274     1.490265207210
    C           -3.959364103747    -0.465212975959    -0.069297655784
    H           -2.387839727332    -0.041722128109    -1.474560527093
    H           -2.021603723936    -1.332440359853    -0.364756769439
    H           -4.468203795228    -1.177664755736    -0.711010037274
    H           -4.464156014530     0.491231715076    -0.170533514377
    H           -4.084444237932    -0.796998597995     0.957602063092

  Mulliken Charges: (a.u.)
   Center  Symbol    Alpha    Beta     Spin     Total
       1     H     0.26781  0.26781  0.00000  0.46438
       2     O     4.35199  4.35199  0.00000 -0.70397
       3     C     2.62246  2.62246  0.00000  0.75507
       4     C     3.21305  3.21305  0.00000 -0.42609
       5     O     4.27830  4.27830  0.00000 -0.55661
       6     C     3.15449  3.15449  0.00000 -0.30899
       7     H     0.39641  0.39641  0.00000  0.20718
       8     H     0.39963  0.39963  0.00000  0.20075
       9     C     3.15553  3.15553  0.00000 -0.31106
      10     H     0.41255  0.41255  0.00000  0.17490
      11     H     0.40760  0.40760  0.00000  0.18481
      12     C     3.15486  3.15486  0.00000 -0.30971
      13     H     0.41789  0.41789  0.00000  0.16423
      14     H     0.42377  0.42377  0.00000  0.15246
      15     C     3.23923  3.23923  0.00000 -0.47846
      16     H     0.42144  0.42144  0.00000  0.15712
      17     H     0.42267  0.42267  0.00000  0.15465
      18     H     0.41831  0.41831  0.00000  0.16337
      19     H     0.42066  0.42066  0.00000  0.15868
      20     H     0.42136  0.42136  0.00000  0.15728

   Total alpha = 32.00000, Total beta = 32.00000, Total charge =  0.00000
