  ==> Input File <==

--------------------------------------------------------------------------
set {
	reference rhf
	basis 6-31G*
}

set_num_threads( 1 )
memory 2 gb

molecule MOL {
0 1

H	 3.455193	 -0.233900	 -1.002635
N	 3.092854	 -0.246221	 -0.068770
C	 1.865559	 0.531981	 0.018834
H	 3.800970	 0.147313	 0.521597
C	 0.645745	 -0.382037	 -0.029944
H	 1.841966	 1.207024	 -0.831236
H	 1.815756	 1.155410	 0.915079
C	 -0.679275	 0.379305	 0.025956
H	 0.698998	 -0.976915	 -0.937203
H	 0.693479	 -1.083846	 0.802235
C	 -1.903357	 -0.536963	 -0.023547
H	 -0.726309	 1.082987	 -0.803784
H	 -0.717680	 0.977832	 0.934877
C	 -3.225172	 0.228290	 0.028445
H	 -1.867824	 -1.134999	 -0.931459
H	 -1.860449	 -1.239604	 0.805977
H	 -3.313397	 0.915643	 -0.808262
H	 -4.073500	 -0.448134	 -0.008893
H	 -3.306061	 0.809945	 0.942516

	symmetry c1
}
set optking {
	frozen_dihedral = ("
		6 3 5 9,
		12 8 5 9,
		12 8 11 15
	")
}

ee = energy('scf')
oeprop('DIPOLE', 'QUADRUPOLE', 'MULLIKEN_CHARGES')
f=open( 'psi4out.xyz', 'w' )
f.write( "19  " )
f.write( str(ee) + "\n" )
f.write( MOL.save_string_xyz() )
f.close()
--------------------------------------------------------------------------

    Molecular point group: c1

    Geometry (in Angstrom), charge = 0, multiplicity = 1:

       Center              X                  Y                   Z               Mass
    ------------   -----------------  -----------------  -----------------  -----------------
           H          3.453301516740    -0.238343393723    -0.989657601059     1.007825032070
           N          3.090962516740    -0.250664393723    -0.055792601059    14.003074004780
           C          1.863667516740     0.527537606277     0.031811398941    12.000000000000
           H          3.799078516740     0.142869606277     0.534574398941     1.007825032070
           C          0.643853516740    -0.386480393723    -0.016966601059    12.000000000000
           H          1.840074516740     1.202580606277    -0.818258601059     1.007825032070
           H          1.813864516740     1.150966606277     0.928056398941     1.007825032070
           C         -0.681166483260     0.374861606277     0.038933398941    12.000000000000
           H          0.697106516740    -0.981358393723    -0.924225601059     1.007825032070
           H          0.691587516740    -1.088289393723     0.815212398941     1.007825032070
           C         -1.905248483260    -0.541406393723    -0.010569601059    12.000000000000
           H         -0.728200483260     1.078543606277    -0.790806601059     1.007825032070
           H         -0.719571483260     0.973388606277     0.947854398941     1.007825032070
           C         -3.227063483260     0.223846606277     0.041422398941    12.000000000000
           H         -1.869715483260    -1.139442393723    -0.918481601059     1.007825032070
           H         -1.862340483260    -1.244047393723     0.818954398941     1.007825032070
           H         -3.315288483260     0.911199606277    -0.795284601059     1.007825032070
           H         -4.075391483260    -0.452577393723     0.004084398941     1.007825032070
           H         -3.307952483260     0.805501606277     0.955493398941     1.007825032070

  Charge       = 0
  Multiplicity = 1
  Basis Set: 6-31G*
  Basis Set:

    Orbital Energies (a.u.)
    -----------------------

    Doubly Occupied:

       1A    -15.531402     2A    -11.240176     3A    -11.211795
       4A    -11.209567     5A    -11.205931     6A    -11.203383
       7A     -1.176191     8A     -1.070535     9A     -0.996430
      10A     -0.898983    11A     -0.809683    12A     -0.785212
      13A     -0.674710    14A     -0.634781    15A     -0.613922
      16A     -0.580108    17A     -0.568153    18A     -0.553004
      19A     -0.520060    20A     -0.503154    21A     -0.474426
      22A     -0.462343    23A     -0.458637    24A     -0.451775
      25A     -0.376858

  @DF-RHF Final Energy:  -251.34788506702876

   => Energetics <=

    Nuclear Repulsion Energy =            245.4739953302284903
    One-Electron Energy =                -825.2213654627880715
    Two-Electron Energy =                 328.3994850655305981
    DFT Exchange-Correlation Energy =       0.0000000000000000
    Empirical Dispersion Energy =           0.0000000000000000
    PCM Polarization Energy =               0.0000000000000000
    EFP Energy =                            0.0000000000000000
    Total Energy =                       -251.3478850670289830

  Mulliken Charges: (a.u.)
   Center  Symbol    Alpha    Beta     Spin     Total
       1     H     0.33231  0.33231  0.00000  0.33539
       2     N     3.92315  3.92315  0.00000 -0.84630
       3     C     3.06947  3.06947  0.00000 -0.13893
       4     H     0.33217  0.33217  0.00000  0.33566
       5     C     3.13990  3.13990  0.00000 -0.27979
       6     H     0.43032  0.43032  0.00000  0.13936
       7     H     0.42256  0.42256  0.00000  0.15488
       8     C     3.15669  3.15669  0.00000 -0.31338
       9     H     0.42398  0.42398  0.00000  0.15203
      10     H     0.41842  0.41842  0.00000  0.16317
      11     C     3.15028  3.15028  0.00000 -0.30056
      12     H     0.42603  0.42603  0.00000  0.14795
      13     H     0.42566  0.42566  0.00000  0.14868
      14     C     3.23905  3.23905  0.00000 -0.47810
      15     H     0.42295  0.42295  0.00000  0.15410
      16     H     0.42246  0.42246  0.00000  0.15508
      17     H     0.42250  0.42250  0.00000  0.15499
      18     H     0.41975  0.41975  0.00000  0.16051
      19     H     0.42237  0.42237  0.00000  0.15526

   Total alpha = 25.00000, Total beta = 25.00000, Total charge =  0.00000
