  ==> Input File <==

--------------------------------------------------------------------------
set {
	reference rhf
	basis 6-31G*
}

set_num_threads( 4 )
memory 2 gb

molecule MOL {
0 1

H	 1.673753	 -0.469065	 -1.549940
O	 0.858274	 -0.514918	 -1.072017
C	 0.702312	 0.627605	 -0.264544
C	 -0.714990	 0.596302	 0.266387
H	 0.851588	 1.533039	 -0.846575
H	 1.413087	 0.623021	 0.559047
O	 -1.405996	 -0.526611	 -0.195820
H	 -1.257453	 1.468809	 -0.075599
H	 -0.688972	 0.618407	 1.353696
H	 -0.890587	 -1.292708	 0.022039

	symmetry c1
}
set optking {
	frozen_dihedral = ("
		5 3 4 7
	")
}

ee = optimize('scf')
oeprop('DIPOLE', 'QUADRUPOLE', 'MULLIKEN_CHARGES')
f=open( 'psi4out.xyz', 'w' )
f.write( "10  " )
f.write( str(ee) + "\n" )
f.write( MOL.save_string_xyz() )
f.close()
--------------------------------------------------------------------------

    Molecular point group: c1
  Charge       = 0
  Multiplicity = 1
  Basis Set: 6-31G*
  Basis Set:
  @DF-RHF Final Energy:  -228.90913099498584
    Total Energy =                       -228.9091309949859010
    Molecular point group: c1
  Basis Set: 6-31G*
  Basis Set:
  Basis Set: 6-31G*
  Basis Set:
  @DF-RHF Final Energy:  -228.91240395093595
    Total Energy =                       -228.9124039509358681
  Basis Set: 6-31G*
  Basis Set:
  Basis Set: 6-31G*
  Basis Set:
  @DF-RHF Final Energy:  -228.91332282202569
    Total Energy =                       -228.9133228220257195
  Basis Set: 6-31G*
  Basis Set:
  Basis Set: 6-31G*
  Basis Set:
  @DF-RHF Final Energy:  -228.91366950074308
    Total Energy =                       -228.9136695007430831
  Basis Set: 6-31G*
  Basis Set:
  @DF-RHF Final Energy:  -228.91423792734076
    Total Energy =                       -228.9142379273407073
  @DF-RHF Final Energy:  -228.91438758099625
    Total Energy =                       -228.9143875809963902
  @DF-RHF Final Energy:  -228.91447041822963
    Total Energy =                       -228.9144704182296834
  @DF-RHF Final Energy:  -228.91453086497552
    Total Energy =                       -228.9145308649755748
  Basis Set: 6-31G*
  Basis Set:
  @DF-RHF Final Energy:  -228.91455216272900
    Total Energy =                       -228.9145521627290805
  Basis Set: 6-31G*
  Basis Set:
  Basis Set: 6-31G*
  Basis Set:
  @DF-RHF Final Energy:  -228.91456765924721
    Total Energy =                       -228.9145676592472114
  Basis Set: 6-31G*
  Basis Set:
  Basis Set: 6-31G*
  Basis Set:
  @DF-RHF Final Energy:  -228.91457105151520
    Total Energy =                       -228.9145710515152814
  Basis Set: 6-31G*
  Basis Set:
  Charge       = 0
  Multiplicity = 1
  Basis Set: 6-31G*
  Basis Set:

    Orbital Energies (a.u.)
    -----------------------

    Doubly Occupied:

       1A    -20.578896     2A    -20.536725     3A    -11.285163
       4A    -11.268429     5A     -1.391261     6A     -1.341968
       7A     -0.997673     8A     -0.847901     9A     -0.730650
      10A     -0.672757    11A     -0.667069    12A     -0.586476
      13A     -0.576607    14A     -0.543890    15A     -0.475132
      16A     -0.471258    17A     -0.415008

  @DF-RHF Final Energy:  -228.91457188082171

   => Energetics <=

    Nuclear Repulsion Energy =            134.8986900829393107
    One-Electron Energy =                -580.8527948443394280
    Two-Electron Energy =                 217.0395328805782924
    DFT Exchange-Correlation Energy =       0.0000000000000000
    Empirical Dispersion Energy =           0.0000000000000000
    PCM Polarization Energy =               0.0000000000000000
    EFP Energy =                            0.0000000000000000
    Total Energy =                       -228.9145718808218248
    Molecular point group: c1
  Basis Set: 6-31G*
  Basis Set:

  -Total Gradient:
     Atom            X                  Y                   Z
    ------   -----------------  -----------------  -----------------
       1       -0.000002257785    -0.000010222273    -0.000005201598
       2       -0.000050733405     0.000042632097     0.000038475858
       3       -0.000133216011    -0.000406840997    -0.000321274596
       4       -0.000164230816     0.000249010580    -0.000309105408
       5        0.000135688969     0.000240805775     0.000332696129
       6       -0.000001593598     0.000006264797     0.000004152095
       7        0.000154096423    -0.000120312476     0.000274369464
       8        0.000005272809     0.000013223145     0.000002969324
       9        0.000011896197     0.000002109783    -0.000003624307
      10        0.000045077222    -0.000016670429    -0.000013456961

  **** Optimization is complete! (in 12 steps) ****
    Final optimized geometry and variables:
    Molecular point group: c1

    Geometry (in Angstrom), charge = 0, multiplicity = 1:

    H            1.883891922301    -0.556695938194    -1.142709928117
    O            1.021090553727    -0.550152014313    -0.754334582960
    C            0.817487527155     0.643385215664    -0.039882134795
    C           -0.596184435530     0.604951037439     0.595813817136
    H            0.907703448640     1.497790619766    -0.703930886911
    H            1.571719429578     0.747087982230     0.734491540405
    O           -1.308644286651    -0.557234410718     0.299892290918
    H           -1.168485935072     1.459281048714     0.250378602936
    H           -0.505660471059     0.695142854585     1.673531015400
    H           -0.760499979421    -1.131306296681    -0.218814689836

  Mulliken Charges: (a.u.)
   Center  Symbol    Alpha    Beta     Spin     Total
       1     H     0.27307  0.27307  0.00000  0.45386
       2     O     4.38287  4.38287  0.00000 -0.76574
       3     C     3.01774  3.01774  0.00000 -0.03548
       4     C     2.98920  2.98920  0.00000  0.02161
       5     H     0.42283  0.42283  0.00000  0.15434
       6     H     0.42317  0.42317  0.00000  0.15365
       7     O     4.38308  4.38308  0.00000 -0.76615
       8     H     0.42354  0.42354  0.00000  0.15292
       9     H     0.42454  0.42454  0.00000  0.15092
      10     H     0.25997  0.25997  0.00000  0.48006

   Total alpha = 17.00000, Total beta = 17.00000, Total charge = -0.00000
