  ==> Input File <==

--------------------------------------------------------------------------
set {
	reference rhf
	basis 6-31G*
}

set_num_threads( 4 )
memory 2 gb

molecule MOL {
0 1

H	 -2.244713	 0.404593	 2.278350
C	 -1.794302	 0.187500	 1.327889
C	 -2.569368	 0.048063	 0.189128
C	 -0.426998	 0.043812	 1.228981
H	 -3.637535	 0.156575	 0.245568
C	 -1.976089	 -0.231370	 -1.027698
H	 0.199946	 0.145662	 2.089995
C	 0.154804	 -0.237046	 -0.000077
H	 -2.594809	 -0.335636	 -1.899713
C	 -0.598388	 -0.384269	 -1.169716
N	 1.611208	 -0.370857	 -0.000034
C	 -0.057030	 -0.688856	 -2.549241
O	 2.274126	 0.622059	 -0.008063
O	 2.068510	 -1.474748	 0.007823
H	 0.473237	 -1.630956	 -2.569060
H	 -0.880922	 -0.739215	 -3.249984
H	 0.635000	 0.072488	 -2.881767

	symmetry c1
}
set optking {
	frozen_dihedral = ("
		4 8 11 13
	")
}

ee = optimize('scf')
oeprop('DIPOLE', 'QUADRUPOLE', 'MULLIKEN_CHARGES')
f=open( 'psi4out.xyz', 'w' )
f.write( "17  " )
f.write( str(ee) + "\n" )
f.write( MOL.save_string_xyz() )
f.close()
--------------------------------------------------------------------------

    Molecular point group: c1
  Charge       = 0
  Multiplicity = 1
  Basis Set: 6-31G*
  Basis Set:
  @DF-RHF Final Energy:  -473.19857657331954
    Total Energy =                       -473.1985765733199969
    Molecular point group: c1
  Basis Set: 6-31G*
  Basis Set:
  Basis Set: 6-31G*
  Basis Set:
  @DF-RHF Final Energy:  -473.20007294932043
    Total Energy =                       -473.2000729493205426
  Basis Set: 6-31G*
  Basis Set:
  Basis Set: 6-31G*
  Basis Set:
  @DF-RHF Final Energy:  -473.20089838305495
    Total Energy =                       -473.2008983830547777
  Basis Set: 6-31G*
  Basis Set:
  Basis Set: 6-31G*
  Basis Set:
  @DF-RHF Final Energy:  -473.20115569287822
    Total Energy =                       -473.2011556928779328
  Basis Set: 6-31G*
  Basis Set:
  @DF-RHF Final Energy:  -473.20122745009070
    Total Energy =                       -473.2012274500909825
  Basis Set: 6-31G*
  Basis Set:
  @DF-RHF Final Energy:  -473.20124245979923
    Total Energy =                       -473.2012424597998006
  Basis Set: 6-31G*
  Basis Set:
  Basis Set: 6-31G*
  Basis Set:
  @DF-RHF Final Energy:  -473.20125948023167
    Total Energy =                       -473.2012594802311014
  Basis Set: 6-31G*
  Basis Set:
  Basis Set: 6-31G*
  Basis Set:
  @DF-RHF Final Energy:  -473.20126504606014
    Total Energy =                       -473.2012650460600298
  Basis Set: 6-31G*
  Basis Set:
  Charge       = 0
  Multiplicity = 1
  Basis Set: 6-31G*
  Basis Set:

    Orbital Energies (a.u.)
    -----------------------

    Doubly Occupied:

       1A    -20.606191     2A    -20.605739     3A    -15.853316
       4A    -11.302304     5A    -11.276270     6A    -11.267457
       7A    -11.258281     8A    -11.256282     9A    -11.255302
      10A    -11.240092    11A     -1.636849    12A     -1.420619
      13A     -1.202439    14A     -1.092178    15A     -1.072968
      16A     -0.979335    17A     -0.935994    18A     -0.853840
      19A     -0.819735    20A     -0.772654    21A     -0.734349
      22A     -0.730161    23A     -0.695886    24A     -0.652599
      25A     -0.636421    26A     -0.600038    27A     -0.599111
      28A     -0.570698    29A     -0.542459    30A     -0.529019
      31A     -0.520641    32A     -0.492960    33A     -0.478553
      34A     -0.450752    35A     -0.363967    36A     -0.353308

  @DF-RHF Final Energy:  -473.20126555314630

   => Energetics <=

    Nuclear Repulsion Energy =            509.8594423514365417
    One-Electron Energy =               -1654.8038820449437480
    Two-Electron Energy =                 671.7431741403609067
    DFT Exchange-Correlation Energy =       0.0000000000000000
    Empirical Dispersion Energy =           0.0000000000000000
    PCM Polarization Energy =               0.0000000000000000
    EFP Energy =                            0.0000000000000000
    Total Energy =                       -473.2012655531464134
    Molecular point group: c1
  Basis Set: 6-31G*
  Basis Set:

  -Total Gradient:
     Atom            X                  Y                   Z
    ------   -----------------  -----------------  -----------------
       1        0.000013288954     0.000002156594     0.000001246461
       2       -0.000107198072     0.000061466934    -0.000067081271
       3        0.000003097653    -0.000010742560     0.000117388097
       4       -0.000073968362    -0.001962513560     0.000255937307
       5       -0.000002425839    -0.000001974778    -0.000010572573
       6        0.000098304818    -0.000024867473    -0.000061212288
       7       -0.000000180396     0.000008178846     0.000008666482
       8        0.000227505373     0.002719420369    -0.001163580790
       9       -0.000009630533     0.000010413450     0.000002401595
      10       -0.000122158738    -0.000006973916    -0.000029586020
      11        0.000078056602    -0.000758599069     0.003141692464
      12       -0.000004146751     0.000010894275    -0.000018150986
      13       -0.000125033304    -0.000013972762    -0.002185212572
      14        0.000013045720    -0.000025137563     0.000010269586
      15        0.000004304292    -0.000005805486    -0.000000151126
      16        0.000007280140    -0.000000994816     0.000003832956
      17       -0.000000141560    -0.000000948480    -0.000005887321

  **** Optimization is complete! (in 9 steps) ****
    Final optimized geometry and variables:
    Molecular point group: c1

    Geometry (in Angstrom), charge = 0, multiplicity = 1:

    H           -2.197917050421     0.652639719953     2.540373452026
    C           -1.753045591620     0.441922647868     1.585678566271
    C           -2.541088966731     0.294696904210     0.457530060809
    C           -0.378796997059     0.318293866958     1.476154238726
    H           -3.608837391115     0.393091163139     0.531935703024
    C           -1.963690711712     0.021571074521    -0.772471143902
    H            0.260923681162     0.435011881707     2.331128900677
    C            0.162718252132     0.045784766109     0.239416397584
    H           -2.589694499158    -0.087405727021    -1.639616120291
    C           -0.588949427417    -0.119139256450    -0.913412213909
    N            1.617878526918    -0.105611515826     0.158764339720
    C            0.047603929573    -0.434625292917    -2.246358808575
    O            2.270234537379     0.891868407565     0.126317919692
    O            2.049419502450    -1.216404399965     0.116645219491
    H            0.475551050512    -1.430619654808    -2.244703625346
    H           -0.688314101945    -0.380316207413    -3.038025145072
    H            0.842247181246     0.266535735644    -2.477628775112

  Mulliken Charges: (a.u.)
   Center  Symbol    Alpha    Beta     Spin     Total
       1     H     0.38988  0.38988  0.00000  0.22025
       2     C     3.10866  3.10866  0.00000 -0.21733
       3     C     3.08845  3.08845  0.00000 -0.17690
       4     C     3.08357  3.08357  0.00000 -0.16713
       5     H     0.39118  0.39118  0.00000  0.21764
       6     C     3.11917  3.11917  0.00000 -0.23833
       7     H     0.37727  0.37727  0.00000  0.24546
       8     C     2.90797  2.90797  0.00000  0.18407
       9     H     0.39271  0.39271  0.00000  0.21459
      10     C     2.96804  2.96804  0.00000  0.06393
      11     N     3.26419  3.26419  0.00000  0.47161
      12     C     3.25975  3.25975  0.00000 -0.51950
      13     O     4.22409  4.22409  0.00000 -0.44818
      14     O     4.22491  4.22491  0.00000 -0.44983
      15     H     0.39333  0.39333  0.00000  0.21334
      16     H     0.40735  0.40735  0.00000  0.18530
      17     H     0.39949  0.39949  0.00000  0.20103

   Total alpha = 36.00000, Total beta = 36.00000, Total charge = -0.00000
