  ==> Input File <==

--------------------------------------------------------------------------
set {
	reference rhf
	basis cc-pvtz
}

set_num_threads( 4 )
memory 2 gb

molecule MOL {
0 1

H	 3.459101	 0.139266	 -0.762951
C	 2.749156	 -0.051729	 0.031265
C	 1.322304	 0.099773	 -0.484271
H	 2.929445	 -1.053887	 0.403481
H	 2.954281	 0.646699	 0.834672
C	 0.308557	 -0.162619	 0.622645
H	 1.143368	 -0.594400	 -1.295960
H	 1.169532	 1.100095	 -0.870217
N	 -1.069352	 -0.004081	 0.085342
H	 0.371632	 -1.172932	 0.991288
H	 0.400391	 0.548875	 1.426218
O	 -1.923725	 -0.658518	 0.581664
O	 -1.215278	 0.744335	 -0.822139

	symmetry c1
}
set optking {
	frozen_dihedral = ("
		12 9 6 3
	")
}

ee = optimize('scf')
oeprop('DIPOLE', 'QUADRUPOLE', 'MULLIKEN_CHARGES')
f=open( 'psi4out.xyz', 'w' )
f.write( "13  " )
f.write( str(ee) + "\n" )
f.write( MOL.save_string_xyz() )
f.close()
--------------------------------------------------------------------------

    Molecular point group: c1
  Charge       = 0
  Multiplicity = 1
  Basis Set: CC-PVTZ
  Basis Set:
  @DF-RHF Final Energy:  -321.85922967789230
    Total Energy =                       -321.8592296778923014
    Molecular point group: c1
  Basis Set: CC-PVTZ
  Basis Set:
  Basis Set: CC-PVTZ
  Basis Set:
  @DF-RHF Final Energy:  -321.85676612143789
    Total Energy =                       -321.8567661214377722
  Basis Set: CC-PVTZ
  Basis Set:
  Basis Set: CC-PVTZ
  Basis Set:
  @DF-RHF Final Energy:  -321.85752880932705
    Total Energy =                       -321.8575288093269364
  Basis Set: CC-PVTZ
  Basis Set:
  Basis Set: CC-PVTZ
  Basis Set:
  @DF-RHF Final Energy:  -321.86035167553439
    Total Energy =                       -321.8603516755342753
  Basis Set: CC-PVTZ
  Basis Set:
  Basis Set: CC-PVTZ
  Basis Set:
  @DF-RHF Final Energy:  -321.86071417892430
    Total Energy =                       -321.8607141789243542
  Basis Set: CC-PVTZ
  Basis Set:
  Basis Set: CC-PVTZ
  Basis Set:
  @DF-RHF Final Energy:  -321.86073546004138
    Total Energy =                       -321.8607354600410986
  Basis Set: CC-PVTZ
  Basis Set:
  Basis Set: CC-PVTZ
  Basis Set:
  @DF-RHF Final Energy:  -321.86073837716879
    Total Energy =                       -321.8607383771686727
  Basis Set: CC-PVTZ
  Basis Set:
  Charge       = 0
  Multiplicity = 1
  Basis Set: CC-PVTZ
  Basis Set:

    Orbital Energies (a.u.)
    -----------------------

    Doubly Occupied:

       1A    -20.591432     2A    -20.590182     3A    -15.838203
       4A    -11.298735     5A    -11.248317     6A    -11.235313
       7A     -1.637060     8A     -1.421132     9A     -1.132039
      10A     -1.026981    11A     -0.884770    12A     -0.828360
      13A     -0.763659    14A     -0.748302    15A     -0.730615
      16A     -0.661288    17A     -0.606424    18A     -0.579670
      19A     -0.552411    20A     -0.522343    21A     -0.509967
      22A     -0.487667    23A     -0.474423    24A     -0.454403

  @DF-RHF Final Energy:  -321.86073848460728

   => Energetics <=

    Nuclear Repulsion Energy =            247.6486159069615951
    One-Electron Energy =                -929.3713174103006622
    Two-Electron Energy =                 359.8619630187316716
    DFT Exchange-Correlation Energy =       0.0000000000000000
    Empirical Dispersion Energy =           0.0000000000000000
    PCM Polarization Energy =               0.0000000000000000
    EFP Energy =                            0.0000000000000000
    Total Energy =                       -321.8607384846073955
    Molecular point group: c1
  Basis Set: CC-PVTZ
  Basis Set:

  -Total Gradient:
     Atom            X                  Y                   Z
    ------   -----------------  -----------------  -----------------
       1        0.000001006833    -0.000003518019    -0.000000706283
       2        0.000004059032    -0.000015369558    -0.000000990603
       3       -0.000001515761     0.000333800362     0.000077338985
       4        0.000002564004     0.000002156723     0.000005118866
       5       -0.000000256570     0.000001583576    -0.000003460578
       6       -0.000026542195    -0.000330951722    -0.000009335495
       7       -0.000000084422    -0.000001659487     0.000000230179
       8       -0.000004601086     0.000003795986     0.000003134811
       9        0.000090261663    -0.000281815921    -0.000345801005
      10       -0.000008125855     0.000001185598    -0.000001433562
      11       -0.000001072905     0.000002007912    -0.000010008309
      12       -0.000064191075     0.000306366001     0.000272794243
      13        0.000008498336    -0.000017581454     0.000013118753

  **** Optimization is complete! (in 8 steps) ****
    Final optimized geometry and variables:
    Molecular point group: c1

    Geometry (in Angstrom), charge = 0, multiplicity = 1:

    H            3.502578822425     0.125662986441    -0.744263965748
    C            2.770659961283    -0.057372265742     0.031564714812
    C            1.358504240093     0.120627136237    -0.518693076300
    H            2.928984011153    -1.062751362315     0.405539916903
    H            2.968641067517     0.635092282823     0.842448476917
    C            0.327247541379    -0.138414832887     0.562800880903
    H            1.192929741789    -0.564293457205    -1.342075063699
    H            1.229886768237     1.119665992082    -0.908289960917
    N           -1.079187205362    -0.011400747450     0.078214211050
    H            0.393568416779    -1.128615730210     0.980920145522
    H            0.399355348305     0.582118259642     1.366653714877
    O           -1.889643101103    -0.684990729738     0.620040017708
    O           -1.303851091913     0.769828929967    -0.783150935553

  Mulliken Charges: (a.u.)
   Center  Symbol    Alpha    Beta     Spin     Total
       1     H     0.44135  0.44135  0.00000  0.11730
       2     C     3.15222  3.15222  0.00000 -0.30443
       3     C     3.09323  3.09323  0.00000 -0.18647
       4     H     0.45269  0.45269  0.00000  0.09463
       5     H     0.45283  0.45283  0.00000  0.09434
       6     C     3.04420  3.04420  0.00000 -0.08840
       7     H     0.44326  0.44326  0.00000  0.11349
       8     H     0.43452  0.43452  0.00000  0.13096
       9     N     3.27477  3.27477  0.00000  0.45046
      10     H     0.43176  0.43176  0.00000  0.13648
      11     H     0.43639  0.43639  0.00000  0.12721
      12     O     4.17168  4.17168  0.00000 -0.34335
      13     O     4.17111  4.17111  0.00000 -0.34221

   Total alpha = 24.00000, Total beta = 24.00000, Total charge =  0.00000
