                              Psi4 1.0.54 Driver

  ==> Input File <==

--------------------------------------------------------------------------
set {
	reference rhf
	basis cc-pvtz
}

set_num_threads( 4 )
memory 2 gb

molecule MOL {
0 1

H	 -2.266619	 1.169943	 0.000098
O	 -1.438073	 1.611259	 0.000041
C	 -0.408657	 0.734701	 0.000005
C	 -0.447212	 -0.273863	 -0.944834
C	 0.645532	 0.830157	 0.900941
H	 -1.277615	 -0.313391	 -1.622181
C	 0.569791	 -1.203044	 -1.002231
C	 1.653507	 -0.116950	 0.820305
C	 0.686143	 1.931377	 1.931410
H	 0.533118	 -1.983228	 -1.738401
C	 1.628448	 -1.129575	 -0.117765
H	 2.475270	 -0.056933	 1.509560
H	 -0.170395	 1.890975	 2.598515
H	 1.573396	 1.849599	 2.542585
H	 0.701340	 2.914836	 1.469996
H	 2.423096	 -1.848883	 -0.156508

	symmetry c1
}
set optking {
	frozen_dihedral = ("
		4 3 2 1
	")
}

ee,wfn = optimize('scf', return_wfn=True)
oeprop( wfn, 'DIPOLE', 'QUADRUPOLE', 'MULLIKEN_CHARGES')
f=open( 'psi4out.xyz', 'w' )
f.write( "16  " )
f.write( str(ee) + "\n" )
f.write( MOL.save_string_xyz() )
f.close()
--------------------------------------------------------------------------

    Molecular point group: c1
  Charge       = 0
  Multiplicity = 1
  Basis Set: CC-PVTZ
  Basis Set:
  @DF-RHF Final Energy:  -344.71595384356590
    Total Energy =                       -344.7159538435656714
    Molecular point group: c1
  Basis Set: CC-PVTZ
  Basis Set:
  Basis Set: CC-PVTZ
  Basis Set:
  @DF-RHF Final Energy:  -344.71767117279541
    Total Energy =                       -344.7176711727956331
  Basis Set: CC-PVTZ
  Basis Set:
  Basis Set: CC-PVTZ
  Basis Set:
  @DF-RHF Final Energy:  -344.71778589216058
    Total Energy =                       -344.7177858921603502
  Basis Set: CC-PVTZ
  Basis Set:
  Basis Set: CC-PVTZ
  Basis Set:
  @DF-RHF Final Energy:  -344.71779394723330
    Total Energy =                       -344.7177939472333605
  Basis Set: CC-PVTZ
  Basis Set:
  Charge       = 0
  Multiplicity = 1
  Basis Set: CC-PVTZ
  Basis Set:

    Orbital Energies (a.u.)
    -----------------------

    Doubly Occupied:

       1A    -20.575311     2A    -11.286391     3A    -11.230792
       4A    -11.228070     5A    -11.225789     6A    -11.223694
       7A    -11.220164     8A    -11.214012     9A     -1.403258
      10A     -1.153144    11A     -1.047347    12A     -1.006503
      13A     -0.932722    14A     -0.841459    15A     -0.803894
      16A     -0.733226    17A     -0.672265    18A     -0.656705
      19A     -0.621004    20A     -0.595824    21A     -0.574950
      22A     -0.563594    23A     -0.543756    24A     -0.532139
      25A     -0.502317    26A     -0.486313    27A     -0.471900
      28A     -0.333356    29A     -0.315788

  @DF-RHF Final Energy:  -344.71779625825633

   => Energetics <=

    Nuclear Repulsion Energy =            350.6611236416052293
    One-Electron Energy =               -1162.7664638413461944
    Two-Electron Energy =                 467.3875439414846937
    DFT Exchange-Correlation Energy =       0.0000000000000000
    Empirical Dispersion Energy =           0.0000000000000000
    PCM Polarization Energy =               0.0000000000000000
    EFP Energy =                            0.0000000000000000
    Total Energy =                       -344.7177962582563282
    Molecular point group: c1
  Basis Set: CC-PVTZ
  Basis Set:

  -Total Gradient:
     Atom            X                  Y                   Z
    ------   -----------------  -----------------  -----------------
       1        0.000035545661    -0.000078551649     0.002514669776
       2        0.000440630197     0.000648138429    -0.003693874033
       3       -0.001313947619    -0.001667277170     0.002357313236
       4        0.000898208414     0.001142997728    -0.001112222246
       5       -0.000126829512     0.000124672768    -0.000046316604
       6        0.000044877273    -0.000017462135     0.000016495377
       7        0.000009814039    -0.000053428851    -0.000020202732
       8        0.000008936374    -0.000136147768    -0.000001203463
       9        0.000050862773     0.000035764509     0.000050783740
      10        0.000038591525    -0.000029262145     0.000002325985
      11        0.000019803207     0.000069328113     0.000021392418
      12       -0.000011168173     0.000010529097    -0.000007561529
      13       -0.000020874430     0.000002265306     0.000014277620
      14       -0.000037287228    -0.000027473846    -0.000041172787
      15       -0.000015817955     0.000007660375    -0.000006999555
      16       -0.000021344544    -0.000031752762    -0.000047705204

  **** Optimization is complete! (in 5 steps) ****
    Final optimized geometry and variables:
    Molecular point group: c1

    Geometry (in Angstrom), charge = 0, multiplicity = 1:

    H           -2.557689911261     0.896757866247    -0.178720023540
    O           -1.707150255253     1.297369889554    -0.167576349815
    C           -0.726416848017     0.351820412550    -0.216971539525
    C           -0.754436119911    -0.646044723415    -1.170034040115
    C            0.332112171088     0.462886552827     0.676169566225
    H           -1.572840296491    -0.687410712818    -1.864473669905
    C            0.266854414063    -1.575774238685    -1.230436390314
    C            1.348668480552    -0.472186862025     0.587693469197
    C            0.359214003970     1.570594284717     1.696697796239
    H            0.236721418496    -2.353601995196    -1.969223330986
    C            1.323883933249    -1.489344610165    -0.349882966941
    H            2.175379391113    -0.405278775943     1.270041820217
    H           -0.512394184618     1.531963321372     2.338761673527
    H            1.242639008510     1.495553096911     2.316211007124
    H            0.358631040593     2.542625280763     1.218921795161
    H            2.125013665765    -2.201746105621    -0.391421950656

  Mulliken Charges: (a.u.)
   Center  Symbol    Alpha    Beta     Spin     Total
       1     H     0.38479  0.38479  0.00000  0.23042
       2     O     4.18597  4.18597  0.00000 -0.37195
       3     C     2.87955  2.87955  0.00000  0.24090
       4     C     3.12160  3.12160  0.00000 -0.24321
       5     C     2.99325  2.99325  0.00000  0.01349
       6     H     0.42660  0.42660  0.00000  0.14680
       7     C     3.07465  3.07465  0.00000 -0.14930
       8     C     3.08888  3.08888  0.00000 -0.17775
       9     C     3.13938  3.13938  0.00000 -0.27876
      10     H     0.42251  0.42251  0.00000  0.15498
      11     C     3.08405  3.08405  0.00000 -0.16810
      12     H     0.42475  0.42475  0.00000  0.15051
      13     H     0.45044  0.45044  0.00000  0.09912
      14     H     0.45384  0.45384  0.00000  0.09231
      15     H     0.44527  0.44527  0.00000  0.10946
      16     H     0.42447  0.42447  0.00000  0.15107

   Total alpha = 29.00000, Total beta = 29.00000, Total charge =  0.00000

*** Psi4 exiting successfully. Buy a developer a beer!
