  ==> Input File <==

--------------------------------------------------------------------------
set {
	reference rhf
	basis 6-31G*
}

set_num_threads( 4 )
memory 2 gb

molecule MOL {
0 1

H	 -1.220916	 0.407815	 2.663834
O	 -0.309901	 0.293073	 2.429873
C	 -0.036256	 1.042251	 1.281913
C	 -0.793441	 0.596080	 0.058728
H	 1.029119	 0.947041	 1.105522
H	 -0.229373	 2.100408	 1.455220
C	 -1.530462	 -0.493172	 -0.025500
H	 -0.697098	 1.245063	 -0.798023
H	 -1.092586	 -1.461565	 -0.186463
H	 -2.602122	 -0.450675	 0.050101

	symmetry c1
}
set optking {
	frozen_dihedral = ("
		3 4 7 9
	")
}

ee = optimize('scf')
oeprop('DIPOLE', 'QUADRUPOLE', 'MULLIKEN_CHARGES')
f=open( 'psi4out.xyz', 'w' )
f.write( "10  " )
f.write( str(ee) + "\n" )
f.write( MOL.save_string_xyz() )
f.close()
--------------------------------------------------------------------------

    Molecular point group: c1
  Charge       = 0
  Multiplicity = 1
  Basis Set: 6-31G*
  Basis Set:
  @DF-RHF Final Energy:  -191.77290710772513
    Total Energy =                       -191.7729071077250751
    Molecular point group: c1
  Basis Set: 6-31G*
  Basis Set:
  Basis Set: 6-31G*
  Basis Set:
  @DF-RHF Final Energy:  -191.81050653812747
    Total Energy =                       -191.8105065381274699
  Basis Set: 6-31G*
  Basis Set:
  Basis Set: 6-31G*
  Basis Set:
  @DF-RHF Final Energy:  -191.84984229453096
    Total Energy =                       -191.8498422945310153
  Basis Set: 6-31G*
  Basis Set:
  Basis Set: 6-31G*
  Basis Set:
  @DF-RHF Final Energy:  -191.86527250032032
    Total Energy =                       -191.8652725003203159
  Basis Set: 6-31G*
  Basis Set:
  @DF-RHF Final Energy:  -191.86694228099691
    Total Energy =                       -191.8669422809969660
  @DF-RHF Final Energy:  -191.86745555289690
    Total Energy =                       -191.8674555528969279
  @DF-RHF Final Energy:  -191.86768566701352
    Total Energy =                       -191.8676856670135749
  @DF-RHF Final Energy:  -191.83171424145502
    Total Energy =                       -191.8317142414550744
  @DF-RHF Final Energy:  -191.86275945379185
    Total Energy =                       -191.8627594537918242
  Basis Set: 6-31G*
  Basis Set:
  @DF-RHF Final Energy:  -191.86756243019255
    Total Energy =                       -191.8675624301925495
  Basis Set: 6-31G*
  Basis Set:
  Basis Set: 6-31G*
  Basis Set:
  @DF-RHF Final Energy:  -191.86769368260411
    Total Energy =                       -191.8676936826040560
  Basis Set: 6-31G*
  Basis Set:
  Basis Set: 6-31G*
  Basis Set:
  @DF-RHF Final Energy:  -191.86770112731762
    Total Energy =                       -191.8677011273176731
  Basis Set: 6-31G*
  Basis Set:
  Charge       = 0
  Multiplicity = 1
  Basis Set: 6-31G*
  Basis Set:

    Orbital Energies (a.u.)
    -----------------------

    Doubly Occupied:

       1A    -20.558968     2A    -11.285486     3A    -11.249585
       4A    -11.227175     5A     -1.369297     6A     -1.063015
       7A     -0.936055     8A     -0.775179     9A     -0.684009
      10A     -0.652138    11A     -0.624432    12A     -0.567663
      13A     -0.534543    14A     -0.497807    15A     -0.442251
      16A     -0.355508

  @DF-RHF Final Energy:  -191.86770174263609

   => Energetics <=

    Nuclear Repulsion Energy =            118.0741256224991531
    One-Electron Energy =                -494.2374312195798893
    Two-Electron Energy =                 184.2956038544446642
    DFT Exchange-Correlation Energy =       0.0000000000000000
    Empirical Dispersion Energy =           0.0000000000000000
    PCM Polarization Energy =               0.0000000000000000
    EFP Energy =                            0.0000000000000000
    Total Energy =                       -191.8677017426360862
    Molecular point group: c1
  Basis Set: 6-31G*
  Basis Set:

  -Total Gradient:
     Atom            X                  Y                   Z
    ------   -----------------  -----------------  -----------------
       1       -0.000004813386    -0.000018826137     0.000027185310
       2       -0.000034152405     0.000010150012    -0.000013300403
       3       -0.019367407226     0.023334945676    -0.001881700513
       4        0.036437122911    -0.043629347877    -0.016757251505
       5        0.000016608014     0.000050376385    -0.000000701240
       6       -0.000001600764    -0.000003736950     0.000022596872
       7       -0.023339849772     0.027295929323     0.058586432127
       8       -0.000095228567     0.000219011602     0.000200388280
       9        0.006414315455    -0.007248742516    -0.040165614325
      10       -0.000024994262    -0.000009759517    -0.000018034603

  **** Optimization is complete! (in 13 steps) ****
    Final optimized geometry and variables:
    Molecular point group: c1

    Geometry (in Angstrom), charge = 0, multiplicity = 1:

    H           -0.313630567177    -0.296209676700     1.595104231573
    O            0.577055822774    -0.029588859460     1.407845532463
    C            0.582376012338     0.719399023224     0.232221150110
    C           -0.091900822177     0.063335255284    -0.950020490873
    H            1.617899879101     0.965236632596     0.027581153307
    H            0.051276274021     1.660455540701     0.360336389975
    C           -1.122212776228    -0.794264545962    -0.961004586543
    H           -0.154982022528     0.814047370114    -1.731043158509
    H           -1.092513695667    -1.856040304963    -0.765117685083
    H           -1.744353323916    -0.680603970761    -1.841160423835

  Mulliken Charges: (a.u.)
   Center  Symbol    Alpha    Beta     Spin     Total
       1     H     0.27829  0.27829  0.00000  0.44341
       2     O     4.36557  4.36557  0.00000 -0.73113
       3     C     3.00346  3.00346  0.00000 -0.00693
       4     C     3.07068  3.07068  0.00000 -0.14137
       5     H     0.41043  0.41043  0.00000  0.17915
       6     H     0.41779  0.41779  0.00000  0.16443
       7     C     3.21404  3.21404  0.00000 -0.42808
       8     H     0.41889  0.41889  0.00000  0.16223
       9     H     0.40133  0.40133  0.00000  0.19734
      10     H     0.41952  0.41952  0.00000  0.16095

   Total alpha = 16.00000, Total beta = 16.00000, Total charge = -0.00000
