  ==> Input File <==

--------------------------------------------------------------------------
set {
	reference rhf
	basis 6-31G*
}

set_num_threads( 1 )
memory 2 gb

molecule MOL {
0 1

O	 -2.776432	 -0.060977	 0.769834
C	 -1.921153	 0.064240	 -0.045697
C	 -2.149005	 0.133719	 -1.531497
O	 -0.632575	 0.154573	 0.251549
H	 -1.614811	 -0.671882	 -2.021998
H	 -3.205665	 0.057846	 -1.740184
H	 -1.760164	 1.068616	 -1.918185
C	 0.160891	 -1.019931	 0.106212
C	 1.589627	 -0.672828	 0.480843
H	 0.089836	 -1.367806	 -0.916050
H	 -0.238459	 -1.792301	 0.749618
C	 2.246377	 0.346236	 -0.452210
H	 2.163194	 -1.597435	 0.473358
H	 1.604769	 -0.303424	 1.502885
C	 3.691736	 0.652107	 -0.061850
H	 2.219579	 -0.032311	 -1.472055
H	 1.666466	 1.263317	 -0.447249
H	 4.134505	 1.377213	 -0.737283
H	 4.305508	 -0.243868	 -0.089969
H	 3.748266	 1.059562	 0.943567

	symmetry c1
}
set optking {
	frozen_dihedral = ("
		16 12 9 8,
		2 4 8 10,
		12 9 8 10
	")
}

ee = energy('scf')
oeprop('DIPOLE', 'QUADRUPOLE', 'MULLIKEN_CHARGES')
f=open( 'psi4out.xyz', 'w' )
f.write( "20  " )
f.write( str(ee) + "\n" )
f.write( MOL.save_string_xyz() )
f.close()
--------------------------------------------------------------------------

    Molecular point group: c1

    Geometry (in Angstrom), charge = 0, multiplicity = 1:

       Center              X                  Y                   Z               Mass
    ------------   -----------------  -----------------  -----------------  -----------------
           O         -2.794613134752    -0.012286715162     0.833851539898    15.994914619560
           C         -1.939334134752     0.112930284838     0.018320539898    12.000000000000
           C         -2.167186134752     0.182409284838    -1.467479460102    12.000000000000
           O         -0.650756134752     0.203263284838     0.315566539898    15.994914619560
           H         -1.632992134752    -0.623191715162    -1.957980460102     1.007825032070
           H         -3.223846134752     0.106536284838    -1.676166460102     1.007825032070
           H         -1.778345134752     1.117306284838    -1.854167460102     1.007825032070
           C          0.142709865248    -0.971240715162     0.170229539898    12.000000000000
           C          1.571445865248    -0.624137715162     0.544860539898    12.000000000000
           H          0.071654865248    -1.319115715162    -0.852032460102     1.007825032070
           H         -0.256640134752    -1.743610715162     0.813635539898     1.007825032070
           C          2.228195865248     0.394926284838    -0.388192460102    12.000000000000
           H          2.145012865248    -1.548744715162     0.537375539898     1.007825032070
           H          1.586587865248    -0.254733715162     1.566902539898     1.007825032070
           C          3.673554865248     0.700797284838     0.002167539898    12.000000000000
           H          2.201397865248     0.016379284838    -1.408037460102     1.007825032070
           H          1.648284865248     1.312007284838    -0.383231460102     1.007825032070
           H          4.116323865248     1.425903284838    -0.673265460102     1.007825032070
           H          4.287326865248    -0.195177715162    -0.025951460102     1.007825032070
           H          3.730084865248     1.108252284838     1.007584539898     1.007825032070

  Charge       = 0
  Multiplicity = 1
  Basis Set: 6-31G*
  Basis Set:

    Orbital Energies (a.u.)
    -----------------------

    Doubly Occupied:

       1A    -20.585821     2A    -20.553526     3A    -11.375627
       4A    -11.297891     5A    -11.234241     6A    -11.231224
       7A    -11.224471     8A    -11.216040     9A     -1.462570
      10A     -1.367262    11A     -1.088419    12A     -1.022031
      13A     -0.993585    14A     -0.888129    15A     -0.814338
      16A     -0.781627    17A     -0.693574    18A     -0.688669
      19A     -0.655483    20A     -0.636144    21A     -0.619897
      22A     -0.591835    23A     -0.578084    24A     -0.557572
      25A     -0.551138    26A     -0.535675    27A     -0.491987
      28A     -0.489475    29A     -0.482235    30A     -0.475805
      31A     -0.451673    32A     -0.436430

  @DF-RHF Final Energy:  -383.92350603079979

   => Energetics <=

    Nuclear Repulsion Energy =            386.0864187907294536
    One-Electron Energy =               -1287.8748791509478906
    Two-Electron Energy =                 517.8649543294197883
    DFT Exchange-Correlation Energy =       0.0000000000000000
    Empirical Dispersion Energy =           0.0000000000000000
    PCM Polarization Energy =               0.0000000000000000
    EFP Energy =                            0.0000000000000000
    Total Energy =                       -383.9235060307986487

  Mulliken Charges: (a.u.)
   Center  Symbol    Alpha    Beta     Spin     Total
       1     O     4.25483  4.25483  0.00000 -0.50967
       2     C     2.62810  2.62810  0.00000  0.74380
       3     C     3.28964  3.28964  0.00000 -0.57927
       4     O     4.31049  4.31049  0.00000 -0.62098
       5     H     0.40733  0.40733  0.00000  0.18534
       6     H     0.39761  0.39761  0.00000  0.20477
       7     H     0.39910  0.39910  0.00000  0.20180
       8     C     3.00499  3.00499  0.00000 -0.00998
       9     C     3.16262  3.16262  0.00000 -0.32524
      10     H     0.42305  0.42305  0.00000  0.15389
      11     H     0.40785  0.40785  0.00000  0.18430
      12     C     3.15564  3.15564  0.00000 -0.31128
      13     H     0.41881  0.41881  0.00000  0.16239
      14     H     0.40770  0.40770  0.00000  0.18459
      15     C     3.24082  3.24082  0.00000 -0.48163
      16     H     0.42521  0.42521  0.00000  0.14959
      17     H     0.40878  0.40878  0.00000  0.18244
      18     H     0.41690  0.41690  0.00000  0.16620
      19     H     0.42184  0.42184  0.00000  0.15631
      20     H     0.41868  0.41868  0.00000  0.16263

   Total alpha = 32.00000, Total beta = 32.00000, Total charge = -0.00000
