  ==> Input File <==

--------------------------------------------------------------------------
set {
	reference rhf
	basis 6-31G*
}

set_num_threads( 1 )
memory 2 gb

molecule MOL {
0 1

H	 -2.698709	 -0.000305	 0.034435
C	 -1.693833	 0.000034	 0.434417
O	 -0.828952	 -0.000968	 -0.659236
H	 -1.574200	 0.882896	 1.055746
H	 -1.574147	 -0.881698	 1.057355
C	 -1.380943	 -0.002123	 -1.955310
C	 -2.179122	 -1.270500	 -2.250344
C	 -2.176503	 1.267069	 -2.253969
H	 -0.506654	 -0.003937	 -2.595346
H	 -1.603182	 -2.148890	 -1.979658
H	 -2.408229	 -1.326703	 -3.309866
H	 -3.120823	 -1.298217	 -1.711275
H	 -1.599078	 2.144998	 -1.985123
H	 -2.404762	 1.321141	 -3.313893
H	 -3.118414	 1.297931	 -1.715739

	symmetry c1
}
set optking {
	frozen_dihedral = ("
		9 6 3 2
	")
}

ee = energy('scf')
oeprop('DIPOLE', 'QUADRUPOLE', 'MULLIKEN_CHARGES')
f=open( 'psi4out.xyz', 'w' )
f.write( "15  " )
f.write( str(ee) + "\n" )
f.write( MOL.save_string_xyz() )
f.close()
--------------------------------------------------------------------------

    Molecular point group: c1

    Geometry (in Angstrom), charge = 0, multiplicity = 1:

       Center              X                  Y                   Z               Mass
    ------------   -----------------  -----------------  -----------------  -----------------
           H         -1.035579223200     0.000972211695     1.349667525839     1.007825032070
           C         -0.030703223200     0.001311211695     1.749649525839    12.000000000000
           O          0.834177776800     0.000309211695     0.655996525839    15.994914619560
           H          0.088929776800     0.884173211695     2.370978525839     1.007825032070
           H          0.088982776800    -0.880420788305     2.372587525839     1.007825032070
           C          0.282186776800    -0.000845788305    -0.640077474161    12.000000000000
           C         -0.515992223200    -1.269222788305    -0.935111474161    12.000000000000
           C         -0.513373223200     1.268346211695    -0.938736474161    12.000000000000
           H          1.156475776800    -0.002659788305    -1.280113474161     1.007825032070
           H          0.059947776800    -2.147612788305    -0.664425474161     1.007825032070
           H         -0.745099223200    -1.325425788305    -1.994633474161     1.007825032070
           H         -1.457693223200    -1.296939788305    -0.396042474161     1.007825032070
           H          0.064051776800     2.146275211695    -0.669890474161     1.007825032070
           H         -0.741632223200     1.322418211695    -1.998660474161     1.007825032070
           H         -1.455284223200     1.299208211695    -0.400506474161     1.007825032070

  Charge       = 0
  Multiplicity = 1
  Basis Set: 6-31G*
  Basis Set:

    Orbital Energies (a.u.)
    -----------------------

    Doubly Occupied:

       1A    -20.545116     2A    -11.275702     3A    -11.261297
       4A    -11.211041     5A    -11.211014     6A     -1.369438
       7A     -1.050561     8A     -0.940012     9A     -0.931489
      10A     -0.781879    11A     -0.678578    12A     -0.637874
      13A     -0.632422    14A     -0.573499    15A     -0.563445
      16A     -0.549401    17A     -0.539039    18A     -0.502212
      19A     -0.498240    20A     -0.439199    21A     -0.403745

  @DF-RHF Final Energy:  -232.13298052317634

   => Energetics <=

    Nuclear Repulsion Energy =            198.9732232722878962
    One-Electron Energy =                -709.0219038636611231
    Two-Electron Energy =                 277.9157000681967133
    DFT Exchange-Correlation Energy =       0.0000000000000000
    Empirical Dispersion Energy =           0.0000000000000000
    PCM Polarization Energy =               0.0000000000000000
    EFP Energy =                            0.0000000000000000
    Total Energy =                       -232.1329805231765135

  Mulliken Charges: (a.u.)
   Center  Symbol    Alpha    Beta     Spin     Total
       1     H     0.43273  0.43273  0.00000  0.13454
       2     C     3.07491  3.07491  0.00000 -0.14982
       3     O     4.31536  4.31536  0.00000 -0.63072
       4     H     0.42127  0.42127  0.00000  0.15745
       5     H     0.42128  0.42128  0.00000  0.15745
       6     C     2.91210  2.91210  0.00000  0.17580
       7     C     3.25186  3.25186  0.00000 -0.50372
       8     C     3.25183  3.25183  0.00000 -0.50366
       9     H     0.41452  0.41452  0.00000  0.17097
      10     H     0.41109  0.41109  0.00000  0.17783
      11     H     0.41944  0.41944  0.00000  0.16112
      12     H     0.42153  0.42153  0.00000  0.15693
      13     H     0.41108  0.41108  0.00000  0.17784
      14     H     0.41947  0.41947  0.00000  0.16106
      15     H     0.42153  0.42153  0.00000  0.15693

   Total alpha = 21.00000, Total beta = 21.00000, Total charge = -0.00000
