  ==> Input File <==

--------------------------------------------------------------------------
set {
	reference rhf
	basis 6-31G*
}

set_num_threads( 1 )
memory 2 gb

molecule MOL {
0 1

H	 3.924946	 -0.867373	 -2.102034
C	 3.343624	 -1.027448	 -1.199709
C	 2.064524	 -0.191585	 -1.213813
H	 3.118525	 -2.088385	 -1.136698
H	 3.973469	 -0.772584	 -0.352014
C	 1.217350	 -0.386724	 0.039429
H	 1.461959	 -0.443034	 -2.081037
H	 2.323727	 0.861368	 -1.311260
N	 0.000003	 0.397874	 -0.023260
H	 0.936594	 -1.433227	 0.122927
H	 1.816794	 -0.155726	 0.926382
C	 -1.217365	 -0.386708	 0.039277
H	 -0.000031	 1.072115	 0.718656
C	 -2.452633	 0.504241	 -0.042481
H	 -1.215291	 -1.074557	 -0.802042
H	 -1.269739	 -1.003477	 0.942735
C	 -3.758029	 -0.289423	 -0.010781
H	 -2.394220	 1.093569	 -0.952170
H	 -2.440793	 1.210787	 0.785871
H	 -3.816659	 -0.981993	 -0.845726
H	 -4.617837	 0.370165	 -0.069296
H	 -3.847478	 -0.867502	 0.904682

	symmetry c1
}
set optking {
	frozen_dihedral = ("
		15 12 14 18
	")
}

ee = energy('scf')
oeprop('DIPOLE', 'QUADRUPOLE', 'MULLIKEN_CHARGES')
f=open( 'psi4out.xyz', 'w' )
f.write( "22  " )
f.write( str(ee) + "\n" )
f.write( MOL.save_string_xyz() )
f.close()
--------------------------------------------------------------------------

    Molecular point group: c1

    Geometry (in Angstrom), charge = 0, multiplicity = 1:

       Center              X                  Y                   Z               Mass
    ------------   -----------------  -----------------  -----------------  -----------------
           H          4.040573949954    -0.660887476448    -1.763084152498     1.007825032070
           C          3.459251949954    -0.820962476448    -0.860759152498    12.000000000000
           C          2.180151949954     0.014900523552    -0.874863152498    12.000000000000
           H          3.234152949954    -1.881899476448    -0.797748152498     1.007825032070
           H          4.089096949954    -0.566098476448    -0.013064152498     1.007825032070
           C          1.332977949954    -0.180238476448     0.378378847502    12.000000000000
           H          1.577586949954    -0.236548476448    -1.742087152498     1.007825032070
           H          2.439354949954     1.067853523552    -0.972310152498     1.007825032070
           N          0.115630949954     0.604359523552     0.315689847502    14.003074004780
           H          1.052221949954    -1.226741476448     0.461876847502     1.007825032070
           H          1.932421949954     0.050759523552     1.265331847502     1.007825032070
           C         -1.101737050046    -0.180222476448     0.378226847502    12.000000000000
           H          0.115596949954     1.278600523552     1.057605847502     1.007825032070
           C         -2.337005050046     0.710726523552     0.296468847502    12.000000000000
           H         -1.099663050046    -0.868071476448    -0.463092152498     1.007825032070
           H         -1.154111050046    -0.796991476448     1.281684847502     1.007825032070
           C         -3.642401050046    -0.082937476448     0.328168847502    12.000000000000
           H         -2.278592050046     1.300054523552    -0.613220152498     1.007825032070
           H         -2.325165050046     1.417272523552     1.124820847502     1.007825032070
           H         -3.701031050046    -0.775507476448    -0.506776152498     1.007825032070
           H         -4.502209050046     0.576650523552     0.269653847502     1.007825032070
           H         -3.731850050046    -0.661016476448     1.243631847502     1.007825032070

  Charge       = 0
  Multiplicity = 1
  Basis Set: 6-31G*
  Basis Set:

    Orbital Energies (a.u.)
    -----------------------

    Doubly Occupied:

       1A    -15.532067     2A    -11.239403     3A    -11.237602
       4A    -11.213821     5A    -11.210144     6A    -11.205500
       7A    -11.204870     8A     -1.205456     9A     -1.056664
      10A     -1.024484    11A     -0.927193    12A     -0.870301
      13A     -0.805894    14A     -0.792413    15A     -0.669667
      16A     -0.633353    17A     -0.613630    18A     -0.598066
      19A     -0.581817    20A     -0.557599    21A     -0.540862
      22A     -0.520464    23A     -0.504511    24A     -0.489118
      25A     -0.481678    26A     -0.471344    27A     -0.464021
      28A     -0.451617    29A     -0.355898

  @DF-RHF Final Energy:  -290.37813964025332

   => Energetics <=

    Nuclear Repulsion Energy =            314.8316943424604801
    One-Electron Energy =               -1015.5005854308344624
    Two-Electron Energy =                 410.2907514481214548
    DFT Exchange-Correlation Energy =       0.0000000000000000
    Empirical Dispersion Energy =           0.0000000000000000
    PCM Polarization Energy =               0.0000000000000000
    EFP Energy =                            0.0000000000000000
    Total Energy =                       -290.3781396402525843

  Mulliken Charges: (a.u.)
   Center  Symbol    Alpha    Beta     Spin     Total
       1     H     0.41843  0.41843  0.00000  0.16314
       2     C     3.24622  3.24622  0.00000 -0.49243
       3     C     3.13939  3.13939  0.00000 -0.27879
       4     H     0.42314  0.42314  0.00000  0.15372
       5     H     0.42343  0.42343  0.00000  0.15313
       6     C     3.06011  3.06011  0.00000 -0.12022
       7     H     0.42072  0.42072  0.00000  0.15855
       8     H     0.42141  0.42141  0.00000  0.15718
       9     N     3.85498  3.85498  0.00000 -0.70995
      10     H     0.42531  0.42531  0.00000  0.14937
      11     H     0.42689  0.42689  0.00000  0.14622
      12     C     3.05157  3.05157  0.00000 -0.10313
      13     H     0.33307  0.33307  0.00000  0.33385
      14     C     3.15592  3.15592  0.00000 -0.31185
      15     H     0.42114  0.42114  0.00000  0.15771
      16     H     0.43558  0.43558  0.00000  0.12883
      17     C     3.24327  3.24327  0.00000 -0.48654
      18     H     0.41280  0.41280  0.00000  0.17440
      19     H     0.42658  0.42658  0.00000  0.14683
      20     H     0.42070  0.42070  0.00000  0.15859
      21     H     0.41760  0.41760  0.00000  0.16481
      22     H     0.42173  0.42173  0.00000  0.15655

   Total alpha = 29.00000, Total beta = 29.00000, Total charge = -0.00000
