  ==> Input File <==

--------------------------------------------------------------------------
set {
	reference rhf
	basis 6-31G*
}

set_num_threads( 4 )
memory 2 gb

molecule MOL {
0 1

O	 3.225979	 0.970355	 -0.599647
C	 2.701189	 0.057885	 -0.047330
C	 1.245376	 -0.013843	 0.345420
O	 3.347903	 -1.046386	 0.304773
C	 0.455112	 1.231400	 -0.050772
H	 0.838542	 -0.913825	 -0.103701
H	 1.208210	 -0.175333	 1.419774
C	 -0.998893	 1.219485	 0.433193
H	 0.482531	 1.345121	 -1.130325
H	 0.957290	 2.103070	 0.354729
C	 -1.883438	 0.145884	 -0.207175
H	 -1.431207	 2.195402	 0.224832
H	 -1.019646	 1.105716	 1.516076
C	 -3.347647	 0.245583	 0.225435
H	 -1.822183	 0.231698	 -1.291012
H	 -1.510341	 -0.844814	 0.042401
C	 -4.239992	 -0.825570	 -0.404234
H	 -3.732888	 1.230466	 -0.033079
H	 -3.408585	 0.170602	 1.310038
C	 -5.392200	 -1.252997	 0.504294
H	 -4.641285	 -0.452592	 -1.344178
H	 -3.636563	 -1.695653	 -0.654454
H	 -6.006270	 -2.012648	 0.030527
H	 -6.034974	 -0.410844	 0.744747
H	 -5.022421	 -1.662890	 1.439989
C	 4.728119	 -1.109107	 -0.004993
H	 4.882018	 -1.033965	 -1.071845
H	 5.068212	 -2.067527	 0.355250
H	 5.265056	 -0.311663	 0.488280

	symmetry c1
}
set optking {
	frozen_dihedral = ("
		21 17 14 11
	")
}

ee = optimize('scf')
oeprop('DIPOLE', 'QUADRUPOLE', 'MULLIKEN_CHARGES')
f=open( 'psi4out.xyz', 'w' )
f.write( "29  " )
f.write( str(ee) + "\n" )
f.write( MOL.save_string_xyz() )
f.close()
--------------------------------------------------------------------------

    Molecular point group: c1
  Charge       = 0
  Multiplicity = 1
  Basis Set: 6-31G*
  Basis Set:
  @DF-RHF Final Energy:  -501.04087679297652
    Total Energy =                       -501.0408767929764053
    Molecular point group: c1
  Basis Set: 6-31G*
  Basis Set:
  Basis Set: 6-31G*
  Basis Set:
  @DF-RHF Final Energy:  -501.04108958337235
    Total Energy =                       -501.0410895833723544
  Basis Set: 6-31G*
  Basis Set:
  Basis Set: 6-31G*
  Basis Set:
  @DF-RHF Final Energy:  -501.04115950362939
    Total Energy =                       -501.0411595036282506
  Basis Set: 6-31G*
  Basis Set:
  Basis Set: 6-31G*
  Basis Set:
  @DF-RHF Final Energy:  -501.04115159108221
    Total Energy =                       -501.0411515910819844
  Basis Set: 6-31G*
  Basis Set:
  @DF-RHF Final Energy:  -501.04115973723765
    Total Energy =                       -501.0411597372382175
  Basis Set: 6-31G*
  Basis Set:
  @DF-RHF Final Energy:  -501.04116545669967
    Total Energy =                       -501.0411654566992183
  Basis Set: 6-31G*
  Basis Set:
  Basis Set: 6-31G*
  Basis Set:
  @DF-RHF Final Energy:  -501.04115426004353
    Total Energy =                       -501.0411542600436405
  Basis Set: 6-31G*
  Basis Set:
  Basis Set: 6-31G*
  Basis Set:
  @DF-RHF Final Energy:  -501.04116991696208
    Total Energy =                       -501.0411699169620761
  Basis Set: 6-31G*
  Basis Set:
  Charge       = 0
  Multiplicity = 1
  Basis Set: 6-31G*
  Basis Set:

    Orbital Energies (a.u.)
    -----------------------

    Doubly Occupied:

       1A    -20.603387     2A    -20.545208     3A    -11.372022
       4A    -11.280675     5A    -11.234775     6A    -11.219086
       7A    -11.217518     8A    -11.216138     9A    -11.215752
      10A    -11.214330    11A    -11.209024    12A     -1.469082
      13A     -1.362525    14A     -1.097663    15A     -1.065885
      16A     -1.019306    17A     -0.977176    18A     -0.928236
      19A     -0.861411    20A     -0.799746    21A     -0.790350
      22A     -0.763856    23A     -0.700786    24A     -0.682360
      25A     -0.672078    26A     -0.649580    27A     -0.626217
      28A     -0.607161    29A     -0.595389    30A     -0.582353
      31A     -0.565063    32A     -0.550312    33A     -0.532046
      34A     -0.530691    35A     -0.516257    36A     -0.507497
      37A     -0.500060    38A     -0.476845    39A     -0.470854
      40A     -0.460119    41A     -0.458818    42A     -0.455727
      43A     -0.440547    44A     -0.434896

  @DF-RHF Final Energy:  -501.04116984146788

   => Energetics <=

    Nuclear Repulsion Energy =            610.6843340018334629
    One-Electron Energy =               -1892.4933870100949207
    Two-Electron Energy =                 780.7678831667932400
    DFT Exchange-Correlation Energy =       0.0000000000000000
    Empirical Dispersion Energy =           0.0000000000000000
    PCM Polarization Energy =               0.0000000000000000
    EFP Energy =                            0.0000000000000000
    Total Energy =                       -501.0411698414681041
    Molecular point group: c1
  Basis Set: 6-31G*
  Basis Set:

  -Total Gradient:
     Atom            X                  Y                   Z
    ------   -----------------  -----------------  -----------------
       1       -0.000011261996    -0.000021415005    -0.000044746390
       2        0.000030029349     0.000059595607     0.000121856761
       3       -0.000005354644    -0.000017515258    -0.000033528189
       4       -0.000009483869    -0.000016711136    -0.000033966658
       5       -0.000003731355    -0.000003834608    -0.000014686639
       6       -0.000000476632     0.000002069529     0.000003039160
       7        0.000009114292    -0.000000176214    -0.000003676630
       8       -0.000009496510    -0.000006705913     0.000003005730
       9        0.000001351855    -0.000001041353    -0.000001834586
      10       -0.000002340919     0.000000006277    -0.000001627335
      11        0.000606551239    -0.001989368835     0.002339021239
      12       -0.000005070125    -0.000001314316     0.000005428358
      13        0.000005218901    -0.000005044946     0.000002840559
      14       -0.001657996070     0.003119068831    -0.002794265324
      15        0.000021914177     0.000000140682    -0.000000977135
      16       -0.000018109167     0.000002320227    -0.000000269693
      17        0.004419304170    -0.002683099323    -0.001751776751
      18       -0.000014138782    -0.000014219039    -0.000018640042
      19       -0.000017976343    -0.000007269862     0.000005134796
      20        0.000002726548     0.000006834245     0.000038167967
      21       -0.003360367030     0.001562334860     0.002159433915
      22        0.000026998257     0.000024622524     0.000023269169
      23       -0.000000703831     0.000014743682    -0.000013360545
      24        0.000008309544    -0.000000889377     0.000013039009
      25       -0.000014399366    -0.000022424688     0.000000970490
      26       -0.000000300466    -0.000000223237    -0.000000778724
      27        0.000001309162    -0.000000283778    -0.000000399592
      28       -0.000000215500    -0.000000372789    -0.000000727688
      29       -0.000001404887     0.000000173212     0.000000054769

  **** Optimization is complete! (in 9 steps) ****
    Final optimized geometry and variables:
    Molecular point group: c1

    Geometry (in Angstrom), charge = 0, multiplicity = 1:

    O            3.197393524270     1.019109062939    -0.659226435176
    C            2.676353798226     0.112749760185    -0.093469299178
    C            1.221471519766     0.042070194120     0.302908803995
    O            3.326824104336    -0.985009336164     0.271841480401
    C            0.426528679530     1.278979941952    -0.109749790854
    H            0.816799041282    -0.865653201485    -0.132346853725
    H            1.186831794402    -0.103924105503     1.379567109772
    C           -1.026549653308     1.269726686615     0.377237621850
    H            0.451518337150     1.377186532625    -1.190870712058
    H            0.926852604609     2.157891273774     0.282146011613
    C           -1.910071459570     0.186930768250    -0.248025257852
    H           -1.461357523598     2.242112755943     0.158021652566
    H           -1.044962332634     1.169108977909     1.461598452914
    C           -3.370424078486     0.275620350797     0.201696802661
    H           -1.857183635866     0.264896441444    -1.333403874985
    H           -1.531962242151    -0.800438701426     0.005555329781
    C           -4.278637106140    -0.780195573511    -0.449904667722
    H           -3.762116067111     1.269848929034     0.000628693408
    H           -3.399846158545     0.154796306543     1.283417093351
    C           -5.448324221014    -1.190823109310     0.447106672422
    H           -4.689974636981    -0.381631250801    -1.373876798795
    H           -3.700108645327    -1.662316790003    -0.710810075252
    H           -6.101379630531    -1.897944010340    -0.055312819488
    H           -6.047704776500    -0.328638026540     0.726604557633
    H           -5.095556666313    -1.656955193587     1.362769588178
    C            4.706582031871    -1.048047185951    -0.039918925168
    H            4.858108989757    -0.986609252035    -1.107991015664
    H            5.050030447137    -2.000680765082     0.332272804809
    H            5.242303401018    -0.242682041718     0.441667157496

  Mulliken Charges: (a.u.)
   Center  Symbol    Alpha    Beta     Spin     Total
       1     O     4.28595  4.28595  0.00000 -0.57189
       2     C     2.60483  2.60483  0.00000  0.79033
       3     C     3.20971  3.20971  0.00000 -0.41942
       4     O     4.30747  4.30747  0.00000 -0.61494
       5     C     3.15370  3.15370  0.00000 -0.30741
       6     H     0.39889  0.39889  0.00000  0.20223
       7     H     0.40125  0.40125  0.00000  0.19750
       8     C     3.15704  3.15704  0.00000 -0.31409
       9     H     0.41305  0.41305  0.00000  0.17391
      10     H     0.40875  0.40875  0.00000  0.18250
      11     C     3.15616  3.15616  0.00000 -0.31232
      12     H     0.41820  0.41820  0.00000  0.16359
      13     H     0.42392  0.42392  0.00000  0.15215
      14     C     3.15231  3.15231  0.00000 -0.30462
      15     H     0.42251  0.42251  0.00000  0.15498
      16     H     0.42330  0.42330  0.00000  0.15340
      17     C     3.15283  3.15283  0.00000 -0.30565
      18     H     0.42105  0.42105  0.00000  0.15790
      19     H     0.42339  0.42339  0.00000  0.15323
      20     C     3.23990  3.23990  0.00000 -0.47981
      21     H     0.42103  0.42103  0.00000  0.15795
      22     H     0.42174  0.42174  0.00000  0.15652
      23     H     0.42013  0.42013  0.00000  0.15975
      24     H     0.42163  0.42163  0.00000  0.15673
      25     H     0.42214  0.42214  0.00000  0.15572
      26     C     3.09241  3.09241  0.00000 -0.18481
      27     H     0.40907  0.40907  0.00000  0.18185
      28     H     0.40852  0.40852  0.00000  0.18296
      29     H     0.40913  0.40913  0.00000  0.18175

   Total alpha = 44.00000, Total beta = 44.00000, Total charge =  0.00000
