  ==> Input File <==

--------------------------------------------------------------------------
set {
	reference rhf
	basis 6-31G*
}

set_num_threads( 4 )
memory 2 gb

molecule MOL {
0 1

H	 2.747847	 0.056773	 0.320943
N	 1.769982	 0.269120	 0.327978
C	 1.076491	 -0.564732	 1.292589
C	 1.208843	 0.120781	 -1.002372
H	 1.515340	 -0.408899	 2.272332
H	 1.150722	 -1.628546	 1.055036
C	 -0.393324	 -0.173464	 1.323921
H	 1.743537	 0.773047	 -1.684589
H	 1.291090	 -0.901513	 -1.378923
C	 -0.261055	 0.511625	 -0.969618
H	 -0.482793	 0.847265	 1.707596
H	 -0.929408	 -0.829710	 2.001785
N	 -0.975995	 -0.298722	 0.000000
H	 -0.701619	 0.350125	 -1.948070
H	 -0.341662	 1.578252	 -0.739602
C	 -2.393863	 -0.024976	 0.000000
H	 -2.854032	 -0.467193	 -0.876721
H	 -2.854032	 -0.467193	 0.876721
H	 -2.623281	 1.044943	 0.000000

	symmetry c1
}
set optking {
	frozen_dihedral = ("
		7 13 16 19
	")
}

ee = optimize('scf')
oeprop('DIPOLE', 'QUADRUPOLE', 'MULLIKEN_CHARGES')
f=open( 'psi4out.xyz', 'w' )
f.write( "19  " )
f.write( str(ee) + "\n" )
f.write( MOL.save_string_xyz() )
f.close()
--------------------------------------------------------------------------

    Molecular point group: c1
  Charge       = 0
  Multiplicity = 1
  Basis Set: 6-31G*
  Basis Set:
  @DF-RHF Final Energy:  -305.19843848990820
    Total Energy =                       -305.1984384899078009
    Molecular point group: c1
  Basis Set: 6-31G*
  Basis Set:
  Basis Set: 6-31G*
  Basis Set:
  @DF-RHF Final Energy:  -305.19861751346008
    Total Energy =                       -305.1986175134596806
  Basis Set: 6-31G*
  Basis Set:
  Basis Set: 6-31G*
  Basis Set:
  @DF-RHF Final Energy:  -305.19864020928935
    Total Energy =                       -305.1986402092893513
  Basis Set: 6-31G*
  Basis Set:
  Charge       = 0
  Multiplicity = 1
  Basis Set: 6-31G*
  Basis Set:

    Orbital Energies (a.u.)
    -----------------------

    Doubly Occupied:

       1A    -15.539562     2A    -15.536570     3A    -11.238490
       4A    -11.238410     5A    -11.237237     6A    -11.237152
       7A    -11.234964     8A     -1.246653     9A     -1.185020
      10A     -1.023145    11A     -0.964562    12A     -0.861084
      13A     -0.857159    14A     -0.756291    15A     -0.690993
      16A     -0.633451    17A     -0.626509    18A     -0.606837
      19A     -0.603344    20A     -0.580044    21A     -0.544037
      22A     -0.529134    23A     -0.512337    24A     -0.489981
      25A     -0.467284    26A     -0.457068    27A     -0.363345
      28A     -0.341734

  @DF-RHF Final Energy:  -305.19864126791407

   => Energetics <=

    Nuclear Repulsion Energy =            339.7014736454983108
    One-Electron Energy =               -1086.5954317703158267
    Two-Electron Energy =                 441.6953168569035597
    DFT Exchange-Correlation Energy =       0.0000000000000000
    Empirical Dispersion Energy =           0.0000000000000000
    PCM Polarization Energy =               0.0000000000000000
    EFP Energy =                            0.0000000000000000
    Total Energy =                       -305.1986412679140130
    Molecular point group: c1
  Basis Set: 6-31G*
  Basis Set:

  -Total Gradient:
     Atom            X                  Y                   Z
    ------   -----------------  -----------------  -----------------
       1       -0.000007245743    -0.000003746743    -0.000006971033
       2       -0.000015681345     0.000006608006    -0.000002929088
       3        0.000006240751     0.000039346155     0.000014908013
       4       -0.000013116804    -0.000027890009    -0.000008638187
       5        0.000039317158    -0.000003956443     0.000015487712
       6       -0.000028397295     0.000020406197     0.000004484301
       7       -0.000443460292    -0.002622890355     0.000461780929
       8        0.000009061150     0.000001940707    -0.000003399180
       9        0.000007353117    -0.000001416202     0.000000479275
      10        0.000021588667     0.000066717236    -0.000012895847
      11        0.000016710086    -0.000037254309    -0.000024272608
      12       -0.000014349445     0.000000956603    -0.000012958323
      13        0.000644197976     0.003596223220    -0.001624319436
      14        0.000011553897    -0.000006160953     0.000011329688
      15       -0.000009605846    -0.000008494415    -0.000000440771
      16       -0.000327423874    -0.001032058528     0.004774128896
      17       -0.000005312473    -0.000004500427    -0.000019776498
      18        0.000046494499    -0.000014691027    -0.000009723966
      19        0.000062075816     0.000030861288    -0.003556273877

  **** Optimization is complete! (in 4 steps) ****
    Final optimized geometry and variables:
    Molecular point group: c1

    Geometry (in Angstrom), charge = 0, multiplicity = 1:

    H            2.752010339438     0.070652308450     0.172100518583
    N            1.774475091945     0.284293664760     0.181785754489
    C            1.083670103975    -0.546073650966     1.151489091759
    C            1.208999457974     0.132727671142    -1.146407362110
    H            1.532231298518    -0.394710695045     2.127608237170
    H            1.149296101701    -1.609897120249     0.911254345704
    C           -0.383949478903    -0.147178807645     1.196206879627
    H            1.745102611086     0.778992017727    -1.833288807370
    H            1.285318494919    -0.891803768343    -1.518090596268
    C           -0.258636551543     0.531239194548    -1.110027823736
    H           -0.463405299987     0.869301231408     1.593546309358
    H           -0.918351953413    -0.808804227094     1.869439999052
    N           -0.971381428686    -0.258908605796    -0.125913524300
    H           -0.707231723989     0.358621224434    -2.083301868293
    H           -0.333323253841     1.601508040075    -0.895053886766
    C           -2.394357965578    -0.009798120665    -0.145001076081
    H           -2.826258281060    -0.429689549191    -1.048547993677
    H           -2.869424116234    -0.486826997662     0.703335439005
    H           -2.642480692557     1.055311716658    -0.135433600139

  Mulliken Charges: (a.u.)
   Center  Symbol    Alpha    Beta     Spin     Total
       1     H     0.32944  0.32944  0.00000  0.34111
       2     N     3.85431  3.85431  0.00000 -0.70862
       3     C     3.06390  3.06390  0.00000 -0.12781
       4     C     3.06355  3.06355  0.00000 -0.12710
       5     H     0.41771  0.41771  0.00000  0.16459
       6     H     0.42790  0.42790  0.00000  0.14420
       7     C     3.05267  3.05267  0.00000 -0.10534
       8     H     0.41767  0.41767  0.00000  0.16466
       9     H     0.42785  0.42785  0.00000  0.14430
      10     C     3.05315  3.05315  0.00000 -0.10631
      11     H     0.42861  0.42861  0.00000  0.14278
      12     H     0.41897  0.41897  0.00000  0.16206
      13     N     3.79084  3.79084  0.00000 -0.58169
      14     H     0.41888  0.41888  0.00000  0.16225
      15     H     0.42803  0.42803  0.00000  0.14394
      16     C     3.13874  3.13874  0.00000 -0.27749
      17     H     0.41698  0.41698  0.00000  0.16605
      18     H     0.41807  0.41807  0.00000  0.16386
      19     H     0.43271  0.43271  0.00000  0.13457

   Total alpha = 28.00000, Total beta = 28.00000, Total charge = -0.00000
