  ==> Input File <==

--------------------------------------------------------------------------
set {
	reference rhf
	basis 6-31G*
}

set_num_threads( 1 )
memory 2 gb

molecule MOL {
0 1

O	 3.225979	 0.970355	 -0.599647
C	 2.701189	 0.057885	 -0.047330
C	 1.245376	 -0.013843	 0.345420
O	 3.347903	 -1.046386	 0.304773
C	 0.455112	 1.231400	 -0.050772
H	 0.838542	 -0.913825	 -0.103701
H	 1.208210	 -0.175333	 1.419774
C	 -0.998893	 1.219485	 0.433193
H	 0.482531	 1.345121	 -1.130325
H	 0.957290	 2.103070	 0.354729
C	 -1.883438	 0.145884	 -0.207175
H	 -1.431207	 2.195402	 0.224832
H	 -1.019646	 1.105716	 1.516076
C	 -1.149902	 -1.179763	 -0.420683
H	 -2.754656	 -0.022942	 0.423932
H	 -2.262945	 0.495264	 -1.164714
C	 -2.022581	 -2.258479	 -1.064837
H	 -0.778114	 -1.543302	 0.535794
H	 -0.272597	 -1.009720	 -1.042873
C	 -1.283710	 -3.580309	 -1.271076
H	 -2.900223	 -2.428930	 -0.444891
H	 -2.391609	 -1.898627	 -2.023015
H	 -1.928107	 -4.324321	 -1.729123
H	 -0.931928	 -3.984371	 -0.325995
H	 -0.419079	 -3.449754	 -1.915779
C	 4.728119	 -1.109107	 -0.004993
H	 4.882018	 -1.033965	 -1.071845
H	 5.068212	 -2.067527	 0.355250
H	 5.265056	 -0.311663	 0.488280

	symmetry c1
}
set optking {
	frozen_dihedral = ("
		21 17 14 11,
		17 14 11 15,
		6 3 5 9,
		11 8 5 9,
		2 4 26 27,
		1 2 4 26,
		6 3 2 1
	")
}

ee = energy('scf')
oeprop('DIPOLE', 'QUADRUPOLE', 'MULLIKEN_CHARGES')
f=open( 'psi4out.xyz', 'w' )
f.write( "29  " )
f.write( str(ee) + "\n" )
f.write( MOL.save_string_xyz() )
f.close()
--------------------------------------------------------------------------

    Molecular point group: c1

    Geometry (in Angstrom), charge = 0, multiplicity = 1:

       Center              X                  Y                   Z               Mass
    ------------   -----------------  -----------------  -----------------  -----------------
           O          2.414825178124     1.495885862624    -0.360267788128    15.994914619560
           C          1.890035178124     0.583415862624     0.192049211872    12.000000000000
           C          0.434222178124     0.511687862624     0.584799211872    12.000000000000
           O          2.536749178124    -0.520855137376     0.544152211872    15.994914619560
           C         -0.356041821876     1.756930862624     0.188607211872    12.000000000000
           H          0.027388178124    -0.388294137376     0.135678211872     1.007825032070
           H          0.397056178124     0.350197862624     1.659153211872     1.007825032070
           C         -1.810046821876     1.745015862624     0.672572211872    12.000000000000
           H         -0.328622821876     1.870651862624    -0.890945788128     1.007825032070
           H          0.146136178124     2.628600862624     0.594108211872     1.007825032070
           C         -2.694591821876     0.671414862624     0.032204211872    12.000000000000
           H         -2.242360821876     2.720932862624     0.464211211872     1.007825032070
           H         -1.830799821876     1.631246862624     1.755455211872     1.007825032070
           C         -1.961055821876    -0.654232137376    -0.181303788128    12.000000000000
           H         -3.565809821876     0.502588862624     0.663311211872     1.007825032070
           H         -3.074098821876     1.020794862624    -0.925334788128     1.007825032070
           C         -2.833734821876    -1.732948137376    -0.825457788128    12.000000000000
           H         -1.589267821876    -1.017771137376     0.775173211872     1.007825032070
           H         -1.083750821876    -0.484189137376    -0.803493788128     1.007825032070
           C         -2.094863821876    -3.054778137376    -1.031696788128    12.000000000000
           H         -3.711376821876    -1.903399137376    -0.205511788128     1.007825032070
           H         -3.202762821876    -1.373096137376    -1.783635788128     1.007825032070
           H         -2.739260821876    -3.798790137376    -1.489743788128     1.007825032070
           H         -1.743081821876    -3.458840137376    -0.086615788128     1.007825032070
           H         -1.230232821876    -2.924223137376    -1.676399788128     1.007825032070
           C          3.916965178124    -0.583576137376     0.234386211872    12.000000000000
           H          4.070864178124    -0.508434137376    -0.832465788128     1.007825032070
           H          4.257058178124    -1.541996137376     0.594629211872     1.007825032070
           H          4.453902178124     0.213867862624     0.727659211872     1.007825032070

  Charge       = 0
  Multiplicity = 1
  Basis Set: 6-31G*
  Basis Set:

    Orbital Energies (a.u.)
    -----------------------

    Doubly Occupied:

       1A    -20.601091     2A    -20.541549     3A    -11.367733
       4A    -11.279208     5A    -11.224002     6A    -11.218697
       7A    -11.217955     8A    -11.217377     9A    -11.216743
      10A    -11.216021    11A    -11.210954    12A     -1.466349
      13A     -1.359562    14A     -1.107355    15A     -1.060674
      16A     -1.019566    17A     -0.974166    18A     -0.939390
      19A     -0.862801    20A     -0.812454    21A     -0.785063
      22A     -0.762657    23A     -0.693810    24A     -0.683676
      25A     -0.669443    26A     -0.659362    27A     -0.627044
      28A     -0.608814    29A     -0.593733    30A     -0.577305
      31A     -0.567148    32A     -0.557522    33A     -0.540936
      34A     -0.528548    35A     -0.522057    36A     -0.500114
      37A     -0.496434    38A     -0.484929    39A     -0.472751
      40A     -0.460597    41A     -0.454313    42A     -0.452515
      43A     -0.438873    44A     -0.423137

  @DF-RHF Final Energy:  -501.01200032683948

   => Energetics <=

    Nuclear Repulsion Energy =            645.9402821856266428
    One-Electron Energy =               -1962.9557018778509700
    Two-Electron Energy =                 816.0034193653840475
    DFT Exchange-Correlation Energy =       0.0000000000000000
    Empirical Dispersion Energy =           0.0000000000000000
    PCM Polarization Energy =               0.0000000000000000
    EFP Energy =                            0.0000000000000000
    Total Energy =                       -501.0120003268403934

  Mulliken Charges: (a.u.)
   Center  Symbol    Alpha    Beta     Spin     Total
       1     O     4.28764  4.28764  0.00000 -0.57528
       2     C     2.60423  2.60423  0.00000  0.79154
       3     C     3.21574  3.21574  0.00000 -0.43148
       4     O     4.30760  4.30760  0.00000 -0.61521
       5     C     3.15885  3.15885  0.00000 -0.31771
       6     H     0.39352  0.39352  0.00000  0.21296
       7     H     0.40233  0.40233  0.00000  0.19534
       8     C     3.15805  3.15805  0.00000 -0.31609
       9     H     0.41351  0.41351  0.00000  0.17298
      10     H     0.40678  0.40678  0.00000  0.18645
      11     C     3.14855  3.14855  0.00000 -0.29710
      12     H     0.41637  0.41637  0.00000  0.16727
      13     H     0.42307  0.42307  0.00000  0.15386
      14     C     3.17164  3.17164  0.00000 -0.34329
      15     H     0.42008  0.42008  0.00000  0.15984
      16     H     0.42090  0.42090  0.00000  0.15821
      17     C     3.14759  3.14759  0.00000 -0.29518
      18     H     0.41878  0.41878  0.00000  0.16243
      19     H     0.41656  0.41656  0.00000  0.16688
      20     C     3.24059  3.24059  0.00000 -0.48117
      21     H     0.42312  0.42312  0.00000  0.15375
      22     H     0.42260  0.42260  0.00000  0.15481
      23     H     0.41810  0.41810  0.00000  0.16380
      24     H     0.42160  0.42160  0.00000  0.15680
      25     H     0.42228  0.42228  0.00000  0.15545
      26     C     3.09203  3.09203  0.00000 -0.18406
      27     H     0.40959  0.40959  0.00000  0.18082
      28     H     0.40897  0.40897  0.00000  0.18206
      29     H     0.40934  0.40934  0.00000  0.18133

   Total alpha = 44.00000, Total beta = 44.00000, Total charge = -0.00000
