  ==> Input File <==

--------------------------------------------------------------------------
set {
	reference rhf
	basis 6-31G*
}

set_num_threads( 4 )
memory 2 gb

molecule MOL {
0 1

H	 -3.269016	 -0.876744	 0.468090
C	 -2.809304	 0.000122	 0.025886
N	 -1.391456	 0.000019	 0.300661
H	 -3.037557	 -0.000063	 -1.044252
H	 -3.269223	 0.876956	 0.468000
C	 -0.599941	 0.232608	 -0.891478
C	 -0.961678	 -1.209020	 0.975438
H	 -0.746765	 -0.559251	 -1.632362
H	 -0.914943	 1.167963	 -1.342530
C	 0.877294	 0.316589	 -0.540347
H	 -1.540527	 -1.325063	 1.885945
H	 -1.132445	 -2.096313	 0.358137
C	 0.515557	 -1.125039	 1.326569
H	 1.456143	 0.432633	 -1.450854
H	 1.048061	 1.203881	 0.076954
N	 1.307072	 -0.892450	 0.134429
H	 0.830559	 -2.060394	 1.777620
H	 0.662380	 -0.333181	 2.067452
C	 2.724920	 -0.892554	 0.409204
H	 3.278243	 -0.778491	 -0.516321
H	 3.012614	 -1.837887	 0.855753
H	 3.029122	 -0.089847	 1.087745

	symmetry c1
}
set optking {
	frozen_dihedral = ("
		6 3 2 4
	")
}

ee = optimize('scf')
oeprop('DIPOLE', 'QUADRUPOLE', 'MULLIKEN_CHARGES')
f=open( 'psi4out.xyz', 'w' )
f.write( "22  " )
f.write( str(ee) + "\n" )
f.write( MOL.save_string_xyz() )
f.close()
--------------------------------------------------------------------------

    Molecular point group: c1
  Charge       = 0
  Multiplicity = 1
  Basis Set: 6-31G*
  Basis Set:
  @DF-RHF Final Energy:  -344.22379373421131
    Total Energy =                       -344.2237937342113128
    Molecular point group: c1
  Basis Set: 6-31G*
  Basis Set:
  Basis Set: 6-31G*
  Basis Set:
  @DF-RHF Final Energy:  -344.22424774055742
    Total Energy =                       -344.2242477405576437
  Basis Set: 6-31G*
  Basis Set:
  Basis Set: 6-31G*
  Basis Set:
  @DF-RHF Final Energy:  -344.22436653804027
    Total Energy =                       -344.2243665380404991
  Basis Set: 6-31G*
  Basis Set:
  Basis Set: 6-31G*
  Basis Set:
  @DF-RHF Final Energy:  -344.22436899766734
    Total Energy =                       -344.2243689976672840
  Basis Set: 6-31G*
  Basis Set:
  Charge       = 0
  Multiplicity = 1
  Basis Set: 6-31G*
  Basis Set:

    Orbital Energies (a.u.)
    -----------------------

    Doubly Occupied:

       1A    -15.541173     2A    -15.538671     3A    -11.238342
       4A    -11.238299     5A    -11.237341     6A    -11.237323
       7A    -11.235634     8A    -11.235389     9A     -1.252574
      10A     -1.200654    11A     -1.023918    12A     -0.990399
      13A     -0.911824    14A     -0.865916    15A     -0.835591
      16A     -0.754156    17A     -0.664216    18A     -0.634051
      19A     -0.629420    20A     -0.623708    21A     -0.618440
      22A     -0.578876    23A     -0.550869    24A     -0.549768
      25A     -0.541725    26A     -0.519563    27A     -0.497693
      28A     -0.487084    29A     -0.463912    30A     -0.454499
      31A     -0.348206    32A     -0.340047

  @DF-RHF Final Energy:  -344.22436934038740

   => Energetics <=

    Nuclear Repulsion Energy =            420.8194958807306421
    One-Electron Energy =               -1300.4091682075377321
    Two-Electron Energy =                 535.3653029864200334
    DFT Exchange-Correlation Energy =       0.0000000000000000
    Empirical Dispersion Energy =           0.0000000000000000
    PCM Polarization Energy =               0.0000000000000000
    EFP Energy =                            0.0000000000000000
    Total Energy =                       -344.2243693403870566
    Molecular point group: c1
  Basis Set: 6-31G*
  Basis Set:

  -Total Gradient:
     Atom            X                  Y                   Z
    ------   -----------------  -----------------  -----------------
       1        0.000010350793     0.000006087556     0.000009296356
       2       -0.000094253553    -0.002504515680    -0.000167937332
       3       -0.000013085990     0.002129974248     0.000366755664
       4        0.000046983987     0.001586130099     0.000035931568
       5        0.000018535485    -0.000006020087     0.000002150392
       6        0.000019084293    -0.001184462182    -0.000258977408
       7        0.000002084990    -0.000022432441     0.000002958701
       8       -0.000007141840     0.000001865596     0.000007581689
       9        0.000001834740    -0.000003070615     0.000005873149
      10        0.000006272947     0.000005806493    -0.000001437001
      11        0.000004856951     0.000003606195    -0.000005269820
      12        0.000000206302     0.000005969095     0.000003066425
      13        0.000005550226    -0.000014110384     0.000005535447
      14        0.000008825165    -0.000000357779    -0.000002110554
      15       -0.000004424291     0.000000619513    -0.000003071681
      16       -0.000011163762     0.000003395069     0.000002479071
      17        0.000012038282    -0.000003852359     0.000003891432
      18       -0.000008855974    -0.000003490389    -0.000002908140
      19       -0.000001142447    -0.000002655727    -0.000004597184
      20        0.000002921890     0.000000732048     0.000001254330
      21        0.000002135747     0.000000808743     0.000000201724
      22       -0.000001613943    -0.000000027011    -0.000000666828

  **** Optimization is complete! (in 5 steps) ****
    Final optimized geometry and variables:
    Molecular point group: c1

    Geometry (in Angstrom), charge = 0, multiplicity = 1:

    H           -3.283569650131    -0.401094104092     0.234743704821
    C           -2.785006410897     0.469748214574    -0.177187221393
    N           -1.351011535118     0.426507174854     0.071445447767
    H           -3.008740413045     0.501219974733    -1.240413046521
    H           -3.229203076510     1.351812860169     0.275225143866
    C           -0.555806023649     0.665919287724    -1.116872473821
    C           -0.914115302813    -0.776507198282     0.753711483384
    H           -0.693547123146    -0.124366048996    -1.860963597635
    H           -0.872552875051     1.600947817420    -1.567226665339
    C            0.919063224012     0.761399656233    -0.760074774740
    H           -1.489931530821    -0.889950284263     1.665981167138
    H           -1.075223765825    -1.671280016119     0.144801638988
    C            0.561152382265    -0.677820870499     1.108599299380
    H            1.500742579130     0.880148810143    -1.668591937270
    H            1.080478367803     1.651071112291    -0.143631047729
    N            1.355425754100    -0.442994429271    -0.081278225449
    H            0.882992133729    -1.608454196512     1.564886454306
    H            0.697854655769     0.118706182726     1.846481498448
    C            2.772041324692    -0.431480995259     0.198898396752
    H            3.328349805070    -0.315235547033    -0.724615309975
    H            3.065335222664    -1.373510928668     0.648814900982
    H            3.067483799797     0.375015853639     0.876889798401

  Mulliken Charges: (a.u.)
   Center  Symbol    Alpha    Beta     Spin     Total
       1     H     0.42134  0.42134  0.00000  0.15731
       2     C     3.13976  3.13976  0.00000 -0.27952
       3     N     3.79136  3.79136  0.00000 -0.58273
       4     H     0.42390  0.42390  0.00000  0.15220
       5     H     0.41622  0.41622  0.00000  0.16756
       6     C     3.05687  3.05687  0.00000 -0.11374
       7     C     3.05659  3.05659  0.00000 -0.11318
       8     H     0.42870  0.42870  0.00000  0.14261
       9     H     0.41749  0.41749  0.00000  0.16503
      10     C     3.05620  3.05620  0.00000 -0.11240
      11     H     0.41758  0.41758  0.00000  0.16484
      12     H     0.42893  0.42893  0.00000  0.14214
      13     C     3.05635  3.05635  0.00000 -0.11270
      14     H     0.41835  0.41835  0.00000  0.16330
      15     H     0.42871  0.42871  0.00000  0.14257
      16     N     3.78708  3.78708  0.00000 -0.57416
      17     H     0.41837  0.41837  0.00000  0.16327
      18     H     0.42871  0.42871  0.00000  0.14257
      19     C     3.14015  3.14015  0.00000 -0.28029
      20     H     0.41690  0.41690  0.00000  0.16619
      21     H     0.41690  0.41690  0.00000  0.16620
      22     H     0.43353  0.43353  0.00000  0.13294

   Total alpha = 32.00000, Total beta = 32.00000, Total charge = -0.00000
