                              Psi4 1.0.54 Driver

  ==> Input File <==

--------------------------------------------------------------------------
set {
	reference rhf
	basis cc-pvtz
}

set_num_threads( 4 )
memory 2 gb

molecule MOL {
0 1

H	 -1.913970	 -0.049446	 0.519431
N	 -1.173824	 -0.310545	 -0.096857
C	 -0.022588	 0.563366	 0.065815
H	 -0.934714	 -1.257191	 0.113622
C	 1.270420	 -0.230572	 -0.014245
H	 -0.045354	 1.293678	 -0.735129
H	 -0.043155	 1.123061	 1.001180
H	 1.336273	 -0.754933	 -0.959364
H	 2.130728	 0.422015	 0.082222
H	 1.323344	 -0.967006	 0.781773

	symmetry c1
}
set optking {
	frozen_dihedral = ("
		1 2 3 6
	")
}

ee,wfn = optimize('scf', return_wfn=True)
oeprop( wfn, 'DIPOLE', 'QUADRUPOLE', 'MULLIKEN_CHARGES')
f=open( 'psi4out.xyz', 'w' )
f.write( "10  " )
f.write( str(ee) + "\n" )
f.write( MOL.save_string_xyz() )
f.close()
--------------------------------------------------------------------------

    Molecular point group: c1
  Charge       = 0
  Multiplicity = 1
  Basis Set: CC-PVTZ
  Basis Set:
  @DF-RHF Final Energy:  -134.30151387536185
    Total Energy =                       -134.3015138753618771
    Molecular point group: c1
  Basis Set: CC-PVTZ
  Basis Set:
  Basis Set: CC-PVTZ
  Basis Set:
  @DF-RHF Final Energy:  -134.30175119918803
    Total Energy =                       -134.3017511991880042
  Basis Set: CC-PVTZ
  Basis Set:
  Basis Set: CC-PVTZ
  Basis Set:
  @DF-RHF Final Energy:  -134.30179148461590
    Total Energy =                       -134.3017914846159329
  Basis Set: CC-PVTZ
  Basis Set:
  Basis Set: CC-PVTZ
  Basis Set:
  @DF-RHF Final Energy:  -134.30179279262200
    Total Energy =                       -134.3017927926219102
  Basis Set: CC-PVTZ
  Basis Set:
  Charge       = 0
  Multiplicity = 1
  Basis Set: CC-PVTZ
  Basis Set:

    Orbital Energies (a.u.)
    -----------------------

    Doubly Occupied:

       1A    -15.525621     2A    -11.240924     3A    -11.210658
       4A     -1.176598     5A     -0.990553     6A     -0.829182
       7A     -0.659652     8A     -0.624954     9A     -0.592700
      10A     -0.525118    11A     -0.503090    12A     -0.493221
      13A     -0.383687

  @DF-RHF Final Energy:  -134.30179290254222

   => Energetics <=

    Nuclear Repulsion Energy =             83.4842428011806561
    One-Electron Energy =                -346.0601565054755611
    Two-Electron Energy =                 128.2741208017527015
    DFT Exchange-Correlation Energy =       0.0000000000000000
    Empirical Dispersion Energy =           0.0000000000000000
    PCM Polarization Energy =               0.0000000000000000
    EFP Energy =                            0.0000000000000000
    Total Energy =                       -134.3017929025422177
    Molecular point group: c1
  Basis Set: CC-PVTZ
  Basis Set:

  -Total Gradient:
     Atom            X                  Y                   Z
    ------   -----------------  -----------------  -----------------
       1        0.001071641308    -0.001858959010     0.002098552656
       2       -0.000971752715     0.001940085794    -0.002983799825
       3       -0.001594089044     0.001575780135     0.002458922860
       4        0.000002695523     0.000004699852    -0.000011834386
       5       -0.000001412941    -0.000001506969     0.000019576073
       6        0.001486299939    -0.001674910302    -0.001554095155
       7        0.000001221166     0.000007703918    -0.000000699201
       8        0.000004551966    -0.000006034785    -0.000007698956
       9        0.000005617601     0.000005256124    -0.000004026820
      10       -0.000004772802     0.000007885245    -0.000014897246

  **** Optimization is complete! (in 5 steps) ****
    Final optimized geometry and variables:
    Molecular point group: c1

    Geometry (in Angstrom), charge = 0, multiplicity = 1:

    H           -1.937019688044    -0.037454183964     0.501906990613
    N           -1.191134162295    -0.296715449305    -0.107016247366
    C           -0.029891542356     0.571547449424     0.070878460401
    H           -0.961617598896    -1.241004464179     0.120521710304
    C            1.268202526458    -0.216272688738    -0.013844985320
    H           -0.025161457806     1.313946745581    -0.720129677629
    H           -0.063279639499     1.105480564716     1.016843584698
    H            1.323286008753    -0.759050489392    -0.951122735432
    H            2.125195116995     0.444311716950     0.042651472074
    H            1.344275781172    -0.933757218173     0.797162063658

  Mulliken Charges: (a.u.)
   Center  Symbol    Alpha    Beta     Spin     Total
       1     H     0.43049  0.43049  0.00000  0.13902
       2     N     3.68755  3.68755  0.00000 -0.37510
       3     C     3.01260  3.01260  0.00000 -0.02520
       4     H     0.43181  0.43181  0.00000  0.13639
       5     C     3.14638  3.14638  0.00000 -0.29276
       6     H     0.46335  0.46335  0.00000  0.07331
       7     H     0.46686  0.46686  0.00000  0.06628
       8     H     0.44990  0.44990  0.00000  0.10020
       9     H     0.45161  0.45161  0.00000  0.09678
      10     H     0.45947  0.45947  0.00000  0.08107

   Total alpha = 13.00000, Total beta = 13.00000, Total charge = -0.00000

*** Psi4 exiting successfully. Buy a developer a beer!
