  ==> Input File <==

--------------------------------------------------------------------------
set {
	reference rhf
	basis 6-31G*
}

set_num_threads( 1 )
memory 2 gb

molecule MOL {
0 1

H	 -4.236494	 0.538104	 0.039757
O	 -3.517110	 -0.026191	 -0.205115
C	 -2.306886	 0.532354	 0.237577
C	 -1.177863	 -0.397191	 -0.171080
H	 -2.156308	 1.517575	 -0.201710
H	 -2.315015	 0.655684	 1.319734
C	 0.198102	 0.111031	 0.262842
H	 -1.208843	 -0.518759	 -1.250427
H	 -1.368741	 -1.376554	 0.258909
C	 1.331804	 -0.827780	 -0.158768
H	 0.361943	 1.100838	 -0.156218
H	 0.217265	 0.229072	 1.345532
C	 2.723619	 -0.410569	 0.329459
H	 1.342964	 -0.912588	 -1.244120
H	 1.116806	 -1.824343	 0.220779
C	 2.724765	 0.416881	 1.616184
H	 3.204402	 0.166944	 -0.456298
H	 3.336441	 -1.298692	 0.470353
H	 2.109069	 1.305940	 1.508807
H	 2.346900	 -0.146906	 2.462670
H	 3.730688	 0.740938	 1.864899

	symmetry c1
}
set optking {
	frozen_dihedral = ("
		2 3 4 8,
		8 4 7 10,
		4 7 10 14,
		1 2 3 5
	")
}

ee = energy('scf')
oeprop('DIPOLE', 'QUADRUPOLE', 'MULLIKEN_CHARGES')
f=open( 'psi4out.xyz', 'w' )
f.write( "21  " )
f.write( str(ee) + "\n" )
f.write( MOL.save_string_xyz() )
f.close()
--------------------------------------------------------------------------

    Molecular point group: c1

    Geometry (in Angstrom), charge = 0, multiplicity = 1:

       Center              X                  Y                   Z               Mass
    ------------   -----------------  -----------------  -----------------  -----------------
           H         -4.160086072913     0.608067353646    -0.237849054117     1.007825032070
           O         -3.440702072913     0.043772353646    -0.482721054117    15.994914619560
           C         -2.230478072913     0.602317353646    -0.040029054117    12.000000000000
           C         -1.101455072913    -0.327227646354    -0.448686054117    12.000000000000
           H         -2.079900072913     1.587538353646    -0.479316054117     1.007825032070
           H         -2.238607072913     0.725647353646     1.042127945883     1.007825032070
           C          0.274509927087     0.180994353646    -0.014764054117    12.000000000000
           H         -1.132435072913    -0.448795646354    -1.528033054117     1.007825032070
           H         -1.292333072913    -1.306590646354    -0.018697054117     1.007825032070
           C          1.408211927087    -0.757816646354    -0.436374054117    12.000000000000
           H          0.438350927087     1.170801353646    -0.433824054117     1.007825032070
           H          0.293672927087     0.299035353646     1.067925945883     1.007825032070
           C          2.800026927087    -0.340605646354     0.051852945883    12.000000000000
           H          1.419371927087    -0.842624646354    -1.521726054117     1.007825032070
           H          1.193213927087    -1.754379646354    -0.056827054117     1.007825032070
           C          2.801172927087     0.486844353646     1.338577945883    12.000000000000
           H          3.280809927087     0.236907353646    -0.733904054117     1.007825032070
           H          3.412848927087    -1.228728646354     0.192746945883     1.007825032070
           H          2.185476927087     1.375903353646     1.231200945883     1.007825032070
           H          2.423307927087    -0.076942646354     2.185063945883     1.007825032070
           H          3.807095927087     0.810901353646     1.587292945883     1.007825032070

  Charge       = 0
  Multiplicity = 1
  Basis Set: 6-31G*
  Basis Set:

    Orbital Energies (a.u.)
    -----------------------

    Doubly Occupied:

       1A    -20.551673     2A    -11.266809     3A    -11.215174
       4A    -11.214341     5A    -11.212762     6A    -11.210080
       7A    -11.207884     8A     -1.358487     9A     -1.087441
      10A     -1.032102    11A     -0.951888    12A     -0.880959
      13A     -0.809798    14A     -0.770982    15A     -0.692117
      16A     -0.662787    17A     -0.628878    18A     -0.602881
      19A     -0.584645    20A     -0.572139    21A     -0.536308
      22A     -0.524927    23A     -0.503556    24A     -0.486217
      25A     -0.483803    26A     -0.459150    27A     -0.449115
      28A     -0.443932    29A     -0.433740

  @DF-RHF Final Energy:  -310.20635212399156

   => Energetics <=

    Nuclear Repulsion Energy =            314.7822808203894738
    One-Electron Energy =               -1044.3085017678019994
    Two-Electron Energy =                 419.3198688234199381
    DFT Exchange-Correlation Energy =       0.0000000000000000
    Empirical Dispersion Energy =           0.0000000000000000
    PCM Polarization Energy =               0.0000000000000000
    EFP Energy =                            0.0000000000000000
    Total Energy =                       -310.2063521239925876

  Mulliken Charges: (a.u.)
   Center  Symbol    Alpha    Beta     Spin     Total
       1     H     0.28122  0.28122  0.00000  0.43757
       2     O     4.37183  4.37183  0.00000 -0.74366
       3     C     2.98958  2.98958  0.00000  0.02084
       4     C     3.15805  3.15805  0.00000 -0.31610
       5     H     0.43311  0.43311  0.00000  0.13379
       6     H     0.43297  0.43297  0.00000  0.13406
       7     C     3.16629  3.16629  0.00000 -0.33258
       8     H     0.41519  0.41519  0.00000  0.16962
       9     H     0.41488  0.41488  0.00000  0.17025
      10     C     3.15258  3.15258  0.00000 -0.30516
      11     H     0.42357  0.42357  0.00000  0.15287
      12     H     0.41917  0.41917  0.00000  0.16165
      13     C     3.15257  3.15257  0.00000 -0.30515
      14     H     0.41997  0.41997  0.00000  0.16005
      15     H     0.42215  0.42215  0.00000  0.15570
      16     C     3.24530  3.24530  0.00000 -0.49061
      17     H     0.42239  0.42239  0.00000  0.15522
      18     H     0.41992  0.41992  0.00000  0.16016
      19     H     0.41881  0.41881  0.00000  0.16238
      20     H     0.42163  0.42163  0.00000  0.15674
      21     H     0.41882  0.41882  0.00000  0.16237

   Total alpha = 29.00000, Total beta = 29.00000, Total charge =  0.00000
