  ==> Input File <==

--------------------------------------------------------------------------
set {
	reference rhf
	basis cc-pvtz
}

set_num_threads( 4 )
memory 2 gb

molecule MOL {
0 1

H	 2.142322	 -1.071901	 0.896456
C	 1.362745	 -0.351770	 1.079492
O	 0.462329	 -0.453336	 -0.000137
H	 1.798209	 0.638085	 1.132186
H	 0.875067	 -0.586218	 2.017278
C	 -0.590565	 0.341382	 0.000062
O	 -1.693898	 -0.053880	 0.000252
H	 -0.340426	 1.403822	 0.000200

	symmetry c1
}
set optking {
	frozen_dihedral = ("
		2 3 6 7
	")
}

ee = optimize('scf')
oeprop('DIPOLE', 'QUADRUPOLE', 'MULLIKEN_CHARGES')
f=open( 'psi4out.xyz', 'w' )
f.write( "8  " )
f.write( str(ee) + "\n" )
f.write( MOL.save_string_xyz() )
f.close()
--------------------------------------------------------------------------

    Molecular point group: c1
  Charge       = 0
  Multiplicity = 1
  Basis Set: CC-PVTZ
  Basis Set:
  @DF-RHF Final Energy:  -227.86183281378246
    Total Energy =                       -227.8618328137824847
    Molecular point group: c1
  Basis Set: CC-PVTZ
  Basis Set:
  Basis Set: CC-PVTZ
  Basis Set:
  @DF-RHF Final Energy:  -227.86207558044953
    Total Energy =                       -227.8620755804495843
  Basis Set: CC-PVTZ
  Basis Set:
  Basis Set: CC-PVTZ
  Basis Set:
  @DF-RHF Final Energy:  -227.86142986267419
    Total Energy =                       -227.8614298626743278
  Basis Set: CC-PVTZ
  Basis Set:
  Basis Set: CC-PVTZ
  Basis Set:
  @DF-RHF Final Energy:  -227.86226297901212
    Total Energy =                       -227.8622629790120300
  Basis Set: CC-PVTZ
  Basis Set:
  Basis Set: CC-PVTZ
  Basis Set:
  @DF-RHF Final Energy:  -227.86227388656886
    Total Energy =                       -227.8622738865688575
  Basis Set: CC-PVTZ
  Basis Set:
  Charge       = 0
  Multiplicity = 1
  Basis Set: CC-PVTZ
  Basis Set:

    Orbital Energies (a.u.)
    -----------------------

    Doubly Occupied:

       1A    -20.597017     2A    -20.559188     3A    -11.376128
       4A    -11.300206     5A     -1.475576     6A     -1.387810
       7A     -0.988294     8A     -0.843080     9A     -0.740514
      10A     -0.690556    11A     -0.676490    12A     -0.622908
      13A     -0.568418    14A     -0.522149    15A     -0.474910
      16A     -0.460525

  @DF-RHF Final Energy:  -227.86227530741934

   => Energetics <=

    Nuclear Repulsion Energy =            121.7596908727065994
    One-Electron Energy =                -552.6763978292119646
    Two-Electron Energy =                 203.0544316490863253
    DFT Exchange-Correlation Energy =       0.0000000000000000
    Empirical Dispersion Energy =           0.0000000000000000
    PCM Polarization Energy =               0.0000000000000000
    EFP Energy =                            0.0000000000000000
    Total Energy =                       -227.8622753074190541
    Molecular point group: c1
  Basis Set: CC-PVTZ
  Basis Set:

  -Total Gradient:
     Atom            X                  Y                   Z
    ------   -----------------  -----------------  -----------------
       1       -0.000033577583     0.000007116803    -0.000049375741
       2       -0.002410369987    -0.002727525067     0.002495824421
       3        0.003509747947     0.004324039147    -0.000789733902
       4        0.000022698499     0.000000693920     0.000001552601
       5       -0.000004465178    -0.000000705519    -0.000004756244
       6       -0.001161215025    -0.001982321646    -0.007342932833
       7        0.000085885000     0.000398295418     0.005697038350
       8       -0.000008703681    -0.000019593055    -0.000007616652

  **** Optimization is complete! (in 6 steps) ****
    Final optimized geometry and variables:
    Molecular point group: c1

    Geometry (in Angstrom), charge = 0, multiplicity = 1:

    H            2.304519480417    -0.863328450901     0.565187168527
    C            1.459863084980    -0.231266550332     0.782812308486
    O            0.545102653003    -0.388887148407    -0.278505049220
    H            1.796261247289     0.797529672769     0.862547279735
    H            1.007286457767    -0.536919122661     1.716989563475
    C           -0.472793844449     0.470110320871    -0.307815159216
    O           -1.597768170610     0.152444652024    -0.252209175296
    H           -0.154365866439     1.511360042518    -0.377613820433

  Mulliken Charges: (a.u.)
   Center  Symbol    Alpha    Beta     Spin     Total
       1     H     0.44245  0.44245  0.00000  0.11510
       2     C     3.02553  3.02553  0.00000 -0.05107
       3     O     4.14122  4.14122  0.00000 -0.28244
       4     H     0.46676  0.46676  0.00000  0.06648
       5     H     0.45591  0.45591  0.00000  0.08818
       6     C     2.83285  2.83285  0.00000  0.33430
       7     O     4.16294  4.16294  0.00000 -0.32587
       8     H     0.47235  0.47235  0.00000  0.05530

   Total alpha = 16.00000, Total beta = 16.00000, Total charge = -0.00000
