                              Psi4 1.0.54 Driver

  ==> Input File <==

--------------------------------------------------------------------------
set {
	reference rhf
	basis cc-pvtz
}

set_num_threads( 4 )
memory 2 gb

molecule MOL {
0 1

H	 -5.055531	 -1.207614	 3.746214
O	 -4.704652	 -1.360292	 4.603770
C	 -3.805176	 -2.437063	 4.575814
C	 -2.485046	 -2.107022	 3.895362
H	 -3.624035	 -2.697544	 5.609892
H	 -4.263857	 -3.302434	 4.101267
C	 -2.606448	 -1.806837	 2.403048
H	 -2.036986	 -1.258611	 4.403887
H	 -1.814908	 -2.951216	 4.039061
C	 -1.257842	 -1.512600	 1.747668
H	 -3.269854	 -0.960355	 2.260347
H	 -3.069122	 -2.655178	 1.901514
C	 -1.311023	 -1.277304	 0.237018
H	 -0.807756	 -0.648192	 2.229796
H	 -0.590503	 -2.347774	 1.941606
C	 -2.041121	 -0.006551	 -0.194127
H	 -0.291926	 -1.233874	 -0.137257
H	 -1.771766	 -2.137384	 -0.243745
C	 -3.489218	 0.042606	 0.286507
H	 -2.022185	 0.066287	 -1.279394
H	 -1.518764	 0.869305	 0.178730
C	 -4.219984	 1.311773	 -0.139038
H	 -4.022855	 -0.824300	 -0.093339
H	 -3.510372	 -0.038577	 1.370031
H	 -4.244251	 1.405725	 -1.219696
H	 -5.244345	 1.313233	 0.215630
H	 -3.732090	 2.196311	 0.257073

	symmetry c1
}
set optking {
	frozen_dihedral = ("
		10 13 16 20
	")
}

ee,wfn = optimize('scf', return_wfn=True)
oeprop( wfn, 'DIPOLE', 'QUADRUPOLE', 'MULLIKEN_CHARGES')
f=open( 'psi4out.xyz', 'w' )
f.write( "27  " )
f.write( str(ee) + "\n" )
f.write( MOL.save_string_xyz() )
f.close()
--------------------------------------------------------------------------

    Molecular point group: c1
  Charge       = 0
  Multiplicity = 1
  Basis Set: CC-PVTZ
  Basis Set:
  @DF-RHF Final Energy:  -388.40029396037573
    Total Energy =                       -388.4002939603761888
    Molecular point group: c1
  Basis Set: CC-PVTZ
  Basis Set:
  Basis Set: CC-PVTZ
  Basis Set:
  @DF-RHF Final Energy:  -388.40459576880079
    Total Energy =                       -388.4045957688001636
  Basis Set: CC-PVTZ
  Basis Set:
  Basis Set: CC-PVTZ
  Basis Set:
  @DF-RHF Final Energy:  -388.41404909573549
    Total Energy =                       -388.4140490957352085
  Basis Set: CC-PVTZ
  Basis Set:
  Basis Set: CC-PVTZ
  Basis Set:
  @DF-RHF Final Energy:  -388.42092035381597
    Total Energy =                       -388.4209203538162001
  Basis Set: CC-PVTZ
  Basis Set:
  @DF-RHF Final Energy:  -388.42134936990101
    Total Energy =                       -388.4213493699011224
  @DF-RHF Final Energy:  -388.42227002230914
    Total Energy =                       -388.4222700223085667
  @DF-RHF Final Energy:  -388.42246600169671
    Total Energy =                       -388.4224660016973303
  @DF-RHF Final Energy:  -388.42275002914408
    Total Energy =                       -388.4227500291437991
  Basis Set: CC-PVTZ
  Basis Set:
  @DF-RHF Final Energy:  -388.42310037323097
    Total Energy =                       -388.4231003732306817
  Basis Set: CC-PVTZ
  Basis Set:
  Basis Set: CC-PVTZ
  Basis Set:
  @DF-RHF Final Energy:  -388.42314841481175
    Total Energy =                       -388.4231484148117488
  Basis Set: CC-PVTZ
  Basis Set:
  Basis Set: CC-PVTZ
  Basis Set:
  @DF-RHF Final Energy:  -388.42316475190893
    Total Energy =                       -388.4231647519090984
  Basis Set: CC-PVTZ
  Basis Set:
  Charge       = 0
  Multiplicity = 1
  Basis Set: CC-PVTZ
  Basis Set:

    Orbital Energies (a.u.)
    -----------------------

    Doubly Occupied:

       1A    -20.545333     2A    -11.264909     3A    -11.216157
       4A    -11.214549     5A    -11.213893     6A    -11.213498
       7A    -11.212905     8A    -11.212474     9A    -11.207034
      10A     -1.363230    11A     -1.095046    12A     -1.061187
      13A     -1.010931    14A     -0.951688    15A     -0.886085
      16A     -0.831524    17A     -0.795098    18A     -0.775218
      19A     -0.696629    20A     -0.653859    21A     -0.629667
      22A     -0.620477    23A     -0.602354    24A     -0.588820
      25A     -0.575823    26A     -0.562789    27A     -0.540992
      28A     -0.517656    29A     -0.504678    30A     -0.502447
      31A     -0.488949    32A     -0.478200    33A     -0.470037
      34A     -0.458207    35A     -0.445387    36A     -0.442930
      37A     -0.424901

  @DF-RHF Final Energy:  -388.42316512099319

   => Energetics <=

    Nuclear Repulsion Energy =            470.0498433450650282
    One-Electron Energy =               -1458.3948955107043730
    Two-Electron Energy =                 599.9218870446466099
    DFT Exchange-Correlation Energy =       0.0000000000000000
    Empirical Dispersion Energy =           0.0000000000000000
    PCM Polarization Energy =               0.0000000000000000
    EFP Energy =                            0.0000000000000000
    Total Energy =                       -388.4231651209927350
    Molecular point group: c1
  Basis Set: CC-PVTZ
  Basis Set:

  -Total Gradient:
     Atom            X                  Y                   Z
    ------   -----------------  -----------------  -----------------
       1        0.000020768694    -0.000008227427     0.000075045472
       2        0.000048288763     0.000001864680    -0.000006781556
       3        0.000000019677    -0.000091238963    -0.000073167048
       4        0.000017108836     0.000054564383     0.000041957462
       5       -0.000016450968    -0.000007881400    -0.000041532315
       6       -0.000027075097     0.000064436883     0.000032619551
       7       -0.000036670208    -0.000025100217    -0.000022175889
       8        0.000007544623    -0.000055890781    -0.000048076476
       9       -0.000065242165     0.000028671335    -0.000012700613
      10       -0.000938180616    -0.000733037461    -0.000006086112
      11        0.000085006151     0.000006394849     0.000037146680
      12       -0.000017775603     0.000053422493     0.000026985147
      13        0.001135973382     0.000836623367     0.000013999215
      14       -0.000004236459    -0.000055850287    -0.000013411381
      15       -0.000023625363     0.000028109303    -0.000020436977
      16        0.001145546102     0.000868215033     0.000043208367
      17       -0.000040972953    -0.000020180826     0.000029482068
      18        0.000001949130     0.000041403000     0.000003211001
      19       -0.000012456568     0.000015277524    -0.000015374043
      20       -0.001275685542    -0.000983839996    -0.000014055369
      21       -0.000007836593    -0.000024204679    -0.000012416903
      22       -0.000004033247    -0.000005624519     0.000010354467
      23        0.000009512639     0.000031471928     0.000001268499
      24       -0.000010425168     0.000002172754    -0.000029547197
      25        0.000000372881     0.000006298184     0.000011838423
      26        0.000014158366     0.000002488627    -0.000000856882
      27       -0.000005582697    -0.000030337784    -0.000010497586

  **** Optimization is complete! (in 12 steps) ****
    Final optimized geometry and variables:
    Molecular point group: c1

    Geometry (in Angstrom), charge = 0, multiplicity = 1:

    H           -1.942067891576    -1.790268490281     1.615704220129
    O           -1.704643560466    -1.619671941065     2.507931321885
    C           -0.347438867824    -1.910915410412     2.713518686653
    C            0.592364715889    -0.895833225932     2.080449289651
    H           -0.205653973647    -1.916480750834     3.785764387106
    H           -0.115184127726    -2.910878658175     2.352733797257
    C            0.537282559399    -0.857514854862     0.555274857507
    H            0.359147257263     0.086433328553     2.480045628781
    H            1.604709378392    -1.133411209431     2.398408440532
    C            1.543805955788     0.121382549777    -0.050234235891
    H           -0.464777703138    -0.597582616524     0.234608022936
    H            0.739332660685    -1.852462988617     0.163698438685
    C            1.516362388989     0.216394155258    -1.585446302195
    H            1.393048597626     1.108112009838     0.379860659959
    H            2.536015960034    -0.188473249157     0.263164568050
    C            0.670194641140     1.347183970623    -2.179110817586
    H            2.530809124986     0.352735648371    -1.944701301301
    H            1.182744308224    -0.733550825361    -1.995991039005
    C           -0.812881585664     1.347882759696    -1.813258953375
    H            0.747239678480     1.287945567855    -3.261684145517
    H            1.103898848866     2.302069244297    -1.891898782257
    C           -1.589334609309     2.448699944659    -2.529411852598
    H           -1.247318484923     0.383217545947    -2.062305122306
    H           -0.933156861599     1.473310214775    -0.742657021492
    H           -1.530835503720     2.332509341173    -3.606476093204
    H           -2.636947108383     2.435370471483    -2.251457158088
    H           -1.194711635097     3.428734181402    -2.282521096744

  Mulliken Charges: (a.u.)
   Center  Symbol    Alpha    Beta     Spin     Total
       1     H     0.39206  0.39206  0.00000  0.21588
       2     O     4.20561  4.20561  0.00000 -0.41121
       3     C     2.97976  2.97976  0.00000  0.04048
       4     C     3.09059  3.09059  0.00000 -0.18118
       5     H     0.44867  0.44867  0.00000  0.10266
       6     H     0.46933  0.46933  0.00000  0.06134
       7     C     3.10309  3.10309  0.00000 -0.20619
       8     H     0.45089  0.45089  0.00000  0.09822
       9     H     0.45473  0.45473  0.00000  0.09054
      10     C     3.10589  3.10589  0.00000 -0.21178
      11     H     0.45393  0.45393  0.00000  0.09214
      12     H     0.45204  0.45204  0.00000  0.09592
      13     C     3.10422  3.10422  0.00000 -0.20845
      14     H     0.45008  0.45008  0.00000  0.09983
      15     H     0.44459  0.44459  0.00000  0.11083
      16     C     3.08909  3.08909  0.00000 -0.17817
      17     H     0.44276  0.44276  0.00000  0.11449
      18     H     0.45478  0.45478  0.00000  0.09044
      19     C     3.09269  3.09269  0.00000 -0.18538
      20     H     0.44975  0.44975  0.00000  0.10050
      21     H     0.45322  0.45322  0.00000  0.09357
      22     C     3.15029  3.15029  0.00000 -0.30058
      23     H     0.45416  0.45416  0.00000  0.09168
      24     H     0.45036  0.45036  0.00000  0.09928
      25     H     0.45463  0.45463  0.00000  0.09074
      26     H     0.44802  0.44802  0.00000  0.10397
      27     H     0.45479  0.45479  0.00000  0.09043

   Total alpha = 37.00000, Total beta = 37.00000, Total charge = -0.00000

*** Psi4 exiting successfully. Buy a developer a beer!
