                              Psi4 1.0.54 Driver

  ==> Input File <==

--------------------------------------------------------------------------
set {
	reference rhf
	basis cc-pvtz
}

set_num_threads( 4 )
memory 2 gb

molecule MOL {
0 1

O	 0.893452	 0.008309	 -0.805918
C	 0.029490	 0.077183	 0.000078
C	 -1.232113	 -0.748027	 0.000015
O	 0.061630	 0.907683	 1.028897
C	 -2.501422	 0.088592	 -0.000052
H	 -1.188777	 -1.400384	 -0.865133
H	 -1.188857	 -1.400312	 0.865225
H	 -2.548170	 0.725504	 -0.873205
H	 -3.371613	 -0.556398	 -0.000040
H	 -2.548215	 0.725571	 0.873047
C	 1.193773	 1.744790	 1.151964
H	 2.093377	 1.156460	 1.255964
H	 1.031609	 2.336671	 2.038081
H	 1.289684	 2.385538	 0.287968

	symmetry c1
}
set optking {
	frozen_dihedral = ("
		4 2 3 6
	")
}

ee,wfn = optimize('scf', return_wfn=True)
oeprop( wfn, 'DIPOLE', 'QUADRUPOLE', 'MULLIKEN_CHARGES')
f=open( 'psi4out.xyz', 'w' )
f.write( "14  " )
f.write( str(ee) + "\n" )
f.write( MOL.save_string_xyz() )
f.close()
--------------------------------------------------------------------------

    Molecular point group: c1
  Charge       = 0
  Multiplicity = 1
  Basis Set: CC-PVTZ
  Basis Set:
  @DF-RHF Final Energy:  -305.98580561386927
    Total Energy =                       -305.9858056138693883
    Molecular point group: c1
  Basis Set: CC-PVTZ
  Basis Set:
  Basis Set: CC-PVTZ
  Basis Set:
  @DF-RHF Final Energy:  -305.98593922516739
    Total Energy =                       -305.9859392251674990
  Basis Set: CC-PVTZ
  Basis Set:
  Basis Set: CC-PVTZ
  Basis Set:
  @DF-RHF Final Energy:  -305.98603401302483
    Total Energy =                       -305.9860340130248915
  Basis Set: CC-PVTZ
  Basis Set:
  Basis Set: CC-PVTZ
  Basis Set:
  @DF-RHF Final Energy:  -305.98610460262205
    Total Energy =                       -305.9861046026219356
  Basis Set: CC-PVTZ
  Basis Set:
  Basis Set: CC-PVTZ
  Basis Set:
  @DF-RHF Final Energy:  -305.98610595162643
    Total Energy =                       -305.9861059516263140
  Basis Set: CC-PVTZ
  Basis Set:
  Charge       = 0
  Multiplicity = 1
  Basis Set: CC-PVTZ
  Basis Set:

    Orbital Energies (a.u.)
    -----------------------

    Doubly Occupied:

       1A    -20.597942     2A    -20.533702     3A    -11.364502
       4A    -11.279435     5A    -11.236511     6A    -11.223690
       7A     -1.473015     8A     -1.365636     9A     -1.068449
      10A     -0.976572    11A     -0.886453    12A     -0.776581
      13A     -0.698412    14A     -0.683223    15A     -0.676950
      16A     -0.620998    17A     -0.589868    18A     -0.570059
      19A     -0.546017    20A     -0.521136    21A     -0.514185
      22A     -0.503352    23A     -0.460526    24A     -0.437600

  @DF-RHF Final Energy:  -305.98610609071397

   => Energetics <=

    Nuclear Repulsion Energy =            248.7505089347301066
    One-Electron Energy =                -910.2636087736195805
    Two-Electron Energy =                 355.5269937481758689
    DFT Exchange-Correlation Energy =       0.0000000000000000
    Empirical Dispersion Energy =           0.0000000000000000
    PCM Polarization Energy =               0.0000000000000000
    EFP Energy =                            0.0000000000000000
    Total Energy =                       -305.9861060907136334
    Molecular point group: c1
  Basis Set: CC-PVTZ
  Basis Set:

  -Total Gradient:
     Atom            X                  Y                   Z
    ------   -----------------  -----------------  -----------------
       1       -0.000011264543    -0.000004227323    -0.000014349984
       2        0.000214147738    -0.000282471983     0.000232630045
       3        0.000197573160    -0.000285887596     0.000233344722
       4       -0.000188515444     0.000272390753    -0.000202580979
       5        0.000001415515     0.000001825232    -0.000002726168
       6       -0.000195819766     0.000310346003    -0.000233240397
       7       -0.000002566804     0.000004971232    -0.000012059209
       8       -0.000005556317     0.000000857761     0.000007577352
       9       -0.000005773588     0.000000112639    -0.000000650718
      10        0.000000057066     0.000002043377    -0.000004261145
      11        0.000012368542    -0.000019791053     0.000000503635
      12       -0.000000174896     0.000005268201     0.000001443190
      13       -0.000010214782    -0.000005090239    -0.000002214135
      14       -0.000005675877    -0.000000347006    -0.000003416211

  **** Optimization is complete! (in 6 steps) ****
    Final optimized geometry and variables:
    Molecular point group: c1

    Geometry (in Angstrom), charge = 0, multiplicity = 1:

    O            1.136645781871    -0.358175556930    -1.033616756774
    C            0.269372000573    -0.288323499256    -0.230609475729
    C           -0.989268932956    -1.117536331588    -0.253042350256
    O            0.305625752158     0.535724902704     0.803323935365
    C           -2.267057442745    -0.278695602257    -0.276142097906
    H           -0.930686772095    -1.753745312007    -1.123385216118
    H           -0.980613779620    -1.748378353969     0.629110666737
    H           -2.291264637685     0.369618827833    -1.144310323591
    H           -3.132947716219    -0.926969035820    -0.321887240054
    H           -2.349035666186     0.336441214002     0.609011674970
    C            1.443806738138     1.363565940143     0.933912658320
    H            2.338211316674     0.767492215986     1.037847731556
    H            1.283199829061     1.952518930091     1.822300520919
    H            1.547236097644     2.007151453985     0.073024439253

  Mulliken Charges: (a.u.)
   Center  Symbol    Alpha    Beta     Spin     Total
       1     O     4.19875  4.19875  0.00000 -0.39749
       2     C     2.80152  2.80152  0.00000  0.39696
       3     C     3.08519  3.08519  0.00000 -0.17038
       4     O     4.14977  4.14977  0.00000 -0.29955
       5     C     3.14908  3.14908  0.00000 -0.29816
       6     H     0.43592  0.43592  0.00000  0.12815
       7     H     0.44746  0.44746  0.00000  0.10508
       8     H     0.45036  0.45036  0.00000  0.09929
       9     H     0.44787  0.44787  0.00000  0.10425
      10     H     0.44573  0.44573  0.00000  0.10854
      11     C     3.03536  3.03536  0.00000 -0.07072
      12     H     0.45305  0.45305  0.00000  0.09389
      13     H     0.44573  0.44573  0.00000  0.10854
      14     H     0.45420  0.45420  0.00000  0.09161

   Total alpha = 24.00000, Total beta = 24.00000, Total charge = -0.00000

*** Psi4 exiting successfully. Buy a developer a beer!
