  ==> Input File <==

--------------------------------------------------------------------------
set {
	reference rhf
	basis 6-31G*
}

set_num_threads( 4 )
memory 2 gb

molecule MOL {
0 1

H	 2.176868	 -0.646004	 -0.217325
O	 1.337496	 -0.537251	 0.205931
C	 0.702312	 0.627605	 -0.264544
C	 -0.714990	 0.596302	 0.266387
H	 0.682322	 0.642550	 -1.350929
H	 1.215941	 1.520383	 0.085680
O	 -1.405996	 -0.526611	 -0.195820
H	 -1.257453	 1.468809	 -0.075599
H	 -0.688972	 0.618407	 1.353696
H	 -1.536571	 -1.109037	 0.541571

	symmetry c1
}
set optking {
	frozen_dihedral = ("
		10 7 4 3
	")
}

ee = optimize('scf')
oeprop('DIPOLE', 'QUADRUPOLE', 'MULLIKEN_CHARGES')
f=open( 'psi4out.xyz', 'w' )
f.write( "10  " )
f.write( str(ee) + "\n" )
f.write( MOL.save_string_xyz() )
f.close()
--------------------------------------------------------------------------

    Molecular point group: c1
  Charge       = 0
  Multiplicity = 1
  Basis Set: 6-31G*
  Basis Set:
  @DF-RHF Final Energy:  -228.91970112450778
    Total Energy =                       -228.9197011245078670
    Molecular point group: c1
  Basis Set: 6-31G*
  Basis Set:
  Basis Set: 6-31G*
  Basis Set:
  @DF-RHF Final Energy:  -228.92070890961244
    Total Energy =                       -228.9207089096125856
  Basis Set: 6-31G*
  Basis Set:
  Basis Set: 6-31G*
  Basis Set:
  @DF-RHF Final Energy:  -228.92080479894227
    Total Energy =                       -228.9208047989422425
  Basis Set: 6-31G*
  Basis Set:
  Basis Set: 6-31G*
  Basis Set:
  @DF-RHF Final Energy:  -228.92081188450121
    Total Energy =                       -228.9208118845012905
  Basis Set: 6-31G*
  Basis Set:
  Charge       = 0
  Multiplicity = 1
  Basis Set: 6-31G*
  Basis Set:

    Orbital Energies (a.u.)
    -----------------------

    Doubly Occupied:

       1A    -20.556387     2A    -20.550635     3A    -11.269445
       4A    -11.268537     5A     -1.371832     6A     -1.349902
       7A     -1.001267     8A     -0.834724     9A     -0.721464
      10A     -0.696077    11A     -0.624205    12A     -0.598002
      13A     -0.581314    14A     -0.520834    15A     -0.485721
      16A     -0.445742    17A     -0.431988

  @DF-RHF Final Energy:  -228.92081251026048

   => Energetics <=

    Nuclear Repulsion Energy =            133.5317753514568153
    One-Electron Energy =                -578.2890270741663699
    Two-Electron Energy =                 215.8364392124490223
    DFT Exchange-Correlation Energy =       0.0000000000000000
    Empirical Dispersion Energy =           0.0000000000000000
    PCM Polarization Energy =               0.0000000000000000
    EFP Energy =                            0.0000000000000000
    Total Energy =                       -228.9208125102605322
    Molecular point group: c1
  Basis Set: 6-31G*
  Basis Set:

  -Total Gradient:
     Atom            X                  Y                   Z
    ------   -----------------  -----------------  -----------------
       1        0.000029586760    -0.000005900611     0.000006788367
       2       -0.000022917197     0.000023239685    -0.000013768680
       3       -0.000602666286     0.001063530485    -0.001458747468
       4        0.000198848970    -0.001245777698     0.002238120492
       5        0.000006758081    -0.000000031837    -0.000042816911
       6       -0.000012799439    -0.000024331015     0.000009915855
       7        0.003010940425    -0.001216624912    -0.001540817743
       8       -0.000030701876    -0.000046049431    -0.000018337712
       9       -0.000010713617     0.000004229067     0.000032598320
      10       -0.002566335820     0.001447716268     0.000787065479

  **** Optimization is complete! (in 5 steps) ****
    Final optimized geometry and variables:
    Molecular point group: c1

    Geometry (in Angstrom), charge = 0, multiplicity = 1:

    H            2.214298892947    -0.631343495082    -0.209370295401
    O            1.400158299858    -0.503969271372     0.255747534057
    C            0.701201173211     0.582965597127    -0.292200652659
    C           -0.701953648678     0.570734500116     0.269680763549
    H            0.645995562120     0.509321691972    -1.374786906179
    H            1.186654863722     1.524176668933    -0.036787241473
    O           -1.437372594364    -0.505322028700    -0.248260980906
    H           -1.204382704674     1.491241104194    -0.010878245325
    H           -0.652471637648     0.534930176037     1.353478340691
    H           -1.590517520441    -1.147050199485     0.427667777932

  Mulliken Charges: (a.u.)
   Center  Symbol    Alpha    Beta     Spin     Total
       1     H     0.27903  0.27903  0.00000  0.44193
       2     O     4.37203  4.37203  0.00000 -0.74406
       3     C     2.99989  2.99989  0.00000  0.00022
       4     C     3.00374  3.00374  0.00000 -0.00747
       5     H     0.42272  0.42272  0.00000  0.15455
       6     H     0.43318  0.43318  0.00000  0.13364
       7     O     4.36958  4.36958  0.00000 -0.73916
       8     H     0.42175  0.42175  0.00000  0.15651
       9     H     0.42198  0.42198  0.00000  0.15604
      10     H     0.27610  0.27610  0.00000  0.44780

   Total alpha = 17.00000, Total beta = 17.00000, Total charge = -0.00000
