  ==> Input File <==

--------------------------------------------------------------------------
set {
	reference rhf
	basis cc-pvtz
}

set_num_threads( 4 )
memory 2 gb

molecule MOL {
0 1

O	 -1.278239	 1.034789	 -0.784693
C	 -1.204115	 0.062668	 -0.112312
C	 -2.386398	 -0.667698	 0.460323
O	 -0.068058	 -0.518372	 0.226882
H	 -2.382952	 -1.693172	 0.114333
H	 -3.296656	 -0.175702	 0.158400
H	 -2.312537	 -0.685191	 1.540100
C	 1.169086	 0.037484	 -0.230612
C	 2.117620	 -1.130672	 -0.411743
C	 1.674155	 1.063118	 0.768181
H	 0.985954	 0.517046	 -1.180123
H	 1.719080	 -1.839959	 -1.125765
H	 3.074780	 -0.778210	 -0.776883
H	 2.277560	 -1.644932	 0.528411
H	 2.617052	 1.476171	 0.429312
H	 0.968596	 1.875204	 0.874724
H	 1.831166	 0.603996	 1.737634

	symmetry c1
}
set optking {
	frozen_dihedral = ("
		11 8 4 2
	")
}

ee = optimize('scf')
oeprop('DIPOLE', 'QUADRUPOLE', 'MULLIKEN_CHARGES')
f=open( 'psi4out.xyz', 'w' )
f.write( "17  " )
f.write( str(ee) + "\n" )
f.write( MOL.save_string_xyz() )
f.close()
--------------------------------------------------------------------------

    Molecular point group: c1
  Charge       = 0
  Multiplicity = 1
  Basis Set: CC-PVTZ
  Basis Set:
  @DF-RHF Final Energy:  -345.04329724625546
    Total Energy =                       -345.0432972462554062
    Molecular point group: c1
  Basis Set: CC-PVTZ
  Basis Set:
  Basis Set: CC-PVTZ
  Basis Set:
  @DF-RHF Final Energy:  -345.04330929664440
    Total Energy =                       -345.0433092966443951
  Basis Set: CC-PVTZ
  Basis Set:
  Basis Set: CC-PVTZ
  Basis Set:
  @DF-RHF Final Energy:  -345.04322632240024
    Total Energy =                       -345.0432263223998461
  Basis Set: CC-PVTZ
  Basis Set:
  Basis Set: CC-PVTZ
  Basis Set:
  @DF-RHF Final Energy:  -345.04332405195061
    Total Energy =                       -345.0433240519503215
  Basis Set: CC-PVTZ
  Basis Set:
  Charge       = 0
  Multiplicity = 1
  Basis Set: CC-PVTZ
  Basis Set:

    Orbital Energies (a.u.)
    -----------------------

    Doubly Occupied:

       1A    -20.591119     2A    -20.531423     3A    -11.366857
       4A    -11.287711     5A    -11.230514     6A    -11.217828
       7A    -11.214716     8A     -1.468312     9A     -1.364511
      10A     -1.079704    11A     -1.005636    12A     -0.948999
      13A     -0.849807    14A     -0.768161    15A     -0.694801
      16A     -0.671862    17A     -0.662331    18A     -0.613901
      19A     -0.587214    20A     -0.579077    21A     -0.565202
      22A     -0.551172    23A     -0.537763    24A     -0.522224
      25A     -0.504158    26A     -0.483048    27A     -0.449802
      28A     -0.439376

  @DF-RHF Final Energy:  -345.04332519333639

   => Energetics <=

    Nuclear Repulsion Energy =            323.3430049484657047
    One-Electron Energy =               -1111.1982015485723423
    Two-Electron Energy =                 442.8118714067704786
    DFT Exchange-Correlation Energy =       0.0000000000000000
    Empirical Dispersion Energy =           0.0000000000000000
    PCM Polarization Energy =               0.0000000000000000
    EFP Energy =                            0.0000000000000000
    Total Energy =                       -345.0433251933361589
    Molecular point group: c1
  Basis Set: CC-PVTZ
  Basis Set:

  -Total Gradient:
     Atom            X                  Y                   Z
    ------   -----------------  -----------------  -----------------
       1       -0.000009770630    -0.000016116966     0.000007573288
       2       -0.000026306898    -0.000344405308    -0.000537359033
       3        0.000003456848    -0.000014686587    -0.000006565619
       4        0.000029317448     0.000682632905     0.000825159979
       5        0.000001705607     0.000000215148     0.000007071690
       6        0.000000844615     0.000002589188    -0.000000532783
       7        0.000000071528     0.000006655704     0.000001520951
       8        0.000119389257    -0.000917211761    -0.000638185378
       9        0.000016887758    -0.000015279064    -0.000004792287
      10        0.000036281929    -0.000022329708     0.000006044652
      11       -0.000144484868     0.000609113139     0.000338562022
      12       -0.000000731671    -0.000000314436    -0.000001809506
      13       -0.000005968734     0.000003370349     0.000001123880
      14       -0.000005400534     0.000005004362     0.000001305282
      15        0.000001721049     0.000007084292    -0.000000562765
      16       -0.000008445509     0.000010438263     0.000006727493
      17       -0.000008567194     0.000003240478    -0.000005281867

  **** Optimization is complete! (in 5 steps) ****
    Final optimized geometry and variables:
    Molecular point group: c1

    Geometry (in Angstrom), charge = 0, multiplicity = 1:

    O           -1.282673691591     1.064547550662    -0.758562695048
    C           -1.207953229299     0.083736878142    -0.099087478666
    C           -2.389976115011    -0.653443905800     0.465332563499
    O           -0.072059310204    -0.501234655795     0.234456150124
    H           -2.387525818911    -1.674330705139     0.106047088813
    H           -3.300303246415    -0.157018808440     0.171036790119
    H           -2.314736896153    -0.685048319139     1.544682098251
    C            1.166150526401     0.047512026489    -0.228438046428
    C            2.115646960482    -1.120525176157    -0.403931026596
    C            1.665803283523     1.077934783137     0.768263576991
    H            0.982855109351     0.527350840479    -1.177088759808
    H            1.720236907866    -1.831346253542    -1.118237087527
    H            3.074030584610    -0.768447977690    -0.766260533112
    H            2.272344442840    -1.632962001267     0.537779207171
    H            2.607900157050     1.494519535971     0.431564373953
    H            0.955568312126     1.887532571776     0.868884824468
    H            1.819919841831     0.624369621028     1.740653141215

  Mulliken Charges: (a.u.)
   Center  Symbol    Alpha    Beta     Spin     Total
       1     O     4.19966  4.19966  0.00000 -0.39933
       2     C     2.80514  2.80514  0.00000  0.38973
       3     C     3.13948  3.13948  0.00000 -0.27896
       4     O     4.16473  4.16473  0.00000 -0.32946
       5     H     0.44605  0.44605  0.00000  0.10789
       6     H     0.43843  0.43843  0.00000  0.12313
       7     H     0.44610  0.44610  0.00000  0.10781
       8     C     2.93200  2.93200  0.00000  0.13601
       9     C     3.13767  3.13767  0.00000 -0.27535
      10     C     3.15194  3.15194  0.00000 -0.30388
      11     H     0.44073  0.44073  0.00000  0.11853
      12     H     0.44718  0.44718  0.00000  0.10564
      13     H     0.45407  0.45407  0.00000  0.09186
      14     H     0.45252  0.45252  0.00000  0.09495
      15     H     0.45042  0.45042  0.00000  0.09916
      16     H     0.44039  0.44039  0.00000  0.11922
      17     H     0.45348  0.45348  0.00000  0.09304

   Total alpha = 28.00000, Total beta = 28.00000, Total charge = -0.00000
