  ==> Input File <==

--------------------------------------------------------------------------
set {
	reference rhf
	basis 6-31G*
}

set_num_threads( 4 )
memory 2 gb

molecule MOL {
0 1

H	 -1.280471	 0.862152	 -0.874220
C	 -0.790252	 0.431209	 0.000000
N	 0.538815	 0.649616	 0.000000
O	 -1.401205	 -0.160675	 0.840011
C	 1.521968	 -0.411503	 0.000000
H	 0.852804	 1.592852	 0.000000
H	 2.150599	 -0.357004	 -0.881901
H	 0.999455	 -1.354525	 0.000000
H	 2.150599	 -0.357004	 0.881901

	symmetry c1
}
set optking {
	frozen_dihedral = ("
		1 2 3 6
	")
}

ee = optimize('scf')
oeprop('DIPOLE', 'QUADRUPOLE', 'MULLIKEN_CHARGES')
f=open( 'psi4out.xyz', 'w' )
f.write( "9  " )
f.write( str(ee) + "\n" )
f.write( MOL.save_string_xyz() )
f.close()
--------------------------------------------------------------------------

    Molecular point group: c1
  Charge       = 0
  Multiplicity = 1
  Basis Set: 6-31G*
  Basis Set:
  @DF-RHF Final Energy:  -207.92884679281593
    Total Energy =                       -207.9288467928158752
    Molecular point group: c1
  Basis Set: 6-31G*
  Basis Set:
  Basis Set: 6-31G*
  Basis Set:
  @DF-RHF Final Energy:  -207.93623097354106
    Total Energy =                       -207.9362309735410292
  Basis Set: 6-31G*
  Basis Set:
  Basis Set: 6-31G*
  Basis Set:
  @DF-RHF Final Energy:  -207.94252190138064
    Total Energy =                       -207.9425219013807009
  Basis Set: 6-31G*
  Basis Set:
  Basis Set: 6-31G*
  Basis Set:
  @DF-RHF Final Energy:  -207.94918495582664
    Total Energy =                       -207.9491849558266949
  Basis Set: 6-31G*
  Basis Set:
  @DF-RHF Final Energy:  -207.95042625279115
    Total Energy =                       -207.9504262527911465
  @DF-RHF Final Energy:  -207.95065966813138
    Total Energy =                       -207.9506596681313795
  @DF-RHF Final Energy:  -207.95100411838007
    Total Energy =                       -207.9510041183800695
  @DF-RHF Final Energy:  -207.95131629856013
    Total Energy =                       -207.9513162985601298
  @DF-RHF Final Energy:  -207.95156905188691
    Total Energy =                       -207.9515690518867927
  @DF-RHF Final Energy:  -207.95104144261694
    Total Energy =                       -207.9510414426168836
  Basis Set: 6-31G*
  Basis Set:
  @DF-RHF Final Energy:  -207.95170863778702
    Total Energy =                       -207.9517086377870498
  Basis Set: 6-31G*
  Basis Set:
  Basis Set: 6-31G*
  Basis Set:
  @DF-RHF Final Energy:  -207.95182709441781
    Total Energy =                       -207.9518270944178084
  Basis Set: 6-31G*
  Basis Set:
  Basis Set: 6-31G*
  Basis Set:
  @DF-RHF Final Energy:  -207.95184977951459
    Total Energy =                       -207.9518497795145322
  Basis Set: 6-31G*
  Basis Set:
  Charge       = 0
  Multiplicity = 1
  Basis Set: 6-31G*
  Basis Set:

    Orbital Energies (a.u.)
    -----------------------

    Doubly Occupied:

       1A    -20.549084     2A    -15.585028     3A    -11.349363
       4A    -11.254118     5A     -1.406996     6A     -1.231783
       7A     -0.955625     8A     -0.806588     9A     -0.734908
      10A     -0.647560    11A     -0.642736    12A     -0.574961
      13A     -0.549694    14A     -0.532514    15A     -0.437484
      16A     -0.407186

  @DF-RHF Final Energy:  -207.95185008986067

   => Energetics <=

    Nuclear Repulsion Energy =            122.8203124484582105
    One-Electron Energy =                -526.2130647270012105
    Two-Electron Energy =                 195.4409021886822870
    DFT Exchange-Correlation Energy =       0.0000000000000000
    Empirical Dispersion Energy =           0.0000000000000000
    PCM Polarization Energy =               0.0000000000000000
    EFP Energy =                            0.0000000000000000
    Total Energy =                       -207.9518500898607272
    Molecular point group: c1
  Basis Set: 6-31G*
  Basis Set:

  -Total Gradient:
     Atom            X                  Y                   Z
    ------   -----------------  -----------------  -----------------
       1       -0.002535657236    -0.007979179828    -0.007289714268
       2        0.004672083955     0.009611655674     0.012520180235
       3       -0.006812352319     0.001181181126    -0.016154877303
       4       -0.000030451523    -0.000008501954     0.000038277580
       5       -0.000005009299     0.000096262000     0.000080199418
       6        0.004748764910    -0.002908540305     0.010820068632
       7       -0.000012861056     0.000016441584    -0.000006613063
       8       -0.000016486660    -0.000008024985    -0.000009690071
       9       -0.000008030768    -0.000001293310     0.000002168840

  **** Optimization is complete! (in 14 steps) ****
    Final optimized geometry and variables:
    Molecular point group: c1

    Geometry (in Angstrom), charge = 0, multiplicity = 1:

    H           -1.505126036131     1.093620847722    -0.546244324004
    C           -0.797642727191     0.421698496800    -0.059555901640
    N            0.471609487895     0.502004446034    -0.593326535264
    O           -1.157028802536    -0.397504342993     0.724931770216
    C            1.423636040675    -0.497553211482    -0.121184624280
    H            0.858118681286     1.422455166994    -0.512685132813
    H            2.356257334689    -0.356727847161    -0.651639330394
    H            1.042213684621    -1.482603517495    -0.345852174143
    H            1.605120511410    -0.439898781856     0.947160880776

  Mulliken Charges: (a.u.)
   Center  Symbol    Alpha    Beta     Spin     Total
       1     H     0.41826  0.41826  0.00000  0.16348
       2     C     2.76544  2.76544  0.00000  0.46911
       3     N     3.86177  3.86177  0.00000 -0.72353
       4     O     4.25931  4.25931  0.00000 -0.51861
       5     C     3.15132  3.15132  0.00000 -0.30263
       6     H     0.31616  0.31616  0.00000  0.36769
       7     H     0.41403  0.41403  0.00000  0.17194
       8     H     0.40032  0.40032  0.00000  0.19937
       9     H     0.41340  0.41340  0.00000  0.17319

   Total alpha = 16.00000, Total beta = 16.00000, Total charge = -0.00000
