                              Psi4 1.0.54 Driver

  ==> Input File <==

--------------------------------------------------------------------------
set {
	reference rhf
	basis cc-pvtz
}

set_num_threads( 4 )
memory 2 gb

molecule MOL {
0 1

H	 2.810655	 -0.460638	 -0.306577
O	 2.012307	 -0.863440	 0.000222
C	 1.050374	 0.054877	 0.000135
C	 -0.318151	 -0.570512	 0.000144
O	 1.286319	 1.213453	 -0.000040
C	 -1.454884	 0.441630	 -0.000560
H	 -0.371613	 -1.223646	 -0.864985
H	 -0.371920	 -1.222758	 0.865929
C	 -2.822577	 -0.232186	 0.000063
H	 -1.359760	 1.084704	 -0.867077
H	 -1.359641	 1.085996	 0.864983
H	 -2.954352	 -0.858985	 -0.875745
H	 -3.615886	 0.505352	 0.000019
H	 -2.953878	 -0.858359	 0.876394

	symmetry c1
}
set optking {
	frozen_dihedral = ("
		1 2 3 5
	")
}

ee,wfn = optimize('scf', return_wfn=True)
oeprop( wfn, 'DIPOLE', 'QUADRUPOLE', 'MULLIKEN_CHARGES')
f=open( 'psi4out.xyz', 'w' )
f.write( "14  " )
f.write( str(ee) + "\n" )
f.write( MOL.save_string_xyz() )
f.close()
--------------------------------------------------------------------------

    Molecular point group: c1
  Charge       = 0
  Multiplicity = 1
  Basis Set: CC-PVTZ
  Basis Set:
  @DF-RHF Final Energy:  -305.99871034399331
    Total Energy =                       -305.9987103439933094
    Molecular point group: c1
  Basis Set: CC-PVTZ
  Basis Set:
  Basis Set: CC-PVTZ
  Basis Set:
  @DF-RHF Final Energy:  -305.99542971572498
    Total Energy =                       -305.9954297157247538
  Basis Set: CC-PVTZ
  Basis Set:
  Basis Set: CC-PVTZ
  Basis Set:
  @DF-RHF Final Energy:  -305.99887937505582
    Total Energy =                       -305.9988793750559353
  Basis Set: CC-PVTZ
  Basis Set:
  Basis Set: CC-PVTZ
  Basis Set:
  @DF-RHF Final Energy:  -305.99893010984488
    Total Energy =                       -305.9989301098448209
  Basis Set: CC-PVTZ
  Basis Set:
  Basis Set: CC-PVTZ
  Basis Set:
  @DF-RHF Final Energy:  -305.99893717065527
    Total Energy =                       -305.9989371706552674
  Basis Set: CC-PVTZ
  Basis Set:
  Basis Set: CC-PVTZ
  Basis Set:
  @DF-RHF Final Energy:  -305.99894090814257
    Total Energy =                       -305.9989409081425720
  Basis Set: CC-PVTZ
  Basis Set:
  Charge       = 0
  Multiplicity = 1
  Basis Set: CC-PVTZ
  Basis Set:

    Orbital Energies (a.u.)
    -----------------------

    Doubly Occupied:

       1A    -20.602781     2A    -20.541982     3A    -11.374106
       4A    -11.239717     5A    -11.223800     6A    -11.215402
       7A     -1.476183     8A     -1.369972     9A     -1.084291
      10A     -0.980651    11A     -0.858816    12A     -0.793341
      13A     -0.704858    14A     -0.691127    15A     -0.668691
      16A     -0.621148    17A     -0.591768    18A     -0.574462
      19A     -0.546272    20A     -0.506872    21A     -0.492484
      22A     -0.485170    23A     -0.482346    24A     -0.447589

  @DF-RHF Final Energy:  -305.99894083775700

   => Energetics <=

    Nuclear Repulsion Energy =            240.3727899156143621
    One-Electron Energy =                -893.5958023494970348
    Two-Electron Energy =                 347.2240715961258957
    DFT Exchange-Correlation Energy =       0.0000000000000000
    Empirical Dispersion Energy =           0.0000000000000000
    PCM Polarization Energy =               0.0000000000000000
    EFP Energy =                            0.0000000000000000
    Total Energy =                       -305.9989408377567770
    Molecular point group: c1
  Basis Set: CC-PVTZ
  Basis Set:

  -Total Gradient:
     Atom            X                  Y                   Z
    ------   -----------------  -----------------  -----------------
       1       -0.001173842382    -0.002014921708    -0.006477350747
       2        0.001330163016     0.002568647970     0.010990397600
       3        0.000233645321    -0.001015915331    -0.010980749721
       4       -0.000019471463     0.000012768570     0.000056051381
       5       -0.000405995403     0.000429044628     0.006348604540
       6        0.000013652329     0.000009393111     0.000027495920
       7        0.000009331756    -0.000011528096     0.000023293086
       8        0.000004982993     0.000022533943     0.000029477599
       9        0.000004471151    -0.000007482272    -0.000005933060
      10        0.000001835530     0.000002720164    -0.000008606919
      11       -0.000001108612     0.000005881121    -0.000001974359
      12       -0.000003277681    -0.000002073601    -0.000001360049
      13        0.000005535273     0.000001192071     0.000000232743
      14        0.000000078166    -0.000000260569     0.000000421986

  **** Optimization is complete! (in 7 steps) ****
    Final optimized geometry and variables:
    Molecular point group: c1

    Geometry (in Angstrom), charge = 0, multiplicity = 1:

    H            2.831878598467    -0.476400623047    -0.203569932770
    O            2.014066977347    -0.859344369121     0.075102895202
    C            1.050789666462     0.056650216555    -0.027891365199
    C           -0.317078368352    -0.569422009618    -0.010237450836
    O            1.283680254110     1.214095667187    -0.073576055485
    C           -1.455109979132     0.440738091128     0.016005045962
    H           -0.383168321105    -1.213280687903    -0.881925266172
    H           -0.355563613238    -1.231762680217     0.848401082368
    C           -2.821796053475    -0.235006545442     0.028419908587
    H           -1.372775117831     1.093612442388    -0.844305531945
    H           -1.348822831670     1.075496197841     0.887583138063
    H           -2.964965674421    -0.852233346262    -0.852424546901
    H           -3.615978722436     0.501346342196     0.047592829151
    H           -2.940033300558    -0.871062557454     0.899449131227

  Mulliken Charges: (a.u.)
   Center  Symbol    Alpha    Beta     Spin     Total
       1     H     0.38142  0.38142  0.00000  0.23717
       2     O     4.16288  4.16288  0.00000 -0.32577
       3     C     2.80566  2.80566  0.00000  0.38867
       4     C     3.10515  3.10515  0.00000 -0.21030
       5     O     4.18779  4.18779  0.00000 -0.37559
       6     C     3.07956  3.07956  0.00000 -0.15913
       7     H     0.44068  0.44068  0.00000  0.11864
       8     H     0.43818  0.43818  0.00000  0.12363
       9     C     3.15015  3.15015  0.00000 -0.30030
      10     H     0.44586  0.44586  0.00000  0.10827
      11     H     0.44651  0.44651  0.00000  0.10698
      12     H     0.45565  0.45565  0.00000  0.08869
      13     H     0.44513  0.44513  0.00000  0.10974
      14     H     0.45536  0.45536  0.00000  0.08928

   Total alpha = 24.00000, Total beta = 24.00000, Total charge = -0.00000

*** Psi4 exiting successfully. Buy a developer a beer!
