  ==> Input File <==

--------------------------------------------------------------------------
set {
	reference rhf
	basis 6-31G*
}

set_num_threads( 4 )
memory 2 gb

molecule MOL {
0 1

H	 1.148083	 -1.049780	 0.784252
O	 1.319262	 -0.618148	 -0.041729
C	 0.709265	 0.639550	 -0.033818
C	 1.257274	 1.597727	 -1.058592
H	 0.861868	 1.043395	 0.960578
H	 -0.367780	 0.548145	 -0.170369
C	 2.321587	 1.386315	 -1.806461
H	 0.708813	 2.521876	 -1.156684
H	 2.902235	 0.485628	 -1.722558
H	 2.657217	 2.116333	 -2.520887

	symmetry c1
}
set optking {
	frozen_dihedral = ("
		5 3 2 1
	")
}

ee = optimize('scf')
oeprop('DIPOLE', 'QUADRUPOLE', 'MULLIKEN_CHARGES')
f=open( 'psi4out.xyz', 'w' )
f.write( "10  " )
f.write( str(ee) + "\n" )
f.write( MOL.save_string_xyz() )
f.close()
--------------------------------------------------------------------------

    Molecular point group: c1
  Charge       = 0
  Multiplicity = 1
  Basis Set: 6-31G*
  Basis Set:
  @DF-RHF Final Energy:  -191.91354034926340
    Total Energy =                       -191.9135403492633714
    Molecular point group: c1
  Basis Set: 6-31G*
  Basis Set:
  Basis Set: 6-31G*
  Basis Set:
  @DF-RHF Final Energy:  -191.91484278958262
    Total Energy =                       -191.9148427895826217
  Basis Set: 6-31G*
  Basis Set:
  Basis Set: 6-31G*
  Basis Set:
  @DF-RHF Final Energy:  -191.91527942197422
    Total Energy =                       -191.9152794219742191
  Basis Set: 6-31G*
  Basis Set:
  Basis Set: 6-31G*
  Basis Set:
  @DF-RHF Final Energy:  -191.91529289159513
    Total Energy =                       -191.9152928915950724
  Basis Set: 6-31G*
  Basis Set:
  Basis Set: 6-31G*
  Basis Set:
  @DF-RHF Final Energy:  -191.91529402623382
    Total Energy =                       -191.9152940262338518
  Basis Set: 6-31G*
  Basis Set:
  Charge       = 0
  Multiplicity = 1
  Basis Set: 6-31G*
  Basis Set:

    Orbital Energies (a.u.)
    -----------------------

    Doubly Occupied:

       1A    -20.559187     2A    -11.278412     3A    -11.223843
       4A    -11.209433     5A     -1.367831     6A     -1.053366
       7A     -0.922117     8A     -0.752959     9A     -0.709977
      10A     -0.637511    11A     -0.612165    12A     -0.587651
      13A     -0.513032    14A     -0.487010    15A     -0.451951
      16A     -0.354893

  @DF-RHF Final Energy:  -191.91529414225056

   => Energetics <=

    Nuclear Repulsion Energy =            119.4637259067225017
    One-Electron Energy =                -497.3153629996333507
    Two-Electron Energy =                 185.9363429506602188
    DFT Exchange-Correlation Energy =       0.0000000000000000
    Empirical Dispersion Energy =           0.0000000000000000
    PCM Polarization Energy =               0.0000000000000000
    EFP Energy =                            0.0000000000000000
    Total Energy =                       -191.9152941422506160
    Molecular point group: c1
  Basis Set: 6-31G*
  Basis Set:

  -Total Gradient:
     Atom            X                  Y                   Z
    ------   -----------------  -----------------  -----------------
       1        0.000777088644     0.000414485519     0.000397310426
       2       -0.001128939013    -0.000659669322    -0.000415083521
       3        0.001097371695     0.000616386799    -0.000183459404
       4       -0.000050977174     0.000004673425    -0.000014109786
       5       -0.000721144612    -0.000401270641     0.000223885075
       6        0.000001851463     0.000023238578    -0.000006857047
       7       -0.000002990812    -0.000020280320    -0.000026968292
       8        0.000014313697     0.000005284984     0.000005842819
       9        0.000005191830     0.000008288919     0.000009482338
      10        0.000008234283     0.000008862061     0.000009957391

  **** Optimization is complete! (in 6 steps) ****
    Final optimized geometry and variables:
    Molecular point group: c1

    Geometry (in Angstrom), charge = 0, multiplicity = 1:

    H           -0.183970275480    -1.731139304302     1.425366852384
    O           -0.022179011236    -1.258970222820     0.622089367001
    C           -0.702088247998    -0.035587755212     0.651222262183
    C           -0.129699791324     0.914768492263    -0.359154157348
    H           -0.644402718998     0.417419975156     1.640753084431
    H           -1.761120131428    -0.182735189565     0.439293810377
    C            0.906889310995     0.672195042398    -1.134012596832
    H           -0.643389076041     1.861241333689    -0.423528593817
    H            1.433620543694    -0.262187286961    -1.092304967735
    H            1.257040685729     1.406205890394    -1.837701051682

  Mulliken Charges: (a.u.)
   Center  Symbol    Alpha    Beta     Spin     Total
       1     H     0.27854  0.27854  0.00000  0.44292
       2     O     4.36882  4.36882  0.00000 -0.73764
       3     C     2.99864  2.99864  0.00000  0.00273
       4     C     3.08898  3.08898  0.00000 -0.17797
       5     H     0.42692  0.42692  0.00000  0.14617
       6     H     0.42455  0.42455  0.00000  0.15090
       7     C     3.18977  3.18977  0.00000 -0.37954
       8     H     0.41209  0.41209  0.00000  0.17583
       9     H     0.39731  0.39731  0.00000  0.20538
      10     H     0.41438  0.41438  0.00000  0.17124

   Total alpha = 16.00000, Total beta = 16.00000, Total charge =  0.00000
