                              Psi4 1.0.54 Driver

  ==> Input File <==

--------------------------------------------------------------------------
set {
	reference rhf
	basis cc-pvtz
}

set_num_threads( 4 )
memory 2 gb

molecule MOL {
0 1

H	 -2.498963	 -0.741158	 -0.729149
O	 -2.346257	 -0.289210	 0.080372
C	 -1.183935	 0.486039	 -0.009831
C	 0.062853	 -0.375310	 0.027457
H	 -1.178881	 1.094526	 -0.908634
H	 -1.184406	 1.155156	 0.838676
O	 1.172093	 0.457955	 -0.054438
H	 0.052476	 -1.081302	 -0.804627
H	 0.076323	 -0.955658	 0.947560
C	 2.343140	 -0.174039	 -0.455004
H	 2.240540	 -0.609643	 -1.446466
H	 3.127724	 0.567895	 -0.480477
H	 2.627083	 -0.961448	 0.239175

	symmetry c1
}
set optking {
	frozen_dihedral = ("
		10 7 4 8
	")
}

ee,wfn = optimize('scf', return_wfn=True)
oeprop( wfn, 'DIPOLE', 'QUADRUPOLE', 'MULLIKEN_CHARGES')
f=open( 'psi4out.xyz', 'w' )
f.write( "13  " )
f.write( str(ee) + "\n" )
f.write( MOL.save_string_xyz() )
f.close()
--------------------------------------------------------------------------

    Molecular point group: c1
  Charge       = 0
  Multiplicity = 1
  Basis Set: CC-PVTZ
  Basis Set:
  @DF-RHF Final Energy:  -268.06134093444768
    Total Energy =                       -268.0613409344476850
    Molecular point group: c1
  Basis Set: CC-PVTZ
  Basis Set:
  Basis Set: CC-PVTZ
  Basis Set:
  @DF-RHF Final Energy:  -268.06139863512919
    Total Energy =                       -268.0613986351291942
  Basis Set: CC-PVTZ
  Basis Set:
  Charge       = 0
  Multiplicity = 1
  Basis Set: CC-PVTZ
  Basis Set:

    Orbital Energies (a.u.)
    -----------------------

    Doubly Occupied:

       1A    -20.555407     2A    -20.553040     3A    -11.269207
       4A    -11.268282     5A    -11.267672     6A     -1.391071
       7A     -1.369314     8A     -1.019661     9A     -0.914689
      10A     -0.843126    11A     -0.712236    12A     -0.673747
      13A     -0.663795    14A     -0.641958    15A     -0.594166
      16A     -0.569856    17A     -0.552231    18A     -0.491530
      19A     -0.480031    20A     -0.447232    21A     -0.420522

  @DF-RHF Final Energy:  -268.06141281536213

   => Energetics <=

    Nuclear Repulsion Energy =            190.4693363430177726
    One-Electron Energy =                -743.6639504593715628
    Two-Electron Energy =                 285.1332013009914021
    DFT Exchange-Correlation Energy =       0.0000000000000000
    Empirical Dispersion Energy =           0.0000000000000000
    PCM Polarization Energy =               0.0000000000000000
    EFP Energy =                            0.0000000000000000
    Total Energy =                       -268.0614128153624165
    Molecular point group: c1
  Basis Set: CC-PVTZ
  Basis Set:

  -Total Gradient:
     Atom            X                  Y                   Z
    ------   -----------------  -----------------  -----------------
       1       -0.000038893277    -0.000038994346    -0.000017862274
       2        0.000058349188    -0.000044985919    -0.000033743868
       3       -0.000051441243     0.000156620277     0.000081282121
       4       -0.001687077464     0.002100605931    -0.002372311905
       5        0.000009443239    -0.000019081753    -0.000038964299
       6       -0.000001994740     0.000024205037    -0.000006960927
       7        0.000829659961    -0.000929795084     0.002937101971
       8        0.001158003868    -0.001511262715     0.001359160743
       9        0.000025716464    -0.000057099963    -0.000059323716
      10       -0.000282743953     0.000262754129    -0.001866925984
      11        0.000024012733     0.000013999346    -0.000007113442
      12       -0.000054779249     0.000026160884     0.000021534300
      13        0.000011744470     0.000016874176     0.000004127281

  **** Optimization is complete! (in 3 steps) ****
    Final optimized geometry and variables:
    Molecular point group: c1

    Geometry (in Angstrom), charge = 0, multiplicity = 1:

    H           -2.509428481259    -0.725542368457    -0.629458810696
    O           -2.344203779203    -0.261100742749     0.170517362251
    C           -1.171296858845     0.495060821197     0.058641473403
    C            0.063285221106    -0.383315133396     0.096747336596
    H           -1.166431752599     1.092090007221    -0.848006885564
    H           -1.152605299692     1.174994934630     0.898350979756
    O            1.189038160697     0.433093915320     0.053049865331
    H            0.061556258348    -1.081653884819    -0.740562607793
    H            0.055396668097    -0.981254576184     1.005721395008
    C            2.365686478162    -0.204944657943    -0.320942683547
    H            2.290225077553    -0.619647266035    -1.323310013080
    H            3.157744411410     0.529316868521    -0.305938004403
    H            2.621940902162    -1.008256004981     0.366251416551

  Mulliken Charges: (a.u.)
   Center  Symbol    Alpha    Beta     Spin     Total
       1     H     0.39473  0.39473  0.00000  0.21055
       2     O     4.20142  4.20142  0.00000 -0.40284
       3     C     2.97311  2.97311  0.00000  0.05379
       4     C     2.96577  2.96577  0.00000  0.06846
       5     H     0.46774  0.46774  0.00000  0.06453
       6     H     0.45230  0.45230  0.00000  0.09540
       7     O     4.17654  4.17654  0.00000 -0.35308
       8     H     0.48392  0.48392  0.00000  0.03216
       9     H     0.46544  0.46544  0.00000  0.06913
      10     C     3.03160  3.03160  0.00000 -0.06319
      11     H     0.47082  0.47082  0.00000  0.05835
      12     H     0.44649  0.44649  0.00000  0.10701
      13     H     0.47013  0.47013  0.00000  0.05974

   Total alpha = 21.00000, Total beta = 21.00000, Total charge =  0.00000

*** Psi4 exiting successfully. Buy a developer a beer!
