                              Psi4 1.0.54 Driver

  ==> Input File <==

--------------------------------------------------------------------------
set {
	reference rhf
	basis cc-pvtz
}

set_num_threads( 4 )
memory 2 gb

molecule MOL {
0 1

H	 3.017343	 1.335576	 0.919779
C	 2.358976	 0.522222	 0.633785
C	 0.945561	 1.042991	 0.411159
H	 2.365425	 -0.219386	 1.423024
H	 2.772685	 0.064552	 -0.256224
N	 0.000297	 0.000045	 0.046090
H	 0.609422	 1.501858	 1.330706
H	 0.956957	 1.839858	 -0.337709
C	 -1.359159	 0.315706	 0.454404
C	 0.087574	 -0.360714	 -1.359883
C	 -2.416729	 -0.286720	 -0.460525
H	 -1.478729	 1.390261	 0.442008
H	 -1.539692	 0.003361	 1.486761
C	 -0.331079	 -1.797885	 -1.638642
H	 1.113633	 -0.242933	 -1.679868
H	 -0.501763	 0.323855	 -1.976292
H	 -2.285276	 0.073129	 -1.473515
H	 -2.371743	 -1.368476	 -0.483209
H	 -3.408658	 -0.007405	 -0.121593
H	 0.295038	 -2.485298	 -1.083350
H	 -1.360547	 -1.986715	 -1.360587
H	 -0.231880	 -2.018762	 -2.696085

	symmetry c1
}
set optking {
	frozen_dihedral = ("
		3 6 9 11
	")
}

ee,wfn = optimize('scf', return_wfn=True)
oeprop( wfn, 'DIPOLE', 'QUADRUPOLE', 'MULLIKEN_CHARGES')
f=open( 'psi4out.xyz', 'w' )
f.write( "22  " )
f.write( str(ee) + "\n" )
f.write( MOL.save_string_xyz() )
f.close()
--------------------------------------------------------------------------

    Molecular point group: c1
  Charge       = 0
  Multiplicity = 1
  Basis Set: CC-PVTZ
  Basis Set:
  @DF-RHF Final Energy:  -290.44701695271232
    Total Energy =                       -290.4470169527123744
    Molecular point group: c1
  Basis Set: CC-PVTZ
  Basis Set:
  Basis Set: CC-PVTZ
  Basis Set:
  @DF-RHF Final Energy:  -290.46222574571169
    Total Energy =                       -290.4622257457119758
  Basis Set: CC-PVTZ
  Basis Set:
  Basis Set: CC-PVTZ
  Basis Set:
  @DF-RHF Final Energy:  -290.45960153660252
    Total Energy =                       -290.4596015366025767
  Basis Set: CC-PVTZ
  Basis Set:
  Basis Set: CC-PVTZ
  Basis Set:
  @DF-RHF Final Energy:  -290.46535671710598
    Total Energy =                       -290.4653567171062605
  Basis Set: CC-PVTZ
  Basis Set:
  @DF-RHF Final Energy:  -290.46558243078067
    Total Energy =                       -290.4655824307805005
  @DF-RHF Final Energy:  -290.46581874016158
    Total Energy =                       -290.4658187401616942
  @DF-RHF Final Energy:  -290.46590427350333
    Total Energy =                       -290.4659042735030994
  @DF-RHF Final Energy:  -290.46592815661290
    Total Energy =                       -290.4659281566127902
  @DF-RHF Final Energy:  -290.46595588459184
    Total Energy =                       -290.4659558845924039
  @DF-RHF Final Energy:  -290.46596966687889
    Total Energy =                       -290.4659696668791184
  Basis Set: CC-PVTZ
  Basis Set:
  @DF-RHF Final Energy:  -290.46598027994378
    Total Energy =                       -290.4659802799436079
  Basis Set: CC-PVTZ
  Basis Set:
  Basis Set: CC-PVTZ
  Basis Set:
  @DF-RHF Final Energy:  -290.46598764303064
    Total Energy =                       -290.4659876430307577
  Basis Set: CC-PVTZ
  Basis Set:
  Basis Set: CC-PVTZ
  Basis Set:
  @DF-RHF Final Energy:  -290.46599098205400
    Total Energy =                       -290.4659909820539951
  Basis Set: CC-PVTZ
  Basis Set:
  Charge       = 0
  Multiplicity = 1
  Basis Set: CC-PVTZ
  Basis Set:

    Orbital Energies (a.u.)
    -----------------------

    Doubly Occupied:

       1A    -15.529715     2A    -11.240348     3A    -11.238502
       4A    -11.235986     5A    -11.209673     6A    -11.203153
       7A    -11.199865     8A     -1.218845     9A     -1.027369
      10A     -1.019275    11A     -0.960352    12A     -0.860572
      13A     -0.831794    14A     -0.768524    15A     -0.661167
      16A     -0.635115    17A     -0.623888    18A     -0.593811
      19A     -0.570984    20A     -0.554230    21A     -0.539699
      22A     -0.533784    23A     -0.511537    24A     -0.502952
      25A     -0.487710    26A     -0.476300    27A     -0.467412
      28A     -0.463894    29A     -0.334815

  @DF-RHF Final Energy:  -290.46599105750641

   => Energetics <=

    Nuclear Repulsion Energy =            338.4255582727109299
    One-Electron Energy =               -1062.7805547392670178
    Two-Electron Energy =                 433.8890054090495596
    DFT Exchange-Correlation Energy =       0.0000000000000000
    Empirical Dispersion Energy =           0.0000000000000000
    PCM Polarization Energy =               0.0000000000000000
    EFP Energy =                            0.0000000000000000
    Total Energy =                       -290.4659910575064714
    Molecular point group: c1
  Basis Set: CC-PVTZ
  Basis Set:

  -Total Gradient:
     Atom            X                  Y                   Z
    ------   -----------------  -----------------  -----------------
       1       -0.000001877330    -0.000002519177    -0.000002002080
       2       -0.000000661907    -0.000006231845    -0.000000658655
       3       -0.000993072909     0.002772997645    -0.003301808461
       4       -0.000001179874     0.000001403501     0.000000853053
       5       -0.000002994606     0.000000731499     0.000000260752
       6        0.001288094266    -0.001707545977     0.003619836841
       7       -0.000003573648    -0.000002178533    -0.000003010368
       8       -0.000001766613    -0.000007293880     0.000002612262
       9       -0.000170074176    -0.005174968781     0.001383562755
      10       -0.000008296365     0.000010330696    -0.000001422093
      11       -0.000121956981     0.004118702027    -0.001705599807
      12        0.000005392568     0.000001309692    -0.000000643390
      13        0.000000116507     0.000000129776    -0.000004635025
      14        0.000007598975    -0.000007131069    -0.000003336843
      15       -0.000005372273    -0.000000240558     0.000007339029
      16        0.000012474849    -0.000004829534    -0.000001566903
      17       -0.000000530026    -0.000002741091     0.000004301230
      18       -0.000001493885     0.000003762734    -0.000000509272
      19        0.000009114579     0.000000232628    -0.000000261678
      20       -0.000004083148     0.000007368603    -0.000001501575
      21       -0.000002254967    -0.000005395539     0.000001285298
      22       -0.000003603038     0.000004107185     0.000006904933

  **** Optimization is complete! (in 14 steps) ****
    Final optimized geometry and variables:
    Molecular point group: c1

    Geometry (in Angstrom), charge = 0, multiplicity = 1:

    H            3.051764020908     1.314560791166     1.267960413260
    C            2.417177932553     0.556387849668     0.821628139714
    C            0.967231524699     1.022228332879     0.824648503207
    H            2.517860420112    -0.356861928910     1.395396161912
    H            2.790766590209     0.366144295999    -0.176732389015
    N            0.037484995866     0.040990357964     0.292296119315
    H            0.688578235461     1.215827848195     1.853394604726
    H            0.881587843383     1.977910046352     0.298912292687
    C           -1.300489574465     0.237991740649     0.859775970515
    C            0.149361764974    -0.117700958835    -1.153261575882
    C           -2.503442574379    -0.147193042839     0.006661605111
    H           -1.435109298158     1.289175070857     1.117850264763
    H           -1.349821722603    -0.309631694855     1.795415295800
    C            0.238853646936    -1.574896429223    -1.591721910449
    H            1.048883429806     0.384519116895    -1.482569402907
    H           -0.659345235791     0.375422523305    -1.681948796616
    H           -2.611039347149     0.478717327015    -0.868051722309
    H           -2.474626003294    -1.180703751055    -0.313073996372
    H           -3.396456013987    -0.017554822853     0.607267744700
    H            1.099587871418    -2.050962852066    -1.137803643118
    H           -0.638624301238    -2.137365128044    -1.300858502258
    H            0.337934264280    -1.642701085510    -2.670832609094

  Mulliken Charges: (a.u.)
   Center  Symbol    Alpha    Beta     Spin     Total
       1     H     0.45152  0.45152  0.00000  0.09696
       2     C     3.14529  3.14529  0.00000 -0.29059
       3     C     3.03769  3.03769  0.00000 -0.07537
       4     H     0.45163  0.45163  0.00000  0.09673
       5     H     0.45586  0.45586  0.00000  0.08828
       6     N     3.62397  3.62397  0.00000 -0.24795
       7     H     0.45353  0.45353  0.00000  0.09293
       8     H     0.46664  0.46664  0.00000  0.06672
       9     C     3.02460  3.02460  0.00000 -0.04920
      10     C     3.05992  3.05992  0.00000 -0.11984
      11     C     3.16340  3.16340  0.00000 -0.32679
      12     H     0.47036  0.47036  0.00000  0.05928
      13     H     0.45496  0.45496  0.00000  0.09008
      14     C     3.13306  3.13306  0.00000 -0.26613
      15     H     0.44571  0.44571  0.00000  0.10858
      16     H     0.45257  0.45257  0.00000  0.09485
      17     H     0.45114  0.45114  0.00000  0.09772
      18     H     0.44937  0.44937  0.00000  0.10126
      19     H     0.44374  0.44374  0.00000  0.11252
      20     H     0.45173  0.45173  0.00000  0.09654
      21     H     0.45534  0.45534  0.00000  0.08932
      22     H     0.45795  0.45795  0.00000  0.08409

   Total alpha = 29.00000, Total beta = 29.00000, Total charge =  0.00000

*** Psi4 exiting successfully. Buy a developer a beer!
