                              Psi4 1.0.54 Driver

  ==> Input File <==

--------------------------------------------------------------------------
set {
	reference rhf
	basis cc-pvtz
}

set_num_threads( 4 )
memory 2 gb

molecule MOL {
0 1

H	 2.234499	 -4.879904	 1.126510
O	 3.030196	 -4.676954	 0.670980
C	 2.749800	 -4.296154	 -0.650248
C	 2.118878	 -2.916316	 -0.762810
H	 3.699725	 -4.302950	 -1.167527
H	 2.115260	 -5.037416	 -1.132263
C	 0.728105	 -2.809967	 -0.141288
H	 2.783304	 -2.193799	 -0.298414
H	 2.061793	 -2.660144	 -1.818043
C	 0.113298	 -1.420414	 -0.302504
H	 0.786466	 -3.059138	 0.912994
H	 0.070924	 -3.546204	 -0.601022
C	 -1.311023	 -1.277304	 0.237018
H	 0.755275	 -0.687849	 0.180653
H	 0.107279	 -1.166277	 -1.358840
C	 -2.041121	 -0.006551	 -0.194127
H	 -1.888548	 -2.136293	 -0.093331
H	 -1.289731	 -1.328757	 1.323321
C	 -3.489218	 0.042606	 0.286507
H	 -2.022185	 0.066287	 -1.279394
H	 -1.518764	 0.869305	 0.178730
C	 -4.219984	 1.311773	 -0.139038
H	 -4.022855	 -0.824300	 -0.093339
H	 -3.510372	 -0.038577	 1.370031
H	 -4.244251	 1.405725	 -1.219696
H	 -5.244345	 1.313233	 0.215630
H	 -3.732090	 2.196311	 0.257073

	symmetry c1
}
set optking {
	frozen_dihedral = ("
		14 10 13 16
	")
}

ee,wfn = optimize('scf', return_wfn=True)
oeprop( wfn, 'DIPOLE', 'QUADRUPOLE', 'MULLIKEN_CHARGES')
f=open( 'psi4out.xyz', 'w' )
f.write( "27  " )
f.write( str(ee) + "\n" )
f.write( MOL.save_string_xyz() )
f.close()
--------------------------------------------------------------------------

    Molecular point group: c1
  Charge       = 0
  Multiplicity = 1
  Basis Set: CC-PVTZ
  Basis Set:
  @DF-RHF Final Energy:  -388.42858204571860
    Total Energy =                       -388.4285820457181444
    Molecular point group: c1
  Basis Set: CC-PVTZ
  Basis Set:
  Basis Set: CC-PVTZ
  Basis Set:
  @DF-RHF Final Energy:  -388.42891179501771
    Total Energy =                       -388.4289117950175978
  Basis Set: CC-PVTZ
  Basis Set:
  Basis Set: CC-PVTZ
  Basis Set:
  @DF-RHF Final Energy:  -388.42914337142378
    Total Energy =                       -388.4291433714236064
  Basis Set: CC-PVTZ
  Basis Set:
  Basis Set: CC-PVTZ
  Basis Set:
  @DF-RHF Final Energy:  -388.42915200869811
    Total Energy =                       -388.4291520086984519
  Basis Set: CC-PVTZ
  Basis Set:
  Basis Set: CC-PVTZ
  Basis Set:
  @DF-RHF Final Energy:  -388.42915517044088
    Total Energy =                       -388.4291551704409358
  Basis Set: CC-PVTZ
  Basis Set:
  Charge       = 0
  Multiplicity = 1
  Basis Set: CC-PVTZ
  Basis Set:

    Orbital Energies (a.u.)
    -----------------------

    Doubly Occupied:

       1A    -20.545181     2A    -11.264955     3A    -11.217289
       4A    -11.214385     5A    -11.213561     6A    -11.213305
       7A    -11.212892     8A    -11.211731     9A    -11.206946
      10A     -1.363129    11A     -1.096049    12A     -1.063575
      13A     -1.013025    14A     -0.951310    15A     -0.883220
      16A     -0.820628    17A     -0.792378    18A     -0.789375
      19A     -0.696633    20A     -0.660460    21A     -0.634245
      22A     -0.615706    23A     -0.603487    24A     -0.587271
      25A     -0.575283    26A     -0.556733    27A     -0.535278
      28A     -0.524350    29A     -0.510898    30A     -0.494202
      31A     -0.480777    32A     -0.474902    33A     -0.469150
      34A     -0.462987    35A     -0.460907    36A     -0.444642
      37A     -0.422559

  @DF-RHF Final Energy:  -388.42915547335281

   => Energetics <=

    Nuclear Repulsion Energy =            451.8042177849057452
    One-Electron Energy =               -1421.8999446627281031
    Two-Electron Energy =                 581.6665714044693232
    DFT Exchange-Correlation Energy =       0.0000000000000000
    Empirical Dispersion Energy =           0.0000000000000000
    PCM Polarization Energy =               0.0000000000000000
    EFP Energy =                            0.0000000000000000
    Total Energy =                       -388.4291554733530347
    Molecular point group: c1
  Basis Set: CC-PVTZ
  Basis Set:

  -Total Gradient:
     Atom            X                  Y                   Z
    ------   -----------------  -----------------  -----------------
       1        0.000002262519    -0.000005930101    -0.000002161104
       2        0.000017146936     0.000003970630     0.000024099997
       3       -0.000033749735    -0.000004034249    -0.000012903706
       4        0.000008117273     0.000000563305     0.000009488327
       5        0.000010644510    -0.000002196406     0.000000010014
       6       -0.000001969360    -0.000003658599    -0.000008614899
       7        0.000018977328    -0.000011354853     0.000000200586
       8        0.000004670853     0.000005039359     0.000002311042
       9        0.000000459993     0.000005962866    -0.000004400311
      10       -0.000863220468     0.001521101540    -0.002448843558
      11        0.000001450440     0.000005093931     0.000005418822
      12       -0.000011346958     0.000000319586    -0.000008917264
      13        0.000904755399     0.000698968864     0.002183216158
      14        0.000510017473    -0.001480710920     0.001548461481
      15       -0.000001148733     0.000003282207     0.000006069380
      16       -0.000592852024    -0.000737299543    -0.001305387418
      17        0.000005929813    -0.000003057487     0.000004359839
      18        0.000000987998     0.000002860951    -0.000001481418
      19        0.000010005537     0.000011592040     0.000015873108
      20        0.000008955108    -0.000003751937    -0.000006432753
      21        0.000000924808     0.000001800443     0.000007753998
      22        0.000006429738    -0.000009252773    -0.000012862936
      23       -0.000000508835    -0.000002283557     0.000000872270
      24        0.000000050788     0.000002411585     0.000006135647
      25        0.000000085172     0.000004288396    -0.000009819419
      26       -0.000010242434    -0.000005109459     0.000001107304
      27        0.000003166865     0.000001384179     0.000006446815

  **** Optimization is complete! (in 6 steps) ****
    Final optimized geometry and variables:
    Molecular point group: c1

    Geometry (in Angstrom), charge = 0, multiplicity = 1:

    H            2.354088401892    -3.066173389310     1.219028478557
    O            3.182919253745    -2.853922467519     0.832139835690
    C            3.006713323025    -2.440513090064    -0.497137278675
    C            2.375071277125    -1.062365259579    -0.624572715131
    H            3.995261572358    -2.427901110263    -0.935959183337
    H            2.419202642865    -3.172837571939    -1.047535923504
    C            0.940026582632    -0.980390583433    -0.110332222572
    H            2.995973785605    -0.347275696842    -0.093530249533
    H            2.396615119903    -0.780671047766    -1.674714659241
    C            0.312108390289     0.399295714338    -0.297000380174
    H            0.915230653956    -1.234047218265     0.946456652157
    H            0.330989381266    -1.722815550072    -0.622182258900
    C           -1.104959785969     0.496829033598     0.264184426414
    H            0.943574652756     1.134259090729     0.195404150100
    H            0.304885489727     0.649106091212    -1.354505388607
    C           -1.834972242793     1.772262343444    -0.147264077695
    H           -1.682884100862    -0.360658809294    -0.073198480586
    H           -1.068097863514     0.429569550833     1.348420327473
    C           -3.238787129196     1.885773094818     0.440150146273
    H           -1.896433397252     1.812773512877    -1.232062454275
    H           -1.249982736948     2.637948467127     0.155598205167
    C           -3.966944725571     3.155975812226     0.013350760660
    H           -3.823061023730     1.019061854158     0.142785667360
    H           -3.177635952625     1.853326148175     1.524537253864
    H           -4.074915685192     3.201597504803    -1.065311176347
    H           -4.959283337062     3.204886114893     0.446864048080
    H           -3.425028062088     4.041919326824     0.327382008786

  Mulliken Charges: (a.u.)
   Center  Symbol    Alpha    Beta     Spin     Total
       1     H     0.39228  0.39228  0.00000  0.21544
       2     O     4.20583  4.20583  0.00000 -0.41166
       3     C     2.97998  2.97998  0.00000  0.04004
       4     C     3.08900  3.08900  0.00000 -0.17801
       5     H     0.44858  0.44858  0.00000  0.10283
       6     H     0.46987  0.46987  0.00000  0.06027
       7     C     3.10198  3.10198  0.00000 -0.20397
       8     H     0.45091  0.45091  0.00000  0.09819
       9     H     0.45602  0.45602  0.00000  0.08797
      10     C     3.08950  3.08950  0.00000 -0.17899
      11     H     0.45749  0.45749  0.00000  0.08501
      12     H     0.45371  0.45371  0.00000  0.09257
      13     C     3.08925  3.08925  0.00000 -0.17849
      14     H     0.45238  0.45238  0.00000  0.09524
      15     H     0.45404  0.45404  0.00000  0.09193
      16     C     3.08646  3.08646  0.00000 -0.17291
      17     H     0.45613  0.45613  0.00000  0.08774
      18     H     0.45360  0.45360  0.00000  0.09281
      19     C     3.08436  3.08436  0.00000 -0.16871
      20     H     0.45510  0.45510  0.00000  0.08979
      21     H     0.45487  0.45487  0.00000  0.09025
      22     C     3.15032  3.15032  0.00000 -0.30064
      23     H     0.45495  0.45495  0.00000  0.09010
      24     H     0.45460  0.45460  0.00000  0.09080
      25     H     0.45531  0.45531  0.00000  0.08937
      26     H     0.44845  0.44845  0.00000  0.10309
      27     H     0.45503  0.45503  0.00000  0.08994

   Total alpha = 37.00000, Total beta = 37.00000, Total charge = -0.00000

*** Psi4 exiting successfully. Buy a developer a beer!
