  ==> Input File <==

--------------------------------------------------------------------------
set {
	reference rhf
	basis 6-31G*
}

set_num_threads( 1 )
memory 2 gb

molecule MOL {
0 1

H	 1.257160	 -1.344984	 1.880582
O	 0.578748	 -0.782455	 1.535607
C	 1.135793	 0.118896	 0.612333
C	 0.031547	 1.023609	 0.088541
H	 1.584370	 -0.418540	 -0.221233
H	 1.923257	 0.705906	 1.079689
C	 -1.134819	 0.293262	 -0.585751
H	 0.474374	 1.714721	 -0.623187
H	 -0.338529	 1.620940	 0.920081
C	 -1.917817	 -0.639439	 0.339494
H	 -0.758119	 -0.268455	 -1.433105
H	 -1.813832	 1.041889	 -0.986690
H	 -2.777680	 -1.057197	 -0.174994
H	 -1.310268	 -1.471279	 0.680599
H	 -2.283753	 -0.111424	 1.216626

	symmetry c1
}
set optking {
	frozen_dihedral = ("
		8 4 7 11,
		1 2 3 4
	")
}

ee = energy('scf')
oeprop('DIPOLE', 'QUADRUPOLE', 'MULLIKEN_CHARGES')
f=open( 'psi4out.xyz', 'w' )
f.write( "15  " )
f.write( str(ee) + "\n" )
f.write( MOL.save_string_xyz() )
f.close()
--------------------------------------------------------------------------

    Molecular point group: c1

    Geometry (in Angstrom), charge = 0, multiplicity = 1:

       Center              X                  Y                   Z               Mass
    ------------   -----------------  -----------------  -----------------  -----------------
           H          1.492618872710    -1.310631919628     1.443528005009     1.007825032070
           O          0.814206872710    -0.748102919628     1.098553005009    15.994914619560
           C          1.371251872710     0.153248080372     0.175279005009    12.000000000000
           C          0.267005872710     1.057961080372    -0.348512994991    12.000000000000
           H          1.819828872710    -0.384187919628    -0.658286994991     1.007825032070
           H          2.158715872710     0.740258080372     0.642635005009     1.007825032070
           C         -0.899360127290     0.327614080372    -1.022804994991    12.000000000000
           H          0.709832872710     1.749073080372    -1.060240994991     1.007825032070
           H         -0.103070127290     1.655292080372     0.483027005009     1.007825032070
           C         -1.682358127290    -0.605086919628    -0.097559994991    12.000000000000
           H         -0.522660127290    -0.234102919628    -1.870158994991     1.007825032070
           H         -1.578373127290     1.076241080372    -1.423743994991     1.007825032070
           H         -2.542221127290    -1.022844919628    -0.612047994991     1.007825032070
           H         -1.074809127290    -1.436926919628     0.243545005009     1.007825032070
           H         -2.048294127290    -0.077071919628     0.779572005009     1.007825032070

  Charge       = 0
  Multiplicity = 1
  Basis Set: 6-31G*
  Basis Set:

    Orbital Energies (a.u.)
    -----------------------

    Doubly Occupied:

       1A    -20.554438     2A    -11.269361     3A    -11.212781
       4A    -11.208748     5A    -11.187091     6A     -1.363182
       7A     -1.060646     8A     -0.967596     9A     -0.859199
      10A     -0.776653    11A     -0.707041    12A     -0.650864
      13A     -0.599848    14A     -0.574004    15A     -0.546576
      16A     -0.531882    17A     -0.515063    18A     -0.466314
      19A     -0.464545    20A     -0.446725    21A     -0.425288

  @DF-RHF Final Energy:  -232.13876555416115

   => Energetics <=

    Nuclear Repulsion Energy =            195.0021496695530629
    One-Electron Energy =                -701.5060948975157089
    Two-Electron Energy =                 274.3651796738008670
    DFT Exchange-Correlation Energy =       0.0000000000000000
    Empirical Dispersion Energy =           0.0000000000000000
    PCM Polarization Energy =               0.0000000000000000
    EFP Energy =                            0.0000000000000000
    Total Energy =                       -232.1387655541617505

  Mulliken Charges: (a.u.)
   Center  Symbol    Alpha    Beta     Spin     Total
       1     H     0.28070  0.28070  0.00000  0.43860
       2     O     4.36789  4.36789  0.00000 -0.73579
       3     C     2.99620  2.99620  0.00000  0.00759
       4     C     3.16232  3.16232  0.00000 -0.32465
       5     H     0.43274  0.43274  0.00000  0.13452
       6     H     0.42864  0.42864  0.00000  0.14271
       7     C     3.15276  3.15276  0.00000 -0.30552
       8     H     0.42226  0.42226  0.00000  0.15548
       9     H     0.41714  0.41714  0.00000  0.16571
      10     C     3.23499  3.23499  0.00000 -0.46998
      11     H     0.42573  0.42573  0.00000  0.14853
      12     H     0.42205  0.42205  0.00000  0.15589
      13     H     0.42969  0.42969  0.00000  0.14062
      14     H     0.40205  0.40205  0.00000  0.19591
      15     H     0.42482  0.42482  0.00000  0.15036

   Total alpha = 21.00000, Total beta = 21.00000, Total charge =  0.00000
