  ==> Input File <==

--------------------------------------------------------------------------
set {
	reference rhf
	basis cc-pvtz
}

set_num_threads( 4 )
memory 2 gb

molecule MOL {
0 1

H	 0.900624	 -0.749983	 2.144203
C	 -0.048471	 -0.826000	 1.634153
O	 -0.000000	 0.000000	 0.518769
H	 -0.213346	 -1.864417	 1.354221
H	 -0.838926	 -0.525311	 2.318713
C	 -1.165153	 0.000000	 -0.236961
H	 -1.229451	 0.882440	 -0.870223
H	 -2.002557	 0.000000	 0.445289
H	 -1.229451	 -0.882440	 -0.870223

	symmetry c1
}
set optking {
	frozen_dihedral = ("
		2 3 6 7
	")
}

ee = optimize('scf')
oeprop('DIPOLE', 'QUADRUPOLE', 'MULLIKEN_CHARGES')
f=open( 'psi4out.xyz', 'w' )
f.write( "9  " )
f.write( str(ee) + "\n" )
f.write( MOL.save_string_xyz() )
f.close()
--------------------------------------------------------------------------

    Molecular point group: c1
  Charge       = 0
  Multiplicity = 1
  Basis Set: CC-PVTZ
  Basis Set:
  @DF-RHF Final Energy:  -154.12529437973367
    Total Energy =                       -154.1252943797337593
    Molecular point group: c1
  Basis Set: CC-PVTZ
  Basis Set:
  Basis Set: CC-PVTZ
  Basis Set:
  @DF-RHF Final Energy:  -154.12608858773086
    Total Energy =                       -154.1260885877308624
  Basis Set: CC-PVTZ
  Basis Set:
  Basis Set: CC-PVTZ
  Basis Set:
  @DF-RHF Final Energy:  -154.12628360208444
    Total Energy =                       -154.1262836020842997
  Basis Set: CC-PVTZ
  Basis Set:
  Charge       = 0
  Multiplicity = 1
  Basis Set: CC-PVTZ
  Basis Set:

    Orbital Energies (a.u.)
    -----------------------

    Doubly Occupied:

       1A    -20.549537     2A    -11.263327     3A    -11.263045
       4A     -1.381731     5A     -0.975872     6A     -0.872727
       7A     -0.663316     8A     -0.655284     9A     -0.646544
      10A     -0.554275    11A     -0.528382    12A     -0.476362
      13A     -0.419394

  @DF-RHF Final Energy:  -154.12628479493941

   => Energetics <=

    Nuclear Repulsion Energy =             84.8006411790916417
    One-Electron Energy =                -377.3542621602929898
    Two-Electron Energy =                 138.4273361862617833
    DFT Exchange-Correlation Energy =       0.0000000000000000
    Empirical Dispersion Energy =           0.0000000000000000
    PCM Polarization Energy =               0.0000000000000000
    EFP Energy =                            0.0000000000000000
    Total Energy =                       -154.1262847949395507
    Molecular point group: c1
  Basis Set: CC-PVTZ
  Basis Set:

  -Total Gradient:
     Atom            X                  Y                   Z
    ------   -----------------  -----------------  -----------------
       1        0.000005480533     0.000061508598    -0.000074387410
       2       -0.000877180871     0.001463728626     0.001033588888
       3        0.000762168431    -0.001824648502    -0.001171780296
       4        0.000015059630    -0.000001407058     0.000004108096
       5       -0.000001223803     0.000017583882     0.000006043390
       6        0.001128131034    -0.000917422745    -0.001702536194
       7       -0.001098651465     0.001210483099     0.001842340534
       8        0.000010042576    -0.000008147346     0.000033234376
       9        0.000056173935    -0.000001678554     0.000029388616

  **** Optimization is complete! (in 4 steps) ****
    Final optimized geometry and variables:
    Molecular point group: c1

    Geometry (in Angstrom), charge = 0, multiplicity = 1:

    H            1.336817158171    -0.458115863982     1.488686149410
    C            0.380545878986    -0.538927638200     0.992458325295
    O            0.412193469170     0.284006612505    -0.125898793609
    H            0.215803760792    -1.580246200446     0.721981524861
    H           -0.401234865754    -0.236191047946     1.685436388202
    C           -0.756256055514     0.278312924439    -0.878917487441
    H           -0.769167942460     1.173606234780    -1.484205044289
    H           -1.638618852634     0.292536104550    -0.242791133204
    H           -0.811892028638    -0.595885516735    -1.522913972844

  Mulliken Charges: (a.u.)
   Center  Symbol    Alpha    Beta     Spin     Total
       1     H     0.44880  0.44880  0.00000  0.10240
       2     C     3.02177  3.02177  0.00000 -0.04354
       3     O     4.16858  4.16858  0.00000 -0.33717
       4     H     0.47380  0.47380  0.00000  0.05241
       5     H     0.47206  0.47206  0.00000  0.05587
       6     C     3.02035  3.02035  0.00000 -0.04071
       7     H     0.45011  0.45011  0.00000  0.09978
       8     H     0.47600  0.47600  0.00000  0.04799
       9     H     0.46852  0.46852  0.00000  0.06296

   Total alpha = 13.00000, Total beta = 13.00000, Total charge =  0.00000
