                              Psi4 1.0.54 Driver

  ==> Input File <==

--------------------------------------------------------------------------
set {
	reference rhf
	basis cc-pvtz
}

set_num_threads( 4 )
memory 2 gb

molecule MOL {
0 1

H	 2.726095	 -0.374101	 0.856034
N	 2.326826	 -0.066186	 0.000000
C	 0.934676	 -0.005420	 0.000000
H	 2.775420	 0.755926	 -0.331539
C	 0.226436	 -0.001077	 -1.195129
C	 0.226436	 -0.001077	 1.195129
H	 0.759091	 -0.011439	 -2.128123
C	 -1.153391	 0.009141	 -1.189028
H	 0.759091	 -0.011439	 2.128123
C	 -1.153391	 0.009141	 1.189028
H	 -1.680905	 0.012964	 -2.124348
C	 -1.857876	 0.014675	 0.000000
H	 -1.680905	 0.012964	 2.124348
H	 -2.930222	 0.022904	 0.000000

	symmetry c1
}
set optking {
	frozen_dihedral = ("
		1 2 3 5
	")
}

ee,wfn = optimize('scf', return_wfn=True)
oeprop( wfn, 'DIPOLE', 'QUADRUPOLE', 'MULLIKEN_CHARGES')
f=open( 'psi4out.xyz', 'w' )
f.write( "14  " )
f.write( str(ee) + "\n" )
f.write( MOL.save_string_xyz() )
f.close()
--------------------------------------------------------------------------

    Molecular point group: c1
  Charge       = 0
  Multiplicity = 1
  Basis Set: CC-PVTZ
  Basis Set:
  @DF-RHF Final Energy:  -285.82965623655355
    Total Energy =                       -285.8296562365537739
    Molecular point group: c1
  Basis Set: CC-PVTZ
  Basis Set:
  Basis Set: CC-PVTZ
  Basis Set:
  @DF-RHF Final Energy:  -285.83007134268269
    Total Energy =                       -285.8300713426831408
  Basis Set: CC-PVTZ
  Basis Set:
  Basis Set: CC-PVTZ
  Basis Set:
  @DF-RHF Final Energy:  -285.83012003557246
    Total Energy =                       -285.8301200355721221
  Basis Set: CC-PVTZ
  Basis Set:
  Basis Set: CC-PVTZ
  Basis Set:
  @DF-RHF Final Energy:  -285.83012476773041
    Total Energy =                       -285.8301247677303536
  Basis Set: CC-PVTZ
  Basis Set:
  Basis Set: CC-PVTZ
  Basis Set:
  @DF-RHF Final Energy:  -285.83012666609943
    Total Energy =                       -285.8301266660992610
  Basis Set: CC-PVTZ
  Basis Set:
  Charge       = 0
  Multiplicity = 1
  Basis Set: CC-PVTZ
  Basis Set:

    Orbital Energies (a.u.)
    -----------------------

    Doubly Occupied:

       1A    -15.547392     2A    -11.265111     3A    -11.227286
       4A    -11.226523     5A    -11.219423     6A    -11.217225
       7A    -11.216845     8A     -1.216949     9A     -1.130694
      10A     -1.014152    11A     -0.988727    12A     -0.831074
      13A     -0.812037    14A     -0.706774    15A     -0.681455
      16A     -0.651391    17A     -0.615414    18A     -0.595551
      19A     -0.583633    20A     -0.515399    21A     -0.505420
      22A     -0.491113    23A     -0.431929    24A     -0.335739
      25A     -0.307656

  @DF-RHF Final Energy:  -285.83012712657325

   => Energetics <=

    Nuclear Repulsion Energy =            273.3615842680598575
    One-Electron Energy =                -927.7135958292254827
    Two-Electron Energy =                 368.5218844345921525
    DFT Exchange-Correlation Energy =       0.0000000000000000
    Empirical Dispersion Energy =           0.0000000000000000
    PCM Polarization Energy =               0.0000000000000000
    EFP Energy =                            0.0000000000000000
    Total Energy =                       -285.8301271265735295
    Molecular point group: c1
  Basis Set: CC-PVTZ
  Basis Set:

  -Total Gradient:
     Atom            X                  Y                   Z
    ------   -----------------  -----------------  -----------------
       1       -0.000213681390    -0.004195136534    -0.001419807210
       2        0.000207462104     0.003826468818     0.001907828035
       3        0.000125761270     0.003738659901    -0.000485753555
       4       -0.000003140529    -0.000034535966    -0.000012485236
       5       -0.000259585103    -0.003342097322     0.000021728988
       6        0.000166883080     0.000015121021    -0.000007801784
       7        0.000019058983     0.000007313853     0.000008562298
       8        0.000115076500     0.000018935439    -0.000056119424
       9       -0.000016211008    -0.000009584208    -0.000013637422
      10       -0.000108358060    -0.000037170190    -0.000079097502
      11       -0.000012810348    -0.000006582974     0.000012312797
      12       -0.000000923802     0.000007763982     0.000121406519
      13       -0.000016103536     0.000011020101    -0.000002147330
      14       -0.000003428162    -0.000000175921     0.000005010825

  **** Optimization is complete! (in 6 steps) ****
    Final optimized geometry and variables:
    Molecular point group: c1

    Geometry (in Angstrom), charge = 0, multiplicity = 1:

    H            2.741327711038    -0.365027137007     0.834740758011
    N            2.337776017554    -0.063330451984    -0.021433518667
    C            0.930660272142     0.002927050213     0.004391991362
    H            2.784730007037     0.754706406086    -0.368237932463
    C            0.228783220582    -0.004126323907    -1.193859650864
    C            0.219960184962    -0.001501140981     1.193876511612
    H            0.774507242782    -0.038790096038    -2.117291096388
    C           -1.150057671007     0.023786562351    -1.196520400595
    H            0.749741481247    -0.002579599533     2.128515257837
    C           -1.163231519989    -0.001224831459     1.185885470844
    H           -1.676423267781     0.026678645480    -2.132303756021
    C           -1.856934334902     0.020831503363    -0.006676200807
    H           -1.696289474772    -0.008410269800     2.117867178315
    H           -2.929658716640     0.028835101931    -0.011860374344

  Mulliken Charges: (a.u.)
   Center  Symbol    Alpha    Beta     Spin     Total
       1     H     0.42060  0.42060  0.00000  0.15880
       2     N     3.69889  3.69889  0.00000 -0.39778
       3     C     2.88365  2.88365  0.00000  0.23270
       4     H     0.41677  0.41677  0.00000  0.16646
       5     C     3.11266  3.11266  0.00000 -0.22532
       6     C     3.11636  3.11636  0.00000 -0.23272
       7     H     0.42378  0.42378  0.00000  0.15244
       8     C     3.06288  3.06288  0.00000 -0.12576
       9     H     0.43149  0.43149  0.00000  0.13701
      10     C     3.06615  3.06615  0.00000 -0.13230
      11     H     0.42408  0.42408  0.00000  0.15185
      12     C     3.09374  3.09374  0.00000 -0.18747
      13     H     0.42437  0.42437  0.00000  0.15126
      14     H     0.42458  0.42458  0.00000  0.15083

   Total alpha = 25.00000, Total beta = 25.00000, Total charge = -0.00000

*** Psi4 exiting successfully. Buy a developer a beer!
