                              Psi4 1.0.54 Driver

  ==> Input File <==

--------------------------------------------------------------------------
set {
	reference rhf
	basis cc-pvtz
}

set_num_threads( 4 )
memory 2 gb

molecule MOL {
0 1

H	 2.106690	 0.138578	 -1.017333
O	 2.063695	 -0.083403	 -0.105237
C	 0.742924	 0.005675	 0.350750
H	 0.731380	 0.039219	 1.440080
C	 -0.064076	 -1.193495	 -0.124425
C	 -0.047832	 1.190568	 -0.194462
H	 0.194729	 -1.376165	 -1.161308
H	 0.163013	 -2.094508	 0.429933
C	 -1.533112	 -0.752002	 0.006102
H	 0.148003	 1.266545	 -1.259275
H	 0.226235	 2.136493	 0.259722
C	 -1.506634	 0.799189	 0.067162
H	 -2.124360	 -1.110499	 -0.826089
H	 -1.983103	 -1.158030	 0.903403
H	 -2.183808	 1.252169	 -0.644677
H	 -1.813926	 1.138698	 1.049457

	symmetry c1
}
set optking {
	frozen_dihedral = ("
		1 2 3 6
	")
}

ee,wfn = optimize('scf', return_wfn=True)
oeprop( wfn, 'DIPOLE', 'QUADRUPOLE', 'MULLIKEN_CHARGES')
f=open( 'psi4out.xyz', 'w' )
f.write( "16  " )
f.write( str(ee) + "\n" )
f.write( MOL.save_string_xyz() )
f.close()
--------------------------------------------------------------------------

    Molecular point group: c1
  Charge       = 0
  Multiplicity = 1
  Basis Set: CC-PVTZ
  Basis Set:
  @DF-RHF Final Energy:  -270.11443956845784
    Total Energy =                       -270.1144395684575557
    Molecular point group: c1
  Basis Set: CC-PVTZ
  Basis Set:
  Basis Set: CC-PVTZ
  Basis Set:
  @DF-RHF Final Energy:  -270.11586330245456
    Total Energy =                       -270.1158633024546702
  Basis Set: CC-PVTZ
  Basis Set:
  Basis Set: CC-PVTZ
  Basis Set:
  @DF-RHF Final Energy:  -270.11609266970936
    Total Energy =                       -270.1160926697096443
  Basis Set: CC-PVTZ
  Basis Set:
  Basis Set: CC-PVTZ
  Basis Set:
  @DF-RHF Final Energy:  -270.11609892794877
    Total Energy =                       -270.1160989279491105
  Basis Set: CC-PVTZ
  Basis Set:
  @DF-RHF Final Energy:  -270.11610199512563
    Total Energy =                       -270.1161019951257458
  @DF-RHF Final Energy:  -270.11611104829137
    Total Energy =                       -270.1161110482913159
  Basis Set: CC-PVTZ
  Basis Set:
  @DF-RHF Final Energy:  -270.11611834702080
    Total Energy =                       -270.1161183470206311
  Basis Set: CC-PVTZ
  Basis Set:
  Basis Set: CC-PVTZ
  Basis Set:
  @DF-RHF Final Energy:  -270.11612654302769
    Total Energy =                       -270.1161265430275762
  Basis Set: CC-PVTZ
  Basis Set:
  Basis Set: CC-PVTZ
  Basis Set:
  @DF-RHF Final Energy:  -270.11613259145997
    Total Energy =                       -270.1161325914598024
  Basis Set: CC-PVTZ
  Basis Set:
  Charge       = 0
  Multiplicity = 1
  Basis Set: CC-PVTZ
  Basis Set:

    Orbital Energies (a.u.)
    -----------------------

    Doubly Occupied:

       1A    -20.544988     2A    -11.267708     3A    -11.217728
       4A    -11.215906     5A    -11.215530     6A    -11.209488
       7A     -1.365776     8A     -1.116758     9A     -0.969647
      10A     -0.949787    11A     -0.805271    12A     -0.783581
      13A     -0.683418    14A     -0.663921    15A     -0.609714
      16A     -0.590444    17A     -0.579204    18A     -0.547241
      19A     -0.506418    20A     -0.484696    21A     -0.473626
      22A     -0.459280    23A     -0.455716    24A     -0.415189

  @DF-RHF Final Energy:  -270.11613320862284

   => Energetics <=

    Nuclear Repulsion Energy =            255.5035697251031763
    One-Electron Energy =                -872.9773328638277690
    Two-Electron Energy =                 347.3576299301020072
    DFT Exchange-Correlation Energy =       0.0000000000000000
    Empirical Dispersion Energy =           0.0000000000000000
    PCM Polarization Energy =               0.0000000000000000
    EFP Energy =                            0.0000000000000000
    Total Energy =                       -270.1161332086226139
    Molecular point group: c1
  Basis Set: CC-PVTZ
  Basis Set:

  -Total Gradient:
     Atom            X                  Y                   Z
    ------   -----------------  -----------------  -----------------
       1        0.000172471023     0.001294076928     0.000460728423
       2       -0.000317517597    -0.001797525222    -0.000891647706
       3        0.000346595404     0.000930608942     0.001224262433
       4        0.000001772123     0.000005854176     0.000013208627
       5       -0.000019575071     0.000049091906    -0.000058084841
       6       -0.000243225082    -0.000475099413    -0.000739759107
       7        0.000017744530    -0.000000975013    -0.000016381807
       8       -0.000001424633    -0.000014901850    -0.000017299969
       9        0.000066334298    -0.000068879411     0.000041821944
      10        0.000003558391    -0.000002021252    -0.000015276892
      11        0.000003287805     0.000016004243    -0.000017406114
      12        0.000051322008     0.000049010154    -0.000029873133
      13       -0.000011068860    -0.000039557783     0.000011610988
      14       -0.000032418605    -0.000013119414     0.000020669597
      15       -0.000024054181     0.000055023300     0.000002957167
      16       -0.000013801557     0.000012409707     0.000010470389

  **** Optimization is complete! (in 10 steps) ****
    Final optimized geometry and variables:
    Molecular point group: c1

    Geometry (in Angstrom), charge = 0, multiplicity = 1:

    H            2.174874211425     0.234633752203    -0.959545170081
    O            2.092768635083    -0.071205548983    -0.074276368765
    C            0.752556026187    -0.030336012607     0.323876442123
    H            0.770887463448    -0.053357751630     1.408164431598
    C           -0.100931726500    -1.187669164579    -0.186230905490
    C           -0.025322182750     1.195953350508    -0.145935154802
    H            0.060906009997    -1.291905116018    -1.256221455176
    H            0.155101157727    -2.133281216323     0.273591917270
    C           -1.537191217810    -0.735996161527     0.102349361244
    H            0.180279682786     1.350772240402    -1.203226736424
    H            0.261368547481     2.101445663455     0.372994543968
    C           -1.501648469002     0.816921794641     0.057870160270
    H           -2.244867954075    -1.150410194037    -0.603279057271
    H           -1.844343709941    -1.072639151247     1.085334989874
    H           -2.124288268546     1.213573159100    -0.733140422906
    H           -1.878002526365     1.230252021872     0.985143501432

  Mulliken Charges: (a.u.)
   Center  Symbol    Alpha    Beta     Spin     Total
       1     H     0.39428  0.39428  0.00000  0.21143
       2     O     4.20743  4.20743  0.00000 -0.41485
       3     C     2.93217  2.93217  0.00000  0.13566
       4     H     0.44540  0.44540  0.00000  0.10919
       5     C     3.09624  3.09624  0.00000 -0.19247
       6     C     3.10916  3.10916  0.00000 -0.21832
       7     H     0.46099  0.46099  0.00000  0.07802
       8     H     0.44386  0.44386  0.00000  0.11229
       9     C     3.11382  3.11382  0.00000 -0.22765
      10     H     0.46114  0.46114  0.00000  0.07771
      11     H     0.44143  0.44143  0.00000  0.11713
      12     C     3.11020  3.11020  0.00000 -0.22040
      13     H     0.44371  0.44371  0.00000  0.11257
      14     H     0.44858  0.44858  0.00000  0.10284
      15     H     0.44486  0.44486  0.00000  0.11028
      16     H     0.44672  0.44672  0.00000  0.10657

   Total alpha = 24.00000, Total beta = 24.00000, Total charge = -0.00000

*** Psi4 exiting successfully. Buy a developer a beer!
