  ==> Input File <==

--------------------------------------------------------------------------
set {
	reference rhf
	basis 6-31G*
}

set_num_threads( 4 )
memory 2 gb

molecule MOL {
0 1

H	 -3.301617	 0.570527	 0.000000
C	 -2.250981	 0.344174	 0.000000
C	 -1.813665	 -0.976045	 0.000000
C	 -1.315303	 1.358057	 0.000000
H	 -2.528860	 -1.779366	 0.000000
C	 -0.467298	 -1.270142	 0.000000
H	 -1.635074	 2.385107	 0.000000
C	 0.047081	 1.078114	 0.000000
H	 -0.115948	 -2.285222	 0.000000
C	 0.472063	 -0.241155	 0.000000
H	 0.749976	 1.888426	 0.000000
O	 1.765256	 -0.628444	 0.000000
C	 2.490661	 -0.625669	 -1.195346
H	 2.054512	 -1.298566	 -1.926315
H	 3.483776	 -0.968837	 -0.946809
H	 2.554585	 0.371222	 -1.618966

	symmetry c1
}
set optking {
	frozen_dihedral = ("
		13 12 10 8
	")
}

ee = optimize('scf')
oeprop('DIPOLE', 'QUADRUPOLE', 'MULLIKEN_CHARGES')
f=open( 'psi4out.xyz', 'w' )
f.write( "16  " )
f.write( str(ee) + "\n" )
f.write( MOL.save_string_xyz() )
f.close()
--------------------------------------------------------------------------

    Molecular point group: c1
  Charge       = 0
  Multiplicity = 1
  Basis Set: 6-31G*
  Basis Set:
  @DF-RHF Final Energy:  -344.57845543205877
    Total Energy =                       -344.5784554320586039
    Molecular point group: c1
  Basis Set: 6-31G*
  Basis Set:
  Basis Set: 6-31G*
  Basis Set:
  @DF-RHF Final Energy:  -344.58031437578444
    Total Energy =                       -344.5803143757841553
  Basis Set: 6-31G*
  Basis Set:
  Basis Set: 6-31G*
  Basis Set:
  @DF-RHF Final Energy:  -344.58049929852081
    Total Energy =                       -344.5804992985206354
  Basis Set: 6-31G*
  Basis Set:
  Basis Set: 6-31G*
  Basis Set:
  @DF-RHF Final Energy:  -344.58052611628796
    Total Energy =                       -344.5805261162880697
  Basis Set: 6-31G*
  Basis Set:
  Basis Set: 6-31G*
  Basis Set:
  @DF-RHF Final Energy:  -344.58052977596498
    Total Energy =                       -344.5805297759650898
  Basis Set: 6-31G*
  Basis Set:
  Charge       = 0
  Multiplicity = 1
  Basis Set: 6-31G*
  Basis Set:

    Orbital Energies (a.u.)
    -----------------------

    Doubly Occupied:

       1A    -20.571697     2A    -11.285562     3A    -11.275149
       4A    -11.233612     5A    -11.233135     6A    -11.226407
       7A    -11.226137     8A    -11.224946     9A     -1.400186
      10A     -1.147676    11A     -1.017103    12A     -1.014896
      13A     -0.933034    14A     -0.834706    15A     -0.806367
      16A     -0.713773    17A     -0.666315    18A     -0.662776
      19A     -0.634860    20A     -0.611680    21A     -0.598077
      22A     -0.585381    23A     -0.530168    24A     -0.505488
      25A     -0.504576    26A     -0.483445    27A     -0.436080
      28A     -0.335226    29A     -0.321060

  @DF-RHF Final Energy:  -344.58053031228997

   => Energetics <=

    Nuclear Repulsion Energy =            348.1099498230114477
    One-Electron Energy =               -1157.3419254837911012
    Two-Electron Energy =                 464.6514453484898013
    DFT Exchange-Correlation Energy =       0.0000000000000000
    Empirical Dispersion Energy =           0.0000000000000000
    PCM Polarization Energy =               0.0000000000000000
    EFP Energy =                            0.0000000000000000
    Total Energy =                       -344.5805303122898522
    Molecular point group: c1
  Basis Set: 6-31G*
  Basis Set:

  -Total Gradient:
     Atom            X                  Y                   Z
    ------   -----------------  -----------------  -----------------
       1       -0.000000636650    -0.000014112236    -0.000002216849
       2       -0.000001645397     0.000031446877    -0.000031100571
       3       -0.000002188283    -0.000021467135     0.000017265961
       4       -0.000002642784    -0.000037761298     0.000037929089
       5       -0.000022579101     0.000003294222    -0.000001152448
       6        0.000011510099    -0.000067569802    -0.000000628045
       7        0.000007893873     0.000003608581    -0.000002757092
       8        0.000053962883    -0.000033762415    -0.000287072479
       9       -0.000005643460     0.000023114232    -0.000007578541
      10       -0.000088928929     0.000252117566     0.000449949225
      11        0.000003013692    -0.000001763961    -0.000011760277
      12       -0.000026908942    -0.000387780286    -0.000161705733
      13        0.000074829800     0.000259955986    -0.000031896689
      14        0.000003644623    -0.000000526452     0.000007660021
      15       -0.000006169242     0.000000450051     0.000010078629
      16        0.000002487817    -0.000009243929     0.000014985797

  **** Optimization is complete! (in 6 steps) ****
    Final optimized geometry and variables:
    Molecular point group: c1

    Geometry (in Angstrom), charge = 0, multiplicity = 1:

    H           -3.239800219042     0.747395799750     0.143795252192
    C           -2.194366828506     0.496801456794     0.151161441392
    C           -1.795247035461    -0.829879299680     0.175707785904
    C           -1.236827691030     1.499197969118     0.143735844875
    H           -2.531897624557    -1.613382381604     0.187984002568
    C           -0.448551370304    -1.156125951721     0.185511327558
    H           -1.538553144271     2.531444463954     0.133454615012
    C            0.111053446864     1.181013216958     0.157009116928
    H           -0.123799125597    -2.180220753028     0.211872062029
    C            0.502004973333    -0.148810659943     0.175583910441
    H            0.860288825931     1.951870849650     0.167911824539
    O            1.823938756606    -0.479222970101     0.215320395646
    C            2.504153995863    -0.420624379923    -1.012705656949
    H            2.067395841432    -1.105984152379    -1.732338422763
    H            3.527076636993    -0.708599772144    -0.817499562426
    H            2.487111476063     0.582136739784    -1.426751706331

  Mulliken Charges: (a.u.)
   Center  Symbol    Alpha    Beta     Spin     Total
       1     H     0.39986  0.39986  0.00000  0.20027
       2     C     3.10580  3.10580  0.00000 -0.21160
       3     C     3.09696  3.09696  0.00000 -0.19392
       4     C     3.09675  3.09675  0.00000 -0.19349
       5     H     0.39832  0.39832  0.00000  0.20337
       6     C     3.12032  3.12032  0.00000 -0.24065
       7     H     0.39845  0.39845  0.00000  0.20311
       8     C     3.12104  3.12104  0.00000 -0.24208
       9     H     0.39408  0.39408  0.00000  0.21183
      10     C     2.80205  2.80205  0.00000  0.39589
      11     H     0.39550  0.39550  0.00000  0.20899
      12     O     4.33214  4.33214  0.00000 -0.66428
      13     C     3.08222  3.08222  0.00000 -0.16444
      14     H     0.42252  0.42252  0.00000  0.15496
      15     H     0.41021  0.41021  0.00000  0.17958
      16     H     0.42377  0.42377  0.00000  0.15247

   Total alpha = 29.00000, Total beta = 29.00000, Total charge =  0.00000
