                              Psi4 1.0.54 Driver

  ==> Input File <==

--------------------------------------------------------------------------
set {
	reference rhf
	basis cc-pvtz
}

set_num_threads( 4 )
memory 2 gb

molecule MOL {
0 1

H	 2.614283	 2.028610	 0.296620
O	 3.358864	 1.662087	 -0.142800
C	 3.565468	 0.338079	 0.273842
C	 2.533667	 -0.637565	 -0.272227
H	 4.548038	 0.064914	 -0.086598
H	 3.593945	 0.282242	 1.360360
C	 1.114816	 -0.402372	 0.240993
H	 2.544552	 -0.580764	 -1.356576
H	 2.850574	 -1.642962	 -0.005497
C	 0.651524	 1.042047	 0.057009
H	 1.065257	 -0.666607	 1.292053
H	 0.428179	 -1.066383	 -0.281411
C	 -0.790580	 1.317918	 0.486529
H	 1.320868	 1.703652	 0.601513
H	 0.753657	 1.306141	 -0.991939
C	 -1.052636	 1.197772	 1.986741
H	 -1.054333	 2.323084	 0.169350
H	 -1.458803	 0.648003	 -0.049984
C	 -2.478671	 1.578580	 2.376384
H	 -0.353242	 1.834459	 2.524277
H	 -0.858033	 0.182840	 2.319978
C	 -2.744812	 1.456148	 3.873071
H	 -2.677402	 2.598207	 2.057881
H	 -3.178914	 0.949050	 1.833784
H	 -2.081317	 2.098710	 4.442392
H	 -3.763687	 1.735987	 4.115333
H	 -2.591379	 0.438315	 4.216327

	symmetry c1
}
set optking {
	frozen_dihedral = ("
		10 7 4 8
	")
}

ee,wfn = optimize('scf', return_wfn=True)
oeprop( wfn, 'DIPOLE', 'QUADRUPOLE', 'MULLIKEN_CHARGES')
f=open( 'psi4out.xyz', 'w' )
f.write( "27  " )
f.write( str(ee) + "\n" )
f.write( MOL.save_string_xyz() )
f.close()
--------------------------------------------------------------------------

    Molecular point group: c1
  Charge       = 0
  Multiplicity = 1
  Basis Set: CC-PVTZ
  Basis Set:
  @DF-RHF Final Energy:  -388.40966724347106
    Total Energy =                       -388.4096672434707216
    Molecular point group: c1
  Basis Set: CC-PVTZ
  Basis Set:
  Basis Set: CC-PVTZ
  Basis Set:
  @DF-RHF Final Energy:  -388.39548902922616
    Total Energy =                       -388.3954890292261553
  Basis Set: CC-PVTZ
  Basis Set:
  Basis Set: CC-PVTZ
  Basis Set:
  @DF-RHF Final Energy:  -388.42154412349464
    Total Energy =                       -388.4215441234940727
  Basis Set: CC-PVTZ
  Basis Set:
  Basis Set: CC-PVTZ
  Basis Set:
  @DF-RHF Final Energy:  -388.42339290613501
    Total Energy =                       -388.4233929061348363
  Basis Set: CC-PVTZ
  Basis Set:
  @DF-RHF Final Energy:  -388.42359685573427
    Total Energy =                       -388.4235968557344449
  @DF-RHF Final Energy:  -388.42370542735284
    Total Energy =                       -388.4237054273526155
  @DF-RHF Final Energy:  -388.42373610070655
    Total Energy =                       -388.4237361007066056
  Basis Set: CC-PVTZ
  Basis Set:
  @DF-RHF Final Energy:  -388.42374033658695
    Total Energy =                       -388.4237403365876844
  Basis Set: CC-PVTZ
  Basis Set:
  Basis Set: CC-PVTZ
  Basis Set:
  @DF-RHF Final Energy:  -388.42374578052920
    Total Energy =                       -388.4237457805290887
  Basis Set: CC-PVTZ
  Basis Set:
  Basis Set: CC-PVTZ
  Basis Set:
  @DF-RHF Final Energy:  -388.42374732019789
    Total Energy =                       -388.4237473201977764
  Basis Set: CC-PVTZ
  Basis Set:
  Charge       = 0
  Multiplicity = 1
  Basis Set: CC-PVTZ
  Basis Set:

    Orbital Energies (a.u.)
    -----------------------

    Doubly Occupied:

       1A    -20.542324     2A    -11.264454     3A    -11.220918
       4A    -11.217850     5A    -11.216554     6A    -11.215462
       7A    -11.214076     8A    -11.214050     9A    -11.208494
      10A     -1.361013    11A     -1.098300    12A     -1.062431
      13A     -1.014177    14A     -0.949815    15A     -0.892252
      16A     -0.827418    17A     -0.802619    18A     -0.777391
      19A     -0.696769    20A     -0.650914    21A     -0.630547
      22A     -0.624499    23A     -0.601127    24A     -0.584735
      25A     -0.569582    26A     -0.564856    27A     -0.550388
      28A     -0.530508    29A     -0.517380    30A     -0.499201
      31A     -0.484569    32A     -0.475315    33A     -0.469413
      34A     -0.463056    35A     -0.449874    36A     -0.439790
      37A     -0.426314

  @DF-RHF Final Energy:  -388.42374736073850

   => Energetics <=

    Nuclear Repulsion Energy =            466.3622044932820927
    One-Electron Energy =               -1450.9150337485352793
    Two-Electron Energy =                 596.1290818945144565
    DFT Exchange-Correlation Energy =       0.0000000000000000
    Empirical Dispersion Energy =           0.0000000000000000
    PCM Polarization Energy =               0.0000000000000000
    EFP Energy =                            0.0000000000000000
    Total Energy =                       -388.4237473607387301
    Molecular point group: c1
  Basis Set: CC-PVTZ
  Basis Set:

  -Total Gradient:
     Atom            X                  Y                   Z
    ------   -----------------  -----------------  -----------------
       1       -0.000002103672    -0.000002819849    -0.000003356747
       2        0.000002589510     0.000005312400     0.000000179282
       3       -0.000002114795    -0.000003812275     0.000010772347
       4        0.000436971860     0.002981203380    -0.000113871443
       5       -0.000000406365     0.000003951160    -0.000003896089
       6        0.000002497852     0.000005746416     0.000000275050
       7       -0.000962181364    -0.001703486222    -0.001619080442
       8       -0.000126196438    -0.002105580045     0.000512314004
       9       -0.000002258399    -0.000002823759     0.000000353129
      10        0.000653498098     0.000824477125     0.001215863141
      11       -0.000001523317     0.000000798050     0.000004424579
      12       -0.000003047645     0.000002592887    -0.000003240454
      13        0.000002653317    -0.000000260518     0.000000443161
      14        0.000000244210    -0.000003981150     0.000001423635
      15        0.000003055154     0.000000504182    -0.000003822915
      16       -0.000001984878     0.000003947342    -0.000000006037
      17        0.000000344273     0.000000267874    -0.000001927198
      18       -0.000001763449    -0.000001886422    -0.000000486990
      19        0.000001431186    -0.000001196972     0.000002179289
      20        0.000002164100     0.000001183821     0.000000843122
      21       -0.000000533094    -0.000002496901     0.000002220114
      22       -0.000001123552    -0.000000706218    -0.000001393869
      23        0.000000754029     0.000001834174    -0.000000926214
      24       -0.000002431123    -0.000002246412    -0.000000514938
      25        0.000001085303     0.000001987615     0.000000266839
      26       -0.000000415646    -0.000000307746    -0.000000534152
      27        0.000000794852    -0.000002201938     0.000001499790

  **** Optimization is complete! (in 11 steps) ****
    Final optimized geometry and variables:
    Molecular point group: c1

    Geometry (in Angstrom), charge = 0, multiplicity = 1:

    H            2.274222136009     1.285528514602    -1.647039051456
    O            3.074749361303     0.812235429447    -1.769734823454
    C            3.193250192618    -0.211669748420    -0.817813782399
    C            2.180995942905    -1.341182785386    -0.977872934580
    H            4.189232356749    -0.610368859453    -0.953126047081
    H            3.146775684732     0.195361957351     0.190865800676
    C            0.784520051627    -1.113152851745    -0.387835059090
    H            2.108259601634    -1.594993058533    -2.031102639541
    H            2.596807671830    -2.218328696228    -0.488798409100
    C            0.053638823602     0.147823958476    -0.854591539755
    H            0.868713448414    -1.095456953275     0.694440642504
    H            0.174240564832    -1.979166979085    -0.628338856065
    C           -1.420732907180     0.210265932764    -0.448579253142
    H            0.552564178464     1.030543763326    -0.459646440564
    H            0.111666622625     0.211871163905    -1.937665175040
    C           -1.672929706488     0.302748585775     1.055095383166
    H           -1.871772512982     1.073651810306    -0.929744129818
    H           -1.935545948098    -0.660627087792    -0.846867485223
    C           -3.150463477967     0.463622570016     1.403181944404
    H           -1.116919238255     1.145548971253     1.460700089462
    H           -1.289723826873    -0.582834265561     1.552425839979
    C           -3.407016048108     0.550954349017     2.903911227144
    H           -3.538267861447     1.355778019185     0.919243297355
    H           -3.708646492086    -0.372593725853     0.990896555437
    H           -2.888249680186     1.397722846825     3.341063481771
    H           -4.463792770597     0.666078333414     3.115772899432
    H           -3.063613706134    -0.343696143637     3.412686141153

  Mulliken Charges: (a.u.)
   Center  Symbol    Alpha    Beta     Spin     Total
       1     H     0.38924  0.38924  0.00000  0.22152
       2     O     4.20689  4.20689  0.00000 -0.41379
       3     C     2.98176  2.98176  0.00000  0.03647
       4     C     3.10227  3.10227  0.00000 -0.20454
       5     H     0.44573  0.44573  0.00000  0.10853
       6     H     0.46932  0.46932  0.00000  0.06135
       7     C     3.10172  3.10172  0.00000 -0.20343
       8     H     0.44864  0.44864  0.00000  0.10272
       9     H     0.44987  0.44987  0.00000  0.10025
      10     C     3.10861  3.10861  0.00000 -0.21722
      11     H     0.45040  0.45040  0.00000  0.09921
      12     H     0.44679  0.44679  0.00000  0.10642
      13     C     3.09999  3.09999  0.00000 -0.19997
      14     H     0.46196  0.46196  0.00000  0.07608
      15     H     0.44053  0.44053  0.00000  0.11894
      16     C     3.08844  3.08844  0.00000 -0.17688
      17     H     0.44737  0.44737  0.00000  0.10526
      18     H     0.45200  0.45200  0.00000  0.09600
      19     C     3.08486  3.08486  0.00000 -0.16972
      20     H     0.45538  0.45538  0.00000  0.08924
      21     H     0.45232  0.45232  0.00000  0.09537
      22     C     3.14958  3.14958  0.00000 -0.29916
      23     H     0.45367  0.45367  0.00000  0.09266
      24     H     0.45417  0.45417  0.00000  0.09166
      25     H     0.45513  0.45513  0.00000  0.08974
      26     H     0.44806  0.44806  0.00000  0.10388
      27     H     0.45530  0.45530  0.00000  0.08941

   Total alpha = 37.00000, Total beta = 37.00000, Total charge =  0.00000

*** Psi4 exiting successfully. Buy a developer a beer!
