  ==> Input File <==

--------------------------------------------------------------------------
set {
	reference rhf
	basis 6-31G*
}

set_num_threads( 4 )
memory 2 gb

molecule MOL {
0 1

O	 -0.778638	 2.124964	 -2.971221
C	 -1.134936	 1.497506	 -2.020546
C	 -0.433194	 0.208213	 -1.631205
C	 -2.273251	 1.965524	 -1.141584
C	 0.881216	 0.501850	 -0.890093
H	 -0.219960	 -0.338524	 -2.543298
H	 -1.079563	 -0.406689	 -1.011424
C	 1.631333	 -0.777471	 -0.511575
H	 1.494703	 1.130258	 -1.525797
H	 0.673042	 1.075202	 0.011948
C	 2.915987	 -0.544314	 0.291766
H	 1.869512	 -1.333736	 -1.416321
H	 0.968390	 -1.413207	 0.071688
C	 3.373361	 0.914346	 0.347591
H	 3.708709	 -1.142521	 -0.150311
H	 2.780642	 -0.921148	 1.303579
H	 3.506512	 1.320010	 -0.651625
H	 4.322697	 0.999599	 0.867103
H	 2.660624	 1.545032	 0.868198
H	 -3.106470	 1.272441	 -1.223101
H	 -2.595320	 2.951447	 -1.446560
H	 -1.971619	 1.982045	 -0.098248

	symmetry c1
}
set optking {
	frozen_dihedral = ("
		12 8 11 15
	")
}

ee = optimize('scf')
oeprop('DIPOLE', 'QUADRUPOLE', 'MULLIKEN_CHARGES')
f=open( 'psi4out.xyz', 'w' )
f.write( "22  " )
f.write( str(ee) + "\n" )
f.write( MOL.save_string_xyz() )
f.close()
--------------------------------------------------------------------------

    Molecular point group: c1
  Charge       = 0
  Multiplicity = 1
  Basis Set: 6-31G*
  Basis Set:
  @DF-RHF Final Energy:  -348.08876360228294
    Total Energy =                       -348.0887636022831657
    Molecular point group: c1
  Basis Set: 6-31G*
  Basis Set:
  Basis Set: 6-31G*
  Basis Set:
  @DF-RHF Final Energy:  -348.08903763194832
    Total Energy =                       -348.0890376319481447
  Basis Set: 6-31G*
  Basis Set:
  Basis Set: 6-31G*
  Basis Set:
  @DF-RHF Final Energy:  -348.09055335353185
    Total Energy =                       -348.0905533535315612
  Basis Set: 6-31G*
  Basis Set:
  Basis Set: 6-31G*
  Basis Set:
  @DF-RHF Final Energy:  -348.09054262726482
    Total Energy =                       -348.0905426272648810
  Basis Set: 6-31G*
  Basis Set:
  Basis Set: 6-31G*
  Basis Set:
  @DF-RHF Final Energy:  -348.09057968612598
    Total Energy =                       -348.0905796861259205
  Basis Set: 6-31G*
  Basis Set:
  Basis Set: 6-31G*
  Basis Set:
  @DF-RHF Final Energy:  -348.09064906434344
    Total Energy =                       -348.0906490643438360
  Basis Set: 6-31G*
  Basis Set:
  Charge       = 0
  Multiplicity = 1
  Basis Set: 6-31G*
  Basis Set:

    Orbital Energies (a.u.)
    -----------------------

    Doubly Occupied:

       1A    -20.547273     2A    -11.324391     3A    -11.229742
       4A    -11.228967     5A    -11.228195     6A    -11.222568
       7A    -11.220994     8A    -11.211504     9A     -1.393032
      10A     -1.093527    11A     -1.042072    12A     -0.999194
      13A     -0.937261    14A     -0.863306    15A     -0.779129
      16A     -0.733152    17A     -0.664391    18A     -0.645495
      19A     -0.629110    20A     -0.615471    21A     -0.591145
      22A     -0.588254    23A     -0.560325    24A     -0.539519
      25A     -0.532526    26A     -0.525237    27A     -0.501163
      28A     -0.487349    29A     -0.468160    30A     -0.462020
      31A     -0.454119    32A     -0.396200

  @DF-RHF Final Energy:  -348.09064914697132

   => Energetics <=

    Nuclear Repulsion Energy =            373.9135384645050522
    One-Electron Energy =               -1212.5787935063603982
    Two-Electron Energy =                 490.5746058948840300
    DFT Exchange-Correlation Energy =       0.0000000000000000
    Empirical Dispersion Energy =           0.0000000000000000
    PCM Polarization Energy =               0.0000000000000000
    EFP Energy =                            0.0000000000000000
    Total Energy =                       -348.0906491469712591
    Molecular point group: c1
  Basis Set: 6-31G*
  Basis Set:

  -Total Gradient:
     Atom            X                  Y                   Z
    ------   -----------------  -----------------  -----------------
       1        0.000020237076    -0.000012772309     0.000016062955
       2       -0.000118393695     0.000010544818     0.000098316459
       3       -0.000004429281    -0.000036078387     0.000084026348
       4       -0.000032010897     0.000008821559    -0.000044088157
       5        0.000154132694     0.000057948610    -0.000141485884
       6       -0.000000481075     0.000081539042    -0.000028348016
       7        0.000025089161    -0.000073777315    -0.000031512232
       8        0.001207845042     0.004709208455    -0.002967729213
       9        0.000072744300    -0.000088748804    -0.000055429298
      10        0.000014807208     0.000077309594     0.000008403215
      11       -0.001553677905    -0.004385785387     0.003538942756
      12       -0.000735012664    -0.003282607062     0.001990346666
      13        0.000016214297    -0.000029470164    -0.000010532297
      14       -0.000076685556     0.000028429482     0.000014362097
      15        0.001047655153     0.002888720991    -0.002415127381
      16       -0.000015160459     0.000025042328    -0.000009115090
      17       -0.000056327682     0.000039143629    -0.000057740385
      18        0.000005090960    -0.000050031180    -0.000034682555
      19        0.000011254359     0.000022021301     0.000030785921
      20        0.000012607206     0.000008528948     0.000004725293
      21       -0.000010512944     0.000001575627    -0.000001714113
      22        0.000015014705     0.000000436224     0.000011532911

  **** Optimization is complete! (in 7 steps) ****
    Final optimized geometry and variables:
    Molecular point group: c1

    Geometry (in Angstrom), charge = 0, multiplicity = 1:

    O           -1.348256434328     1.393317025526    -1.906162931820
    C           -1.695115106274     0.740880568375    -0.968982043110
    C           -0.958592599520    -0.532443155744    -0.591164157438
    C           -2.861155822653     1.156753528784    -0.099939956926
    C            0.332399638713    -0.210013644742     0.178800900672
    H           -0.712398628578    -1.054536177249    -1.509342841746
    H           -1.595692198936    -1.179312154743     0.005302081524
    C            1.090237133615    -1.482157095065     0.566163084031
    H            0.946838238870     0.431236017000    -0.442451794034
    H            0.087597524336     0.359219126133     1.072818355277
    C            2.403357498333    -1.302278764754     1.374939494850
    H            1.296519627011    -2.062744434964    -0.329147564708
    H            0.416836492225    -2.107843264321     1.147843637935
    C            2.993487812491     0.111956662356     1.415515113872
    H            3.162449311643    -1.946700198103     0.942228770183
    H            2.250379191234    -1.640221638515     2.394954266381
    H            3.218189889688     0.483335217503     0.420681952820
    H            3.921807435238     0.107177992511     1.978362125143
    H            2.327849128806     0.823065602722     1.893021338675
    H           -3.669483202206     0.437908885301    -0.204912580368
    H           -3.211348654530     2.136240989905    -0.394423977845
    H           -2.575605764864     1.166475530615     0.947993187251

  Mulliken Charges: (a.u.)
   Center  Symbol    Alpha    Beta     Spin     Total
       1     O     4.26240  4.26240  0.00000 -0.52480
       2     C     2.73698  2.73698  0.00000  0.52603
       3     C     3.19991  3.19991  0.00000 -0.39983
       4     C     3.28951  3.28951  0.00000 -0.57902
       5     C     3.16415  3.16415  0.00000 -0.32830
       6     H     0.40117  0.40117  0.00000  0.19766
       7     H     0.41700  0.41700  0.00000  0.16601
       8     C     3.15685  3.15685  0.00000 -0.31371
       9     H     0.40379  0.40379  0.00000  0.19242
      10     H     0.42018  0.42018  0.00000  0.15964
      11     C     3.15507  3.15507  0.00000 -0.31015
      12     H     0.41820  0.41820  0.00000  0.16359
      13     H     0.42156  0.42156  0.00000  0.15689
      14     C     3.24361  3.24361  0.00000 -0.48722
      15     H     0.41846  0.41846  0.00000  0.16308
      16     H     0.41974  0.41974  0.00000  0.16051
      17     H     0.41875  0.41875  0.00000  0.16250
      18     H     0.41816  0.41816  0.00000  0.16368
      19     H     0.42070  0.42070  0.00000  0.15859
      20     H     0.40686  0.40686  0.00000  0.18627
      21     H     0.39708  0.39708  0.00000  0.20584
      22     H     0.40985  0.40985  0.00000  0.18030

   Total alpha = 32.00000, Total beta = 32.00000, Total charge =  0.00000
