  ==> Input File <==

--------------------------------------------------------------------------
set {
	reference rhf
	basis 6-31G*
}

set_num_threads( 4 )
memory 2 gb

molecule MOL {
0 1

H	 1.115093	 -0.524736	 0.445388
C	 0.850167	 0.441173	 0.000644
C	 -0.623425	 0.760064	 0.000248
O	 1.697743	 1.151790	 -0.433389
C	 -1.518387	 -0.473136	 -0.000101
H	 -0.818289	 1.390622	 -0.866171
H	 -0.818694	 1.390413	 0.866696
H	 -1.333417	 -1.085530	 -0.874338
H	 -2.563510	 -0.183466	 -0.000351
H	 -1.333864	 -1.085676	 0.874123

	symmetry c1
}
set optking {
	frozen_dihedral = ("
		4 2 3 6
	")
}

ee = optimize('scf')
oeprop('DIPOLE', 'QUADRUPOLE', 'MULLIKEN_CHARGES')
f=open( 'psi4out.xyz', 'w' )
f.write( "10  " )
f.write( str(ee) + "\n" )
f.write( MOL.save_string_xyz() )
f.close()
--------------------------------------------------------------------------

    Molecular point group: c1
  Charge       = 0
  Multiplicity = 1
  Basis Set: 6-31G*
  Basis Set:
  @DF-RHF Final Energy:  -191.94943550151879
    Total Energy =                       -191.9494355015187921
    Molecular point group: c1
  Basis Set: 6-31G*
  Basis Set:
  Basis Set: 6-31G*
  Basis Set:
  @DF-RHF Final Energy:  -191.94918183205539
    Total Energy =                       -191.9491818320554444
  Basis Set: 6-31G*
  Basis Set:
  Basis Set: 6-31G*
  Basis Set:
  @DF-RHF Final Energy:  -191.94937634110914
    Total Energy =                       -191.9493763411092573
  Basis Set: 6-31G*
  Basis Set:
  Basis Set: 6-31G*
  Basis Set:
  @DF-RHF Final Energy:  -191.94970021614930
    Total Energy =                       -191.9497002161491537
  Basis Set: 6-31G*
  Basis Set:
  Charge       = 0
  Multiplicity = 1
  Basis Set: 6-31G*
  Basis Set:

    Orbital Energies (a.u.)
    -----------------------

    Doubly Occupied:

       1A    -20.563379     2A    -11.328659     3A    -11.239405
       4A    -11.232643     5A     -1.403992     6A     -1.066871
       7A     -0.902552     8A     -0.797215     9A     -0.664240
      10A     -0.640483    11A     -0.630093    12A     -0.556792
      13A     -0.544046    14A     -0.522238    15A     -0.491525
      16A     -0.412703

  @DF-RHF Final Energy:  -191.94970110917677

   => Energetics <=

    Nuclear Repulsion Energy =            116.9388566846592852
    One-Electron Energy =                -491.7834433743782938
    Two-Electron Energy =                 182.8948855805421942
    DFT Exchange-Correlation Energy =       0.0000000000000000
    Empirical Dispersion Energy =           0.0000000000000000
    PCM Polarization Energy =               0.0000000000000000
    EFP Energy =                            0.0000000000000000
    Total Energy =                       -191.9497011091768002
    Molecular point group: c1
  Basis Set: 6-31G*
  Basis Set:

  -Total Gradient:
     Atom            X                  Y                   Z
    ------   -----------------  -----------------  -----------------
       1       -0.000031093192    -0.000003669632    -0.000002417296
       2       -0.000147547011    -0.000770451052    -0.001246384578
       3        0.000214352937     0.000944219775     0.000920457632
       4        0.000040859087     0.000443486676     0.000801744292
       5        0.000056668824     0.000056610836    -0.000012049621
       6       -0.000152554990    -0.000702146987    -0.000485119017
       7        0.000015937538     0.000010945027     0.000011540951
       8        0.000005832471     0.000003224180     0.000007236730
       9       -0.000006521353     0.000014811994     0.000000426096
      10        0.000004065686     0.000002969181     0.000004564812

  **** Optimization is complete! (in 5 steps) ****
    Final optimized geometry and variables:
    Molecular point group: c1

    Geometry (in Angstrom), charge = 0, multiplicity = 1:

    H            1.021336854575    -0.982846454954     0.585224807608
    C            0.750517476886    -0.029607597344     0.115406840253
    C           -0.723883998136     0.301718970347     0.103678469939
    O            1.595057209538     0.682605559806    -0.320989505561
    C           -1.618155995376    -0.937747500091     0.111876515220
    H           -0.917981815779     0.926623355106    -0.760478224457
    H           -0.919437800625     0.908359195447     0.986096359581
    H           -1.454233056439    -1.549135092789    -0.770198824478
    H           -2.664458185673    -0.655258307708     0.128095550372
    H           -1.429955464214    -1.555572952951     0.984890964942

  Mulliken Charges: (a.u.)
   Center  Symbol    Alpha    Beta     Spin     Total
       1     H     0.43054  0.43054  0.00000  0.13893
       2     C     2.83343  2.83343  0.00000  0.33315
       3     C     3.20654  3.20654  0.00000 -0.41308
       4     O     4.23822  4.23822  0.00000 -0.47644
       5     C     3.25266  3.25266  0.00000 -0.50533
       6     H     0.39749  0.39749  0.00000  0.20502
       7     H     0.40163  0.40163  0.00000  0.19675
       8     H     0.41345  0.41345  0.00000  0.17310
       9     H     0.40939  0.40939  0.00000  0.18122
      10     H     0.41666  0.41666  0.00000  0.16669

   Total alpha = 16.00000, Total beta = 16.00000, Total charge =  0.00000
