  ==> Input File <==

--------------------------------------------------------------------------
set {
	reference rhf
	basis 6-31G*
}

set_num_threads( 1 )
memory 2 gb

molecule MOL {
0 1

H	 -3.980040	 -3.119305	 -3.707129
O	 -4.433550	 -3.915013	 -3.469962
C	 -3.555550	 -4.775857	 -2.790170
C	 -3.236893	 -4.312752	 -1.372877
H	 -4.052227	 -5.737068	 -2.757618
H	 -2.634908	 -4.906922	 -3.357636
C	 -2.488196	 -2.979323	 -1.307388
H	 -4.168099	 -4.236107	 -0.817585
H	 -2.641857	 -5.085734	 -0.889352
C	 -2.135515	 -2.568922	 0.125095
H	 -3.096385	 -2.205364	 -1.767234
H	 -1.572447	 -3.049020	 -1.894658
C	 -1.309753	 -1.282496	 0.241564
H	 -3.051892	 -2.461823	 0.702701
H	 -1.577770	 -3.379235	 0.589867
C	 -2.037799	 -0.007733	 -0.193645
H	 -0.999968	 -1.167988	 1.278260
H	 -0.393448	 -1.389990	 -0.336940
C	 -3.489788	 0.042957	 0.286558
H	 -2.017067	 0.064384	 -1.280144
H	 -1.513726	 0.868678	 0.179924
C	 -4.216917	 1.317354	 -0.141063
H	 -4.025645	 -0.823308	 -0.095450
H	 -3.513059	 -0.038752	 1.371301
H	 -4.239342	 1.411634	 -1.223113
H	 -5.243387	 1.322503	 0.212445
H	 -3.726170	 2.201406	 0.256408

	symmetry c1
}
set optking {
	frozen_dihedral = ("
		14 10 7 4,
		14 10 13 16,
		10 7 4 8,
		8 4 3 2,
		20 16 19 22,
		4 3 2 1
	")
}

ee = energy('scf')
oeprop('DIPOLE', 'QUADRUPOLE', 'MULLIKEN_CHARGES')
f=open( 'psi4out.xyz', 'w' )
f.write( "27  " )
f.write( str(ee) + "\n" )
f.write( MOL.save_string_xyz() )
f.close()
--------------------------------------------------------------------------

    Molecular point group: c1

    Geometry (in Angstrom), charge = 0, multiplicity = 1:

       Center              X                  Y                   Z               Mass
    ------------   -----------------  -----------------  -----------------  -----------------
           H         -0.956912384059    -1.049144830997    -2.700743630141     1.007825032070
           O         -1.410422384059    -1.844852830997    -2.463576630141    15.994914619560
           C         -0.532422384059    -2.705696830997    -1.783784630141    12.000000000000
           C         -0.213765384059    -2.242591830997    -0.366491630141    12.000000000000
           H         -1.029099384059    -3.666907830997    -1.751232630141     1.007825032070
           H          0.388219615941    -2.836761830997    -2.351250630141     1.007825032070
           C          0.534931615941    -0.909162830997    -0.301002630141    12.000000000000
           H         -1.144971384059    -2.165946830997     0.188800369859     1.007825032070
           H          0.381270615941    -3.015573830997     0.117033369859     1.007825032070
           C          0.887612615941    -0.498761830997     1.131480369859    12.000000000000
           H         -0.073257384059    -0.135203830997    -0.760848630141     1.007825032070
           H          1.450680615941    -0.978859830997    -0.888272630141     1.007825032070
           C          1.713374615941     0.787664169003     1.247949369859    12.000000000000
           H         -0.028764384059    -0.391662830997     1.709086369859     1.007825032070
           H          1.445357615941    -1.309074830997     1.596252369859     1.007825032070
           C          0.985328615941     2.062427169003     0.812740369859    12.000000000000
           H          2.023159615941     0.902172169003     2.284645369859     1.007825032070
           H          2.629679615941     0.680170169003     0.669445369859     1.007825032070
           C         -0.466660384059     2.113117169003     1.292943369859    12.000000000000
           H          1.006060615941     2.134544169003    -0.273758630141     1.007825032070
           H          1.509401615941     2.938838169003     1.186309369859     1.007825032070
           C         -1.193789384059     3.387514169003     0.865322369859    12.000000000000
           H         -1.002517384059     1.246852169003     0.910935369859     1.007825032070
           H         -0.489931384059     2.031408169003     2.377686369859     1.007825032070
           H         -1.216214384059     3.481794169003    -0.216727630141     1.007825032070
           H         -2.220259384059     3.392663169003     1.218830369859     1.007825032070
           H         -0.703042384059     4.271566169003     1.262793369859     1.007825032070

  Charge       = 0
  Multiplicity = 1
  Basis Set: 6-31G*
  Basis Set:

    Orbital Energies (a.u.)
    -----------------------

    Doubly Occupied:

       1A    -20.552648     2A    -11.267361     3A    -11.220267
       4A    -11.216156     5A    -11.215672     6A    -11.215267
       7A    -11.214860     8A    -11.214013     9A    -11.208670
      10A     -1.359392    11A     -1.098187    12A     -1.059470
      13A     -1.009067    14A     -0.949750    15A     -0.886924
      16A     -0.834143    17A     -0.802208    18A     -0.761916
      19A     -0.693972    20A     -0.653677    21A     -0.640748
      22A     -0.613169    23A     -0.599647    24A     -0.586613
      25A     -0.577324    26A     -0.569305    27A     -0.531173
      28A     -0.520596    29A     -0.509993    30A     -0.496866
      31A     -0.489484    32A     -0.477833    33A     -0.470284
      34A     -0.451359    35A     -0.448510    36A     -0.443130
      37A     -0.423244

  @DF-RHF Final Energy:  -388.27680560321426

   => Energetics <=

    Nuclear Repulsion Energy =            473.7291819376739568
    One-Electron Energy =               -1465.4461817520805198
    Two-Electron Energy =                 603.4401942111965127
    DFT Exchange-Correlation Energy =       0.0000000000000000
    Empirical Dispersion Energy =           0.0000000000000000
    PCM Polarization Energy =               0.0000000000000000
    EFP Energy =                            0.0000000000000000
    Total Energy =                       -388.2768056032100503

  Mulliken Charges: (a.u.)
   Center  Symbol    Alpha    Beta     Spin     Total
       1     H     0.27984  0.27984  0.00000  0.44032
       2     O     4.37101  4.37101  0.00000 -0.74202
       3     C     2.99741  2.99741  0.00000  0.00519
       4     C     3.16096  3.16096  0.00000 -0.32192
       5     H     0.41437  0.41437  0.00000  0.17125
       6     H     0.43192  0.43192  0.00000  0.13615
       7     C     3.16274  3.16274  0.00000 -0.32547
       8     H     0.41524  0.41524  0.00000  0.16952
       9     H     0.42394  0.42394  0.00000  0.15211
      10     C     3.15998  3.15998  0.00000 -0.31997
      11     H     0.42387  0.42387  0.00000  0.15225
      12     H     0.42474  0.42474  0.00000  0.15053
      13     C     3.15359  3.15359  0.00000 -0.30717
      14     H     0.41736  0.41736  0.00000  0.16529
      15     H     0.42053  0.42053  0.00000  0.15895
      16     C     3.15285  3.15285  0.00000 -0.30570
      17     H     0.42108  0.42108  0.00000  0.15784
      18     H     0.42230  0.42230  0.00000  0.15541
      19     C     3.15771  3.15771  0.00000 -0.31543
      20     H     0.42509  0.42509  0.00000  0.14982
      21     H     0.42029  0.42029  0.00000  0.15942
      22     C     3.23785  3.23785  0.00000 -0.47570
      23     H     0.41885  0.41885  0.00000  0.16230
      24     H     0.42282  0.42282  0.00000  0.15437
      25     H     0.42260  0.42260  0.00000  0.15479
      26     H     0.41890  0.41890  0.00000  0.16221
      27     H     0.42217  0.42217  0.00000  0.15567

   Total alpha = 37.00000, Total beta = 37.00000, Total charge =  0.00000
