  ==> Input File <==

--------------------------------------------------------------------------
set {
	reference rhf
	basis cc-pvtz
}

set_num_threads( 4 )
memory 2 gb

molecule MOL {
0 1

O	 1.240251	 0.347017	 0.952826
C	 0.576499	 0.134701	 -0.003900
C	 -0.765656	 -0.550508	 -0.002152
O	 0.941767	 0.472651	 -1.229600
C	 -1.945526	 0.411052	 0.000603
H	 -0.794329	 -1.203792	 -0.868145
H	 -0.791555	 -1.205429	 0.862701
C	 -3.282915	 -0.321280	 0.002596
H	 -1.880300	 1.059126	 -0.864925
H	 -1.877207	 1.057892	 0.866807
H	 -3.388495	 -0.952755	 -0.873419
H	 -4.107811	 0.380864	 0.004116
H	 -3.385717	 -0.953283	 0.878571
C	 2.188284	 1.122071	 -1.379464
H	 2.201815	 2.052030	 -0.830786
H	 2.299924	 1.310646	 -2.434768
H	 2.991091	 0.492295	 -1.026016

	symmetry c1
}
set optking {
	frozen_dihedral = ("
		1 2 3 6
	")
}

ee = optimize('scf')
oeprop('DIPOLE', 'QUADRUPOLE', 'MULLIKEN_CHARGES')
f=open( 'psi4out.xyz', 'w' )
f.write( "17  " )
f.write( str(ee) + "\n" )
f.write( MOL.save_string_xyz() )
f.close()
--------------------------------------------------------------------------

    Molecular point group: c1
  Charge       = 0
  Multiplicity = 1
  Basis Set: CC-PVTZ
  Basis Set:
  @DF-RHF Final Energy:  -345.03357371858965
    Total Energy =                       -345.0335737185897642
    Molecular point group: c1
  Basis Set: CC-PVTZ
  Basis Set:
  Basis Set: CC-PVTZ
  Basis Set:
  @DF-RHF Final Energy:  -345.03357585141771
    Total Energy =                       -345.0335758514174245
  Basis Set: CC-PVTZ
  Basis Set:
  Basis Set: CC-PVTZ
  Basis Set:
  @DF-RHF Final Energy:  -345.03359114318539
    Total Energy =                       -345.0335911431850491
  Basis Set: CC-PVTZ
  Basis Set:
  Basis Set: CC-PVTZ
  Basis Set:
  @DF-RHF Final Energy:  -345.03424374995660
    Total Energy =                       -345.0342437499569996
  Basis Set: CC-PVTZ
  Basis Set:
  Basis Set: CC-PVTZ
  Basis Set:
  @DF-RHF Final Energy:  -345.03425203144093
    Total Energy =                       -345.0342520314407011
  Basis Set: CC-PVTZ
  Basis Set:
  Charge       = 0
  Multiplicity = 1
  Basis Set: CC-PVTZ
  Basis Set:

    Orbital Energies (a.u.)
    -----------------------

    Doubly Occupied:

       1A    -20.597525     2A    -20.532631     3A    -11.363590
       4A    -11.278689     5A    -11.232675     6A    -11.230563
       7A    -11.216940     8A     -1.472061     9A     -1.364771
      10A     -1.085643    11A     -1.000602    12A     -0.942410
      13A     -0.831097    14A     -0.776134    15A     -0.699680
      16A     -0.683235    17A     -0.676366    18A     -0.638099
      19A     -0.596930    20A     -0.582472    21A     -0.552586
      22A     -0.545607    23A     -0.527630    24A     -0.508983
      25A     -0.489375    26A     -0.485205    27A     -0.458285
      28A     -0.435363

  @DF-RHF Final Energy:  -345.03425251961619

   => Energetics <=

    Nuclear Repulsion Energy =            314.5783263383281110
    One-Electron Energy =               -1093.6148698567594693
    Two-Electron Energy =                 434.0022909988148854
    DFT Exchange-Correlation Energy =       0.0000000000000000
    Empirical Dispersion Energy =           0.0000000000000000
    PCM Polarization Energy =               0.0000000000000000
    EFP Energy =                            0.0000000000000000
    Total Energy =                       -345.0342525196164729
    Molecular point group: c1
  Basis Set: CC-PVTZ
  Basis Set:

  -Total Gradient:
     Atom            X                  Y                   Z
    ------   -----------------  -----------------  -----------------
       1       -0.000038838884     0.000043555384     0.000001741580
       2        0.000069662550    -0.000057441663     0.000040914254
       3        0.000012540682    -0.000004195825     0.000055659392
       4        0.000021748528    -0.000049782016    -0.000056551848
       5        0.000014365999    -0.000005116634    -0.000026126072
       6       -0.000030352083     0.000053620360    -0.000031820721
       7        0.000010154357    -0.000005406638    -0.000021623402
       8       -0.000017707973    -0.000007988067     0.000014222195
       9        0.000001381006     0.000001786166     0.000004678249
      10       -0.000001715927     0.000000049867    -0.000010456992
      11        0.000003166109     0.000006471506    -0.000000448418
      12       -0.000000939540     0.000001246506     0.000004675095
      13       -0.000000884053    -0.000006453223    -0.000001842023
      14       -0.000062476643     0.000074712721     0.000036751433
      15        0.000026625603    -0.000002427493    -0.000014697231
      16       -0.000004201905    -0.000016882050    -0.000001775858
      17       -0.000002527827    -0.000025748902     0.000006700370

  **** Optimization is complete! (in 6 steps) ****
    Final optimized geometry and variables:
    Molecular point group: c1

    Geometry (in Angstrom), charge = 0, multiplicity = 1:

    O            1.365537603497     0.060742290027     1.198671680344
    C            0.703990668689    -0.146742731578     0.238614130167
    C           -0.633840247593    -0.837654695957     0.252187533809
    O            1.054529513126     0.234341720339    -0.978831392692
    C           -1.787630751015     0.171157542652     0.217047151314
    H           -0.697983342236    -1.497943754261    -0.603779237630
    H           -0.682438654041    -1.429817733475     1.155113049758
    C           -3.149387324628    -0.512383730356     0.257920719514
    H           -1.708165365953     0.774494093085    -0.680101445707
    H           -1.692944129875     0.845912053463     1.061155298127
    H           -3.281408928183    -1.173091848359    -0.592089390139
    H           -3.949225786238     0.218112925183     0.237402368476
    H           -3.263500630730    -1.104237156765     1.159457670239
    C            2.274629108557     0.935126072640    -1.112595923666
    H            2.253412503161     1.850492745985    -0.540002188255
    H            2.378252061894     1.154870891003    -2.162786839591
    H            3.101121206339     0.327597743569    -0.775157526069

  Mulliken Charges: (a.u.)
   Center  Symbol    Alpha    Beta     Spin     Total
       1     O     4.20212  4.20212  0.00000 -0.40424
       2     C     2.80595  2.80595  0.00000  0.38810
       3     C     3.07781  3.07781  0.00000 -0.15563
       4     O     4.15031  4.15031  0.00000 -0.30062
       5     C     3.09344  3.09344  0.00000 -0.18689
       6     H     0.44566  0.44566  0.00000  0.10868
       7     H     0.43895  0.43895  0.00000  0.12209
       8     C     3.15116  3.15116  0.00000 -0.30233
       9     H     0.44621  0.44621  0.00000  0.10758
      10     H     0.44534  0.44534  0.00000  0.10933
      11     H     0.45415  0.45415  0.00000  0.09169
      12     H     0.44614  0.44614  0.00000  0.10771
      13     H     0.45284  0.45284  0.00000  0.09432
      14     C     3.03708  3.03708  0.00000 -0.07416
      15     H     0.45456  0.45456  0.00000  0.09088
      16     H     0.44549  0.44549  0.00000  0.10902
      17     H     0.45277  0.45277  0.00000  0.09445

   Total alpha = 28.00000, Total beta = 28.00000, Total charge = -0.00000
