  ==> Input File <==

--------------------------------------------------------------------------
set {
	reference rhf
	basis 6-31G*
}

set_num_threads( 4 )
memory 2 gb

molecule MOL {
0 1

H	 -2.330117	 -0.733506	 -1.245878
O	 -2.310168	 -0.871793	 -0.309793
C	 -2.026376	 0.340750	 0.341611
C	 -0.673256	 0.843270	 -0.132153
H	 -2.792215	 1.080697	 0.115987
H	 -2.013526	 0.200402	 1.421792
C	 0.486613	 -0.083066	 0.235839
H	 -0.715586	 0.970948	 -1.210718
H	 -0.508072	 1.829858	 0.297090
C	 1.840406	 0.433480	 -0.254303
H	 0.300215	 -1.068318	 -0.178947
H	 0.519509	 -0.203625	 1.318070
C	 3.000220	 -0.489290	 0.118523
H	 1.809207	 0.553576	 -1.335192
H	 2.021860	 1.424500	 0.157276
H	 2.864959	 -1.479103	 -0.307933
H	 3.946603	 -0.099227	 -0.243630
H	 3.080049	 -0.602997	 1.196117

	symmetry c1
}
set optking {
	frozen_dihedral = ("
		1 2 3 4
	")
}

ee = optimize('scf')
oeprop('DIPOLE', 'QUADRUPOLE', 'MULLIKEN_CHARGES')
f=open( 'psi4out.xyz', 'w' )
f.write( "18  " )
f.write( str(ee) + "\n" )
f.write( MOL.save_string_xyz() )
f.close()
--------------------------------------------------------------------------

    Molecular point group: c1
  Charge       = 0
  Multiplicity = 1
  Basis Set: 6-31G*
  Basis Set:
  @DF-RHF Final Energy:  -271.17781384723577
    Total Energy =                       -271.1778138472357682
    Molecular point group: c1
  Basis Set: 6-31G*
  Basis Set:
  Basis Set: 6-31G*
  Basis Set:
  @DF-RHF Final Energy:  -271.17940855023198
    Total Energy =                       -271.1794085502319263
  Basis Set: 6-31G*
  Basis Set:
  Basis Set: 6-31G*
  Basis Set:
  @DF-RHF Final Energy:  -271.17980225911265
    Total Energy =                       -271.1798022591125346
  Basis Set: 6-31G*
  Basis Set:
  Basis Set: 6-31G*
  Basis Set:
  @DF-RHF Final Energy:  -271.17980398271828
    Total Energy =                       -271.1798039827182834
  Basis Set: 6-31G*
  Basis Set:
  Basis Set: 6-31G*
  Basis Set:
  @DF-RHF Final Energy:  -271.17980634093482
    Total Energy =                       -271.1798063409348742
  Basis Set: 6-31G*
  Basis Set:
  Charge       = 0
  Multiplicity = 1
  Basis Set: 6-31G*
  Basis Set:

    Orbital Energies (a.u.)
    -----------------------

    Doubly Occupied:

       1A    -20.553648     2A    -11.267875     3A    -11.218634
       4A    -11.215707     5A    -11.212316     6A    -11.208191
       7A     -1.360345     8A     -1.079215     9A     -1.010964
      10A     -0.916916    11A     -0.829839    12A     -0.793243
      13A     -0.677759    14A     -0.652635    15A     -0.616347
      16A     -0.610111    17A     -0.574751    18A     -0.552913
      19A     -0.538348    20A     -0.494332    21A     -0.486592
      22A     -0.478159    23A     -0.463969    24A     -0.459385
      25A     -0.423486

  @DF-RHF Final Energy:  -271.17980649162325

   => Energetics <=

    Nuclear Repulsion Energy =            248.8149223508093257
    One-Electron Energy =                -860.5980947742114040
    Two-Electron Energy =                 340.6033659317789670
    DFT Exchange-Correlation Energy =       0.0000000000000000
    Empirical Dispersion Energy =           0.0000000000000000
    PCM Polarization Energy =               0.0000000000000000
    EFP Energy =                            0.0000000000000000
    Total Energy =                       -271.1798064916231397
    Molecular point group: c1
  Basis Set: 6-31G*
  Basis Set:

  -Total Gradient:
     Atom            X                  Y                   Z
    ------   -----------------  -----------------  -----------------
       1        0.000522792861    -0.000129076544    -0.000025135876
       2       -0.000708468081     0.000240475851    -0.000085001462
       3        0.000336945184    -0.000267487596     0.000386636758
       4       -0.000159826935     0.000160781492    -0.000276705128
       5       -0.000000958971    -0.000008946232    -0.000006902561
       6       -0.000002368180     0.000000776105     0.000003309903
       7        0.000002096912     0.000000127490    -0.000001820327
       8        0.000010887551     0.000000984545     0.000002893132
       9       -0.000001982891     0.000002581662     0.000003124903
      10       -0.000000974638    -0.000003146278    -0.000007789299
      11        0.000000240260     0.000002478012     0.000005303262
      12        0.000002113529    -0.000001895964    -0.000002640120
      13        0.000000061701     0.000005219319     0.000008459358
      14       -0.000004149650    -0.000000901953    -0.000001358020
      15        0.000003457914    -0.000002024261    -0.000002523228
      16       -0.000000292861     0.000002691941    -0.000002834602
      17        0.000000578140     0.000001483856     0.000002156445
      18       -0.000000151840    -0.000004121441     0.000000826863

  **** Optimization is complete! (in 6 steps) ****
    Final optimized geometry and variables:
    Molecular point group: c1

    Geometry (in Angstrom), charge = 0, multiplicity = 1:

    H           -2.397750418835    -0.800761032718    -1.196893091560
    O           -2.373096996398    -0.895404630387    -0.254573263716
    C           -2.029078041092     0.336526065416     0.326209408827
    C           -0.666561100747     0.851674698669    -0.124166954267
    H           -2.794244627737     1.081418383063     0.114053981644
    H           -2.031152304427     0.167509186583     1.395867884584
    C            0.490429455183    -0.080149471588     0.238585157006
    H           -0.686265380987     1.010227570031    -1.202948143241
    H           -0.506577620920     1.831573538153     0.322156527855
    C            1.849024275544     0.433091436372    -0.241595082835
    H            0.302788880463    -1.064211498885    -0.180251952785
    H            0.516572798193    -0.209334153183     1.319419549306
    C            3.002464370614    -0.497641977432     0.131105340764
    H            1.824823385280     0.561360283438    -1.321983971603
    H            2.032530912501     1.420345653263     0.177658272258
    H            2.865029759244    -1.484241326313    -0.302151484051
    H            3.952256825999    -0.109471713845    -0.223731468178
    H            3.075969018058    -0.618478304871     1.208171276126

  Mulliken Charges: (a.u.)
   Center  Symbol    Alpha    Beta     Spin     Total
       1     H     0.28352  0.28352  0.00000  0.43295
       2     O     4.36845  4.36845  0.00000 -0.73690
       3     C     2.99442  2.99442  0.00000  0.01117
       4     C     3.17119  3.17119  0.00000 -0.34239
       5     H     0.42814  0.42814  0.00000  0.14372
       6     H     0.41635  0.41635  0.00000  0.16729
       7     C     3.15070  3.15070  0.00000 -0.30140
       8     H     0.42822  0.42822  0.00000  0.14356
       9     H     0.42168  0.42168  0.00000  0.15664
      10     C     3.15150  3.15150  0.00000 -0.30300
      11     H     0.41305  0.41305  0.00000  0.17391
      12     H     0.42341  0.42341  0.00000  0.15319
      13     C     3.23904  3.23904  0.00000 -0.47808
      14     H     0.42430  0.42430  0.00000  0.15139
      15     H     0.42401  0.42401  0.00000  0.15198
      16     H     0.42098  0.42098  0.00000  0.15804
      17     H     0.41973  0.41973  0.00000  0.16055
      18     H     0.42132  0.42132  0.00000  0.15737

   Total alpha = 25.00000, Total beta = 25.00000, Total charge =  0.00000
