  ==> Input File <==

--------------------------------------------------------------------------
set {
	reference rhf
	basis cc-pvtz
}

set_num_threads( 4 )
memory 2 gb

molecule MOL {
0 1

O	 3.219313	 0.959291	 -0.614106
C	 2.698710	 0.058177	 -0.050237
C	 1.246364	 -0.005813	 0.348416
O	 3.344101	 -1.038700	 0.312317
C	 0.453207	 1.232821	 -0.049003
H	 0.839270	 -0.907818	 -0.092281
H	 1.216683	 -0.160521	 1.422434
C	 -0.998367	 1.217982	 0.432195
H	 0.481498	 1.345443	 -1.127236
H	 0.951413	 2.105557	 0.354893
C	 -1.882951	 0.151251	 -0.211235
H	 -1.429490	 2.193659	 0.228843
H	 -1.019755	 1.099323	 1.513279
C	 -3.342450	 0.243269	 0.226009
H	 -1.826223	 0.246578	 -1.293162
H	 -1.508033	 -0.839650	 0.027695
C	 -4.234517	 -0.821434	 -0.405970
H	 -3.730149	 1.228245	 -0.022691
H	 -3.398860	 0.159952	 1.308941
C	 -5.380224	 -1.259144	 0.500420
H	 -4.639709	 -0.441539	 -1.339897
H	 -3.631245	 -1.686979	 -0.666263
H	 -5.993089	 -2.014678	 0.022353
H	 -6.023114	 -0.421737	 0.750523
H	 -5.006645	 -1.676058	 1.429844
C	 4.720529	 -1.114346	 0.001449
H	 4.874321	 -1.055557	 -1.065852
H	 5.057824	 -2.067950	 0.373977
H	 5.264321	 -0.313596	 0.480350

	symmetry c1
}
set optking {
	frozen_dihedral = ("
		21 17 14 11
	")
}

ee = optimize('scf')
oeprop('DIPOLE', 'QUADRUPOLE', 'MULLIKEN_CHARGES')
f=open( 'psi4out.xyz', 'w' )
f.write( "29  " )
f.write( str(ee) + "\n" )
f.write( MOL.save_string_xyz() )
f.close()
--------------------------------------------------------------------------

    Molecular point group: c1
  Charge       = 0
  Multiplicity = 1
  Basis Set: CC-PVTZ
  Basis Set:
  @DF-RHF Final Energy:  -501.22173234064428
    Total Energy =                       -501.2217323406441665
    Molecular point group: c1
  Basis Set: CC-PVTZ
  Basis Set:
  Basis Set: CC-PVTZ
  Basis Set:
  @DF-RHF Final Energy:  -501.22197799558251
    Total Energy =                       -501.2219779955823924
  Basis Set: CC-PVTZ
  Basis Set:
  Basis Set: CC-PVTZ
  Basis Set:
  @DF-RHF Final Energy:  -501.22202038623857
    Total Energy =                       -501.2220203862389099
  Basis Set: CC-PVTZ
  Basis Set:
  Basis Set: CC-PVTZ
  Basis Set:
  @DF-RHF Final Energy:  -501.22181836517848
    Total Energy =                       -501.2218183651785921
  Basis Set: CC-PVTZ
  Basis Set:
  Basis Set: CC-PVTZ
  Basis Set:
  @DF-RHF Final Energy:  -501.22203163624738
    Total Energy =                       -501.2220316362470385
  Basis Set: CC-PVTZ
  Basis Set:
  Charge       = 0
  Multiplicity = 1
  Basis Set: CC-PVTZ
  Basis Set:

    Orbital Energies (a.u.)
    -----------------------

    Doubly Occupied:

       1A    -20.596025     2A    -20.533868     3A    -11.364287
       4A    -11.278274     5A    -11.232997     6A    -11.217076
       7A    -11.215448     8A    -11.213986     9A    -11.213851
      10A    -11.212231    11A    -11.207220    12A     -1.471917
      13A     -1.365505    14A     -1.099022    15A     -1.067163
      16A     -1.020460    17A     -0.978143    18A     -0.928934
      19A     -0.862095    20A     -0.800266    21A     -0.790893
      22A     -0.765693    23A     -0.703050    24A     -0.685517
      25A     -0.676013    26A     -0.650691    27A     -0.627053
      28A     -0.608219    29A     -0.596640    30A     -0.583543
      31A     -0.566129    32A     -0.550849    33A     -0.533636
      34A     -0.531836    35A     -0.517700    36A     -0.508213
      37A     -0.500797    38A     -0.477274    39A     -0.471237
      40A     -0.461614    41A     -0.459262    42A     -0.458331
      43A     -0.443383    44A     -0.436852

  @DF-RHF Final Energy:  -501.22203131536799

   => Energetics <=

    Nuclear Repulsion Energy =            611.7403409567432391
    One-Electron Energy =               -1894.9583559965235509
    Two-Electron Energy =                 781.9959837244124401
    DFT Exchange-Correlation Energy =       0.0000000000000000
    Empirical Dispersion Energy =           0.0000000000000000
    PCM Polarization Energy =               0.0000000000000000
    EFP Energy =                            0.0000000000000000
    Total Energy =                       -501.2220313153678717
    Molecular point group: c1
  Basis Set: CC-PVTZ
  Basis Set:

  -Total Gradient:
     Atom            X                  Y                   Z
    ------   -----------------  -----------------  -----------------
       1       -0.000015317703    -0.000023439156    -0.000047412936
       2        0.000043476892     0.000057314259     0.000120497420
       3       -0.000036585596    -0.000024926326    -0.000051872431
       4       -0.000013460573    -0.000020478055    -0.000036858184
       5        0.000022763659     0.000034923781     0.000039183453
       6       -0.000040460438    -0.000034486576     0.000003172555
       7        0.000012529790     0.000012984471    -0.000016119795
       8       -0.000032720364     0.000038747637    -0.000047564791
       9        0.000005357307     0.000018101219    -0.000001196039
      10        0.000012013668    -0.000021042590     0.000006709339
      11        0.000642118163    -0.002018553768     0.002368817553
      12       -0.000020936520    -0.000005309292    -0.000006775025
      13       -0.000004814788     0.000010877030    -0.000007238403
      14       -0.001646211154     0.003126890985    -0.002768313631
      15        0.000014055417     0.000008672023     0.000027400439
      16        0.000029532281    -0.000031020514    -0.000005422209
      17        0.004388905631    -0.002670678839    -0.001767426273
      18        0.000000332082    -0.000003776739    -0.000014524738
      19       -0.000009789401    -0.000004078834     0.000007385912
      20        0.000017629371     0.000006859417    -0.000006333682
      21       -0.003363918896     0.001534699040     0.002194117117
      22        0.000010245014     0.000016139720     0.000005710772
      23       -0.000006773494    -0.000002430253    -0.000001311460
      24       -0.000001282274    -0.000001620758     0.000006303760
      25       -0.000005027233    -0.000004257281     0.000000922770
      26       -0.000000588178     0.000000135076    -0.000001604708
      27        0.000001312081    -0.000000157407    -0.000000177264
      28       -0.000000799289    -0.000000262282    -0.000000326001
      29       -0.000001585454     0.000000174015     0.000000256479

  **** Optimization is complete! (in 6 steps) ****
    Final optimized geometry and variables:
    Molecular point group: c1

    Geometry (in Angstrom), charge = 0, multiplicity = 1:

    O            3.190167691307     1.006736155901    -0.673999948074
    C            2.672375784915     0.113026050700    -0.095947519691
    C            1.220994999024     0.052259471529     0.306876433043
    O            3.320274870906    -0.977948016900     0.279735730935
    C            0.424940101918     1.284148629193    -0.105522175705
    H            0.814407189869    -0.856356929863    -0.120595429323
    H            1.193950980971    -0.087884565864     1.382948230709
    C           -1.026381935303     1.272104122860     0.376727850870
    H            0.452281866347     1.383254726572    -1.185099207435
    H            0.921569664851     2.162929806925     0.287046783759
    C           -1.907611718816     0.192662227871    -0.249049772187
    H           -1.460949249180     2.243020316902     0.158658349921
    H           -1.046827851853     1.170135679012     1.459653980260
    C           -3.363625064812     0.272355663390     0.204150140103
    H           -1.858806479459     0.277448730875    -1.332803830147
    H           -1.525932151475    -0.793604652539    -0.003445374127
    C           -4.270375164315    -0.777672523134    -0.450933880559
    H           -3.757631449801     1.266086694010     0.013261558860
    H           -3.389753313917     0.141684493599     1.283334386297
    C           -5.434961883928    -1.198339464784     0.442692097182
    H           -4.685317436174    -0.372655014402    -1.368804197145
    H           -3.690666387794    -1.654498385335    -0.720201151877
    H           -6.084854513384    -1.903466447792    -0.063136377244
    H           -6.036467726840    -0.341445227736     0.728564741509
    H           -5.079467934538    -1.668482299788     1.353532524939
    C            4.695943413238    -1.055975058330    -0.033949802437
    H            4.846662070918    -1.011456896871    -1.102381577168
    H            5.035662652829    -2.003971815930     0.350515564531
    H            5.239963196418    -0.248054891998     0.432496523597

  Mulliken Charges: (a.u.)
   Center  Symbol    Alpha    Beta     Spin     Total
       1     O     4.19696  4.19696  0.00000 -0.39392
       2     C     2.80483  2.80483  0.00000  0.39034
       3     C     3.10175  3.10175  0.00000 -0.20350
       4     O     4.14723  4.14723  0.00000 -0.29446
       5     C     3.09242  3.09242  0.00000 -0.18484
       6     H     0.43916  0.43916  0.00000  0.12169
       7     H     0.43991  0.43991  0.00000  0.12017
       8     C     3.10433  3.10433  0.00000 -0.20867
       9     H     0.44619  0.44619  0.00000  0.10762
      10     H     0.43963  0.43963  0.00000  0.12074
      11     C     3.09316  3.09316  0.00000 -0.18632
      12     H     0.44523  0.44523  0.00000  0.10954
      13     H     0.45346  0.45346  0.00000  0.09308
      14     C     3.08905  3.08905  0.00000 -0.17810
      15     H     0.45227  0.45227  0.00000  0.09545
      16     H     0.45376  0.45376  0.00000  0.09248
      17     C     3.08493  3.08493  0.00000 -0.16987
      18     H     0.45141  0.45141  0.00000  0.09718
      19     H     0.45608  0.45608  0.00000  0.08785
      20     C     3.14868  3.14868  0.00000 -0.29736
      21     H     0.45275  0.45275  0.00000  0.09451
      22     H     0.45493  0.45493  0.00000  0.09014
      23     H     0.44924  0.44924  0.00000  0.10152
      24     H     0.45451  0.45451  0.00000  0.09098
      25     H     0.45612  0.45612  0.00000  0.08775
      26     C     3.03814  3.03814  0.00000 -0.07628
      27     H     0.45434  0.45434  0.00000  0.09132
      28     H     0.44528  0.44528  0.00000  0.10944
      29     H     0.45423  0.45423  0.00000  0.09155

   Total alpha = 44.00000, Total beta = 44.00000, Total charge = -0.00000
