  ==> Input File <==

--------------------------------------------------------------------------
set {
	reference rhf
	basis 6-31G*
}

set_num_threads( 4 )
memory 2 gb

molecule MOL {
0 1

O	 -0.291628	 1.323815	 -0.000732
C	 -0.449655	 0.146360	 0.000961
C	 -1.783294	 -0.549321	 -0.000296
O	 0.550821	 -0.724572	 0.000672
H	 -1.863538	 -1.185371	 -0.874187
H	 -2.574672	 0.185258	 -0.002793
H	 -1.866414	 -1.182381	 0.875436
C	 0.256399	 -2.040364	 0.434596
H	 -0.096648	 -2.033151	 1.455704
H	 1.182655	 -2.588659	 0.362690
H	 -0.495209	 -2.489349	 -0.198523

	symmetry c1
}
set optking {
	frozen_dihedral = ("
		8 4 2 1
	")
}

ee = optimize('scf')
oeprop('DIPOLE', 'QUADRUPOLE', 'MULLIKEN_CHARGES')
f=open( 'psi4out.xyz', 'w' )
f.write( "11  " )
f.write( str(ee) + "\n" )
f.write( MOL.save_string_xyz() )
f.close()
--------------------------------------------------------------------------

    Molecular point group: c1
  Charge       = 0
  Multiplicity = 1
  Basis Set: 6-31G*
  Basis Set:
  @DF-RHF Final Energy:  -266.81146739652706
    Total Energy =                       -266.8114673965269503
    Molecular point group: c1
  Basis Set: 6-31G*
  Basis Set:
  Basis Set: 6-31G*
  Basis Set:
  @DF-RHF Final Energy:  -266.81094993175765
    Total Energy =                       -266.8109499317575342
  Basis Set: 6-31G*
  Basis Set:
  Basis Set: 6-31G*
  Basis Set:
  @DF-RHF Final Energy:  -266.81867591648393
    Total Energy =                       -266.8186759164836417
  Basis Set: 6-31G*
  Basis Set:
  Basis Set: 6-31G*
  Basis Set:
  @DF-RHF Final Energy:  -266.82026089254413
    Total Energy =                       -266.8202608925442405
  Basis Set: 6-31G*
  Basis Set:
  @DF-RHF Final Energy:  -266.81947223437049
    Total Energy =                       -266.8194722343703233
  Basis Set: 6-31G*
  Basis Set:
  @DF-RHF Final Energy:  -266.82048382629523
    Total Energy =                       -266.8204838262952308
  Basis Set: 6-31G*
  Basis Set:
  Basis Set: 6-31G*
  Basis Set:
  @DF-RHF Final Energy:  -266.82071724163774
    Total Energy =                       -266.8207172416376238
  Basis Set: 6-31G*
  Basis Set:
  Basis Set: 6-31G*
  Basis Set:
  @DF-RHF Final Energy:  -266.82071828227640
    Total Energy =                       -266.8207182822765162
  Basis Set: 6-31G*
  Basis Set:
  Charge       = 0
  Multiplicity = 1
  Basis Set: 6-31G*
  Basis Set:

    Orbital Energies (a.u.)
    -----------------------

    Doubly Occupied:

       1A    -20.603259     2A    -20.542507     3A    -11.378331
       4A    -11.298550     5A    -11.244590     6A     -1.465138
       7A     -1.367677     8A     -1.022935     9A     -0.984845
      10A     -0.784392    11A     -0.698755    12A     -0.686306
      13A     -0.678575    14A     -0.604787    15A     -0.594263
      16A     -0.578161    17A     -0.546883    18A     -0.513746
      19A     -0.450091    20A     -0.436545

  @DF-RHF Final Energy:  -266.82071845807258

   => Energetics <=

    Nuclear Repulsion Energy =            182.8299950548127413
    One-Electron Energy =                -726.3407537439139787
    Two-Electron Energy =                 276.6900402310286040
    DFT Exchange-Correlation Energy =       0.0000000000000000
    Empirical Dispersion Energy =           0.0000000000000000
    PCM Polarization Energy =               0.0000000000000000
    EFP Energy =                            0.0000000000000000
    Total Energy =                       -266.8207184580726903
    Molecular point group: c1
  Basis Set: 6-31G*
  Basis Set:

  -Total Gradient:
     Atom            X                  Y                   Z
    ------   -----------------  -----------------  -----------------
       1        0.000003125799    -0.000027923277     0.002207487426
       2        0.000249429387     0.000254705890    -0.002161752979
       3        0.000001650898     0.000004891830     0.000032547397
       4       -0.000671253591    -0.000741053685    -0.001818810274
       5       -0.000002547848    -0.000002817876    -0.000013581916
       6       -0.000002041624     0.000000923683    -0.000005667441
       7        0.000015976139    -0.000001150385    -0.000015988762
       8        0.000411363655     0.000503108237     0.001765343488
       9       -0.000005584553     0.000019771664     0.000000321165
      10       -0.000003978106    -0.000002317916    -0.000000947047
      11        0.000003859843    -0.000008138170     0.000011048941

  **** Optimization is complete! (in 9 steps) ****
    Final optimized geometry and variables:
    Molecular point group: c1

    Geometry (in Angstrom), charge = 0, multiplicity = 1:

    O            0.077461917481     1.678714830623    -0.093941122852
    C           -0.144478642550     0.516897243296    -0.085721331359
    C           -1.545817578852    -0.049894021310    -0.108859850209
    O            0.874802689890    -0.347371089674    -0.077674184526
    H           -1.677409202962    -0.716265130223    -0.954268871822
    H           -2.239353636181     0.773092925409    -0.186952077725
    H           -1.760273470738    -0.610711824426     0.794036301084
    C            0.719976907153    -1.683080359865     0.339882984159
    H            0.363001594764    -1.736737405688     1.361260582576
    H            1.703076372518    -2.123885873617     0.288023275059
    H            0.051253825459    -2.235261845780    -0.308523413801

  Mulliken Charges: (a.u.)
   Center  Symbol    Alpha    Beta     Spin     Total
       1     O     4.26221  4.26221  0.00000 -0.52443
       2     C     2.61632  2.61632  0.00000  0.76736
       3     C     3.30821  3.30821  0.00000 -0.61642
       4     O     4.29597  4.29597  0.00000 -0.59194
       5     H     0.40177  0.40177  0.00000  0.19646
       6     H     0.38735  0.38735  0.00000  0.22530
       7     H     0.40361  0.40361  0.00000  0.19277
       8     C     3.09383  3.09383  0.00000 -0.18765
       9     H     0.41563  0.41563  0.00000  0.16873
      10     H     0.39761  0.39761  0.00000  0.20477
      11     H     0.41747  0.41747  0.00000  0.16505

   Total alpha = 20.00000, Total beta = 20.00000, Total charge =  0.00000
