                              Psi4 1.0.54 Driver

  ==> Input File <==

--------------------------------------------------------------------------
set {
	reference rhf
	basis cc-pvtz
}

set_num_threads( 4 )
memory 2 gb

molecule MOL {
0 1

O	 -2.026081	 -0.180467	 0.764058
C	 -1.081510	 0.147522	 0.122720
C	 0.327029	 -0.064006	 0.641890
C	 -1.230946	 0.806099	 -1.227915
C	 1.349460	 -0.017068	 -0.500215
H	 0.399029	 -1.014606	 1.159950
H	 0.538021	 0.726928	 1.350471
C	 2.779782	 -0.209014	 -0.009215
H	 1.115007	 -0.782959	 -1.233891
H	 1.259071	 0.936707	 -1.006644
H	 3.481860	 -0.160270	 -0.833072
H	 2.903471	 -1.171535	 0.475559
H	 3.052569	 0.559584	 0.705428
H	 -0.636784	 1.711648	 -1.279962
H	 -2.268663	 1.032820	 -1.418277
H	 -0.859682	 0.134798	 -1.995620

	symmetry c1
}
set optking {
	frozen_dihedral = ("
		4 2 3 5
	")
}

ee,wfn = optimize('scf', return_wfn=True)
oeprop( wfn, 'DIPOLE', 'QUADRUPOLE', 'MULLIKEN_CHARGES')
f=open( 'psi4out.xyz', 'w' )
f.write( "16  " )
f.write( str(ee) + "\n" )
f.write( MOL.save_string_xyz() )
f.close()
--------------------------------------------------------------------------

    Molecular point group: c1
  Charge       = 0
  Multiplicity = 1
  Basis Set: CC-PVTZ
  Basis Set:
  @DF-RHF Final Energy:  -270.12314070340545
    Total Energy =                       -270.1231407034057383
    Molecular point group: c1
  Basis Set: CC-PVTZ
  Basis Set:
  Basis Set: CC-PVTZ
  Basis Set:
  @DF-RHF Final Energy:  -269.94712416403820
    Total Energy =                       -269.9471241640381436
  Basis Set: CC-PVTZ
  Basis Set:
  Basis Set: CC-PVTZ
  Basis Set:
  @DF-RHF Final Energy:  -270.06567271516826
    Total Energy =                       -270.0656727151681480
  Basis Set: CC-PVTZ
  Basis Set:
  Basis Set: CC-PVTZ
  Basis Set:
  @DF-RHF Final Energy:  -270.12177403912608
    Total Energy =                       -270.1217740391261373
  Basis Set: CC-PVTZ
  Basis Set:
  @DF-RHF Final Energy:  -270.12614918690218
    Total Energy =                       -270.1261491869019551
  @DF-RHF Final Energy:  -270.12710710066654
    Total Energy =                       -270.1271071006665352
  @DF-RHF Final Energy:  -270.12574880139232
    Total Energy =                       -270.1257488013922625
  @DF-RHF Final Energy:  -270.12716183258908
    Total Energy =                       -270.1271618325889676
  Basis Set: CC-PVTZ
  Basis Set:
  @DF-RHF Final Energy:  -270.12731215746680
    Total Energy =                       -270.1273121574668039
  Basis Set: CC-PVTZ
  Basis Set:
  Basis Set: CC-PVTZ
  Basis Set:
  @DF-RHF Final Energy:  -270.12731393479601
    Total Energy =                       -270.1273139347957226
  Basis Set: CC-PVTZ
  Basis Set:
  Basis Set: CC-PVTZ
  Basis Set:
  @DF-RHF Final Energy:  -270.12730629805890
    Total Energy =                       -270.1273062980587838
  Basis Set: CC-PVTZ
  Basis Set:
  Charge       = 0
  Multiplicity = 1
  Basis Set: CC-PVTZ
  Basis Set:

    Orbital Energies (a.u.)
    -----------------------

    Doubly Occupied:

       1A    -20.535466     2A    -11.321059     3A    -11.232018
       4A    -11.229792     5A    -11.226935     6A    -11.219382
       7A     -1.396762     8A     -1.086151     9A     -1.010307
      10A     -0.953215    11A     -0.835454    12A     -0.734518
      13A     -0.657749    14A     -0.654732    15A     -0.626805
      16A     -0.600512    17A     -0.578201    18A     -0.553149
      19A     -0.540149    20A     -0.522131    21A     -0.506063
      22A     -0.490554    23A     -0.472384    24A     -0.400404

  @DF-RHF Final Energy:  -270.12731500805626

   => Energetics <=

    Nuclear Repulsion Energy =            237.1413232837548151
    One-Electron Energy =                -835.7694940859377084
    Two-Electron Energy =                 328.5008557941265508
    DFT Exchange-Correlation Energy =       0.0000000000000000
    Empirical Dispersion Energy =           0.0000000000000000
    PCM Polarization Energy =               0.0000000000000000
    EFP Energy =                            0.0000000000000000
    Total Energy =                       -270.1273150080563710
    Molecular point group: c1
  Basis Set: CC-PVTZ
  Basis Set:

  -Total Gradient:
     Atom            X                  Y                   Z
    ------   -----------------  -----------------  -----------------
       1        0.000019315943    -0.000000838287    -0.000007849156
       2       -0.000169123064     0.002413725141     0.000204964301
       3       -0.000185575278    -0.002398085213     0.000108516773
       4        0.000130105237    -0.001229385265    -0.000166245253
       5        0.000144564117     0.001219539628    -0.000111571744
       6       -0.000006198830    -0.000001971065    -0.000003499233
       7        0.000005922182     0.000012017765     0.000010546651
       8        0.000035677683    -0.000005477434    -0.000019400293
       9       -0.000002861197    -0.000047168733    -0.000024592541
      10        0.000011697992     0.000038072415    -0.000035910857
      11        0.000007869124    -0.000001733041    -0.000003222739
      12       -0.000010843171    -0.000040856233     0.000034958465
      13        0.000001500010     0.000051717081     0.000029307278
      14        0.000010689619    -0.000001932756    -0.000012920578
      15       -0.000002191576    -0.000002896492     0.000007416748
      16        0.000009451207    -0.000004727510    -0.000010497822

  **** Optimization is complete! (in 12 steps) ****
    Final optimized geometry and variables:
    Molecular point group: c1

    Geometry (in Angstrom), charge = 0, multiplicity = 1:

    O           -2.200862896029    -0.060730708418    -0.083685940459
    C           -1.063691605224     0.089215177458    -0.393561436793
    C            0.018944381539     0.052095977021     0.674826494613
    C           -0.679241271496     0.335158688906    -1.833649829878
    C            1.456606727436    -0.200018313353     0.227120885708
    H           -0.293957066469    -0.685980780419     1.402738518155
    H           -0.037495486928     1.014139765681     1.179825625971
    C            2.425108488503    -0.217445456985     1.405543105269
    H            1.518352663370    -1.148896379437    -0.297326956329
    H            1.768720732978     0.562647521626    -0.477851414507
    H            3.439859545865    -0.399960649332     1.072704554060
    H            2.163524162613    -0.994533921592     2.115330616940
    H            2.414350532577     0.729650890780     1.934369153277
    H           -0.124601097760     1.262261499027    -1.927313922613
    H           -1.572877915842     0.382781160659    -2.436173220482
    H           -0.038267193862    -0.460843896282    -2.194017256526

  Mulliken Charges: (a.u.)
   Center  Symbol    Alpha    Beta     Spin     Total
       1     O     4.17526  4.17526  0.00000 -0.35052
       2     C     2.86087  2.86087  0.00000  0.27826
       3     C     3.09575  3.09575  0.00000 -0.19149
       4     C     3.16330  3.16330  0.00000 -0.32660
       5     C     3.09618  3.09618  0.00000 -0.19235
       6     H     0.43694  0.43694  0.00000  0.12612
       7     H     0.44297  0.44297  0.00000  0.11405
       8     C     3.14976  3.14976  0.00000 -0.29953
       9     H     0.44884  0.44884  0.00000  0.10231
      10     H     0.45074  0.45074  0.00000  0.09852
      11     H     0.44605  0.44605  0.00000  0.10789
      12     H     0.45191  0.45191  0.00000  0.09618
      13     H     0.45373  0.45373  0.00000  0.09255
      14     H     0.44793  0.44793  0.00000  0.10414
      15     H     0.43204  0.43204  0.00000  0.13593
      16     H     0.44772  0.44772  0.00000  0.10455

   Total alpha = 24.00000, Total beta = 24.00000, Total charge = -0.00000

*** Psi4 exiting successfully. Buy a developer a beer!
