  ==> Input File <==

--------------------------------------------------------------------------
set {
	reference rhf
	basis 6-31G*
}

set_num_threads( 1 )
memory 2 gb

molecule MOL {
0 1

H	 3.893188	 0.355400	 -0.101367
N	 3.092854	 -0.246221	 -0.068770
C	 1.865559	 0.531981	 0.018834
H	 3.199514	 -0.826043	 0.741946
C	 0.645745	 -0.382037	 -0.029944
H	 1.841966	 1.207024	 -0.831236
H	 1.815756	 1.155410	 0.915079
C	 -0.679275	 0.379305	 0.025956
H	 0.698998	 -0.976915	 -0.937203
H	 0.693479	 -1.083846	 0.802235
C	 -0.913373	 1.084147	 1.363406
H	 -1.500204	 -0.310981	 -0.162274
H	 -0.710855	 1.115327	 -0.775993
C	 -2.240407	 1.840253	 1.416244
H	 -0.883560	 0.350564	 2.166015
H	 -0.095884	 1.776553	 1.552988
H	 -3.080638	 1.168582	 1.263969
H	 -2.377509	 2.328405	 2.376200
H	 -2.286791	 2.605591	 0.646505

	symmetry c1
}
set optking {
	frozen_dihedral = ("
		6 3 5 9,
		12 8 11 15,
		1 2 3 6
	")
}

ee = energy('scf')
oeprop('DIPOLE', 'QUADRUPOLE', 'MULLIKEN_CHARGES')
f=open( 'psi4out.xyz', 'w' )
f.write( "19  " )
f.write( str(ee) + "\n" )
f.write( MOL.save_string_xyz() )
f.close()
--------------------------------------------------------------------------

    Molecular point group: c1

    Geometry (in Angstrom), charge = 0, multiplicity = 1:

       Center              X                  Y                   Z               Mass
    ------------   -----------------  -----------------  -----------------  -----------------
           H          3.564097524486    -0.183380617049    -0.563887321205     1.007825032070
           N          2.763763524486    -0.785001617049    -0.531290321205    14.003074004780
           C          1.536468524486    -0.006799617049    -0.443686321205    12.000000000000
           H          2.870423524486    -1.364823617049     0.279425678795     1.007825032070
           C          0.316654524486    -0.920817617049    -0.492464321205    12.000000000000
           H          1.512875524486     0.668243382951    -1.293756321205     1.007825032070
           H          1.486665524486     0.616629382951     0.452558678795     1.007825032070
           C         -1.008365475514    -0.159475617049    -0.436564321205    12.000000000000
           H          0.369907524486    -1.515695617049    -1.399723321205     1.007825032070
           H          0.364388524486    -1.622626617049     0.339714678795     1.007825032070
           C         -1.242463475514     0.545366382951     0.900885678795    12.000000000000
           H         -1.829294475514    -0.849761617049    -0.624794321205     1.007825032070
           H         -1.039945475514     0.576546382951    -1.238513321205     1.007825032070
           C         -2.569497475514     1.301472382951     0.953723678795    12.000000000000
           H         -1.212650475514    -0.188216617049     1.703494678795     1.007825032070
           H         -0.424974475514     1.237772382951     1.090467678795     1.007825032070
           H         -3.409728475514     0.629801382951     0.801448678795     1.007825032070
           H         -2.706599475514     1.789624382951     1.913679678795     1.007825032070
           H         -2.615881475514     2.066810382951     0.183984678795     1.007825032070

  Charge       = 0
  Multiplicity = 1
  Basis Set: 6-31G*
  Basis Set:

    Orbital Energies (a.u.)
    -----------------------

    Doubly Occupied:

       1A    -15.532247     2A    -11.238947     3A    -11.214382
       4A    -11.212786     5A    -11.209408     6A    -11.208279
       7A     -1.176510     8A     -1.074448     9A     -0.996872
      10A     -0.898930    11A     -0.828656    12A     -0.777881
      13A     -0.657103    14A     -0.636858    15A     -0.630574
      16A     -0.586951    17A     -0.569169    18A     -0.547995
      19A     -0.528798    20A     -0.504817    21A     -0.480756
      22A     -0.463729    23A     -0.459496    24A     -0.450152
      25A     -0.379113

  @DF-RHF Final Energy:  -251.34914432363928

   => Energetics <=

    Nuclear Repulsion Energy =            249.8458998910615492
    One-Electron Energy =                -833.8604311892534042
    Two-Electron Energy =                 332.6653869745530301
    DFT Exchange-Correlation Energy =       0.0000000000000000
    Empirical Dispersion Energy =           0.0000000000000000
    PCM Polarization Energy =               0.0000000000000000
    EFP Energy =                            0.0000000000000000
    Total Energy =                       -251.3491443236388250

  Mulliken Charges: (a.u.)
   Center  Symbol    Alpha    Beta     Spin     Total
       1     H     0.33260  0.33260  0.00000  0.33480
       2     N     3.92187  3.92187  0.00000 -0.84375
       3     C     3.06256  3.06256  0.00000 -0.12512
       4     H     0.33540  0.33540  0.00000  0.32920
       5     C     3.15303  3.15303  0.00000 -0.30607
       6     H     0.42116  0.42116  0.00000  0.15767
       7     H     0.43220  0.43220  0.00000  0.13559
       8     C     3.15654  3.15654  0.00000 -0.31308
       9     H     0.41100  0.41100  0.00000  0.17801
      10     H     0.42779  0.42779  0.00000  0.14442
      11     C     3.15454  3.15454  0.00000 -0.30908
      12     H     0.42040  0.42040  0.00000  0.15920
      13     H     0.42369  0.42369  0.00000  0.15261
      14     C     3.23842  3.23842  0.00000 -0.47684
      15     H     0.42353  0.42353  0.00000  0.15294
      16     H     0.42188  0.42188  0.00000  0.15624
      17     H     0.42172  0.42172  0.00000  0.15657
      18     H     0.41982  0.41982  0.00000  0.16037
      19     H     0.42184  0.42184  0.00000  0.15632

   Total alpha = 25.00000, Total beta = 25.00000, Total charge =  0.00000
