  ==> Input File <==

--------------------------------------------------------------------------
set {
	reference rhf
	basis cc-pvtz
}

set_num_threads( 4 )
memory 2 gb

molecule MOL {
0 1

H	 -2.816458	 -0.841657	 -0.064679
N	 -1.878861	 -0.711874	 0.250184
C	 -1.341419	 0.551458	 -0.220231
H	 -1.333674	 -1.468530	 -0.105118
C	 0.082190	 0.731516	 0.254705
H	 -1.357065	 0.652078	 -1.304747
H	 -1.939897	 1.357530	 0.189797
O	 0.881195	 -0.248324	 -0.336237
H	 0.440901	 1.722476	 -0.020063
H	 0.119896	 0.643586	 1.338114
C	 0.221868	 -1.438748	 -0.614444
H	 0.934103	 -2.116335	 -1.062756
H	 -0.172758	 -1.895713	 0.290624
H	 -0.600792	 -1.285042	 -1.308826

	symmetry c1
}
set optking {
	frozen_dihedral = ("
		11 8 5 3
	")
}

ee = optimize('scf')
oeprop('DIPOLE', 'QUADRUPOLE', 'MULLIKEN_CHARGES')
f=open( 'psi4out.xyz', 'w' )
f.write( "14  " )
f.write( str(ee) + "\n" )
f.write( MOL.save_string_xyz() )
f.close()
--------------------------------------------------------------------------

    Molecular point group: c1
  Charge       = 0
  Multiplicity = 1
  Basis Set: CC-PVTZ
  Basis Set:
  @DF-RHF Final Energy:  -248.14851438122832
    Total Energy =                       -248.1485143812284377
    Molecular point group: c1
  Basis Set: CC-PVTZ
  Basis Set:
  Basis Set: CC-PVTZ
  Basis Set:
  @DF-RHF Final Energy:  -248.19434109138649
    Total Energy =                       -248.1943410913864341
  Basis Set: CC-PVTZ
  Basis Set:
  Basis Set: CC-PVTZ
  Basis Set:
  @DF-RHF Final Energy:  -248.20624326517597
    Total Energy =                       -248.2062432651762265
  Basis Set: CC-PVTZ
  Basis Set:
  Basis Set: CC-PVTZ
  Basis Set:
  @DF-RHF Final Energy:  -248.21017027842808
    Total Energy =                       -248.2101702784282793
  Basis Set: CC-PVTZ
  Basis Set:
  @DF-RHF Final Energy:  -248.21306696140923
    Total Energy =                       -248.2130669614092540
  @DF-RHF Final Energy:  -248.21354168965556
    Total Energy =                       -248.2135416896554716
  Basis Set: CC-PVTZ
  Basis Set:
  @DF-RHF Final Energy:  -248.21361794778053
    Total Energy =                       -248.2136179477805626
  Basis Set: CC-PVTZ
  Basis Set:
  Basis Set: CC-PVTZ
  Basis Set:
  @DF-RHF Final Energy:  -248.21363124452492
    Total Energy =                       -248.2136312445250610
  Basis Set: CC-PVTZ
  Basis Set:
  Basis Set: CC-PVTZ
  Basis Set:
  @DF-RHF Final Energy:  -248.21363279688256
    Total Energy =                       -248.2136327968827345
  Basis Set: CC-PVTZ
  Basis Set:
  Charge       = 0
  Multiplicity = 1
  Basis Set: CC-PVTZ
  Basis Set:

    Orbital Energies (a.u.)
    -----------------------

    Doubly Occupied:

       1A    -20.542628     2A    -15.535248     3A    -11.263014
       4A    -11.262091     5A    -11.248535     6A     -1.373050
       7A     -1.184828     8A     -1.002968     9A     -0.920549
      10A     -0.807177    11A     -0.691120    12A     -0.674361
      13A     -0.640926    14A     -0.620397    15A     -0.605409
      16A     -0.549106    17A     -0.536225    18A     -0.516820
      19A     -0.456612    20A     -0.410531    21A     -0.391885

  @DF-RHF Final Energy:  -248.21363303484861

   => Energetics <=

    Nuclear Repulsion Energy =            197.1000895999279123
    One-Electron Energy =                -728.1604837577410763
    Two-Electron Energy =                 282.8467611229644945
    DFT Exchange-Correlation Energy =       0.0000000000000000
    Empirical Dispersion Energy =           0.0000000000000000
    PCM Polarization Energy =               0.0000000000000000
    EFP Energy =                            0.0000000000000000
    Total Energy =                       -248.2136330348486126
    Molecular point group: c1
  Basis Set: CC-PVTZ
  Basis Set:

  -Total Gradient:
     Atom            X                  Y                   Z
    ------   -----------------  -----------------  -----------------
       1       -0.000008217166     0.000005818764     0.000012283226
       2        0.000018212992    -0.000050014170    -0.000021136279
       3       -0.000681482699    -0.002345141058     0.002604664630
       4       -0.000018437562     0.000023122636     0.000007190438
       5        0.000690558468     0.004274154215    -0.005753264775
       6        0.000000527416    -0.000002474334    -0.000001446280
       7        0.000004022308     0.000013107032    -0.000003003948
       8        0.000765960459    -0.003340337188     0.006803059285
       9        0.000000450342     0.000004113835    -0.000002471741
      10       -0.000004799781    -0.000015074582    -0.000006744849
      11       -0.000747956815     0.001410110554    -0.003621495462
      12       -0.000007438807     0.000016535485     0.000004149959
      13       -0.000004174909     0.000005290386    -0.000008303793
      14       -0.000007224245     0.000000788428    -0.000013480411

  **** Optimization is complete! (in 10 steps) ****
    Final optimized geometry and variables:
    Molecular point group: c1

    Geometry (in Angstrom), charge = 0, multiplicity = 1:

    H           -2.737956046618    -0.111303523726     0.435285793880
    N           -1.759129857171    -0.276926676312     0.529609478429
    C           -0.997520423436     0.790294091540    -0.101470415172
    H           -1.571988103924    -1.166863740625     0.123620392214
    C            0.446104639686     0.887059816906     0.376062141775
    H           -1.025232453708     0.760405069143    -1.190063456879
    H           -1.461525102412     1.725524179726     0.189932184792
    O            1.385048435152    -0.003190149821    -0.168020755436
    H            0.819745669217     1.874433385918     0.136858128859
    H            0.440350267351     0.781779707656     1.457513686804
    C            0.993447970897    -1.266801629649    -0.586975455225
    H            1.874402774501    -1.754391183082    -0.979204145006
    H            0.608086695006    -1.868931509000     0.232391834273
    H            0.251157407818    -1.230681803322    -1.378803158953

  Mulliken Charges: (a.u.)
   Center  Symbol    Alpha    Beta     Spin     Total
       1     H     0.42706  0.42706  0.00000  0.14588
       2     N     3.68826  3.68826  0.00000 -0.37652
       3     C     3.06249  3.06249  0.00000 -0.12499
       4     H     0.42812  0.42812  0.00000  0.14375
       5     C     2.96290  2.96290  0.00000  0.07420
       6     H     0.45552  0.45552  0.00000  0.08896
       7     H     0.44833  0.44833  0.00000  0.10334
       8     O     4.18004  4.18004  0.00000 -0.36009
       9     H     0.45833  0.45833  0.00000  0.08333
      10     H     0.46684  0.46684  0.00000  0.06632
      11     C     3.03569  3.03569  0.00000 -0.07138
      12     H     0.44247  0.44247  0.00000  0.11507
      13     H     0.46939  0.46939  0.00000  0.06121
      14     H     0.47454  0.47454  0.00000  0.05091

   Total alpha = 21.00000, Total beta = 21.00000, Total charge = -0.00000
