  ==> Input File <==

--------------------------------------------------------------------------
set {
	reference rhf
	basis 6-31G*
}

set_num_threads( 4 )
memory 2 gb

molecule MOL {
0 1

H	 2.184539	 -1.255076	 -0.473247
N	 2.434251	 -0.367735	 -0.081097
C	 1.267428	 0.496480	 0.024474
H	 3.117025	 0.037367	 -0.693165
C	 -0.016086	 -0.325158	 -0.029487
H	 1.288818	 1.183521	 -0.816092
H	 1.267576	 1.109062	 0.929528
C	 -1.282277	 0.529072	 0.046735
H	 -0.012495	 -0.908639	 -0.945788
H	 -0.015903	 -1.041248	 0.791956
C	 -2.563920	 -0.301775	 -0.006060
H	 -1.284084	 1.244622	 -0.773004
H	 -1.271387	 1.115393	 0.963286
H	 -2.621848	 -0.873522	 -0.927727
H	 -3.445135	 0.329952	 0.047812
H	 -2.609542	 -1.004582	 0.821105

	symmetry c1
}
set optking {
	frozen_dihedral = ("
		1 2 3 6
	")
}

ee = optimize('scf')
oeprop('DIPOLE', 'QUADRUPOLE', 'MULLIKEN_CHARGES')
f=open( 'psi4out.xyz', 'w' )
f.write( "16  " )
f.write( str(ee) + "\n" )
f.write( MOL.save_string_xyz() )
f.close()
--------------------------------------------------------------------------

    Molecular point group: c1
  Charge       = 0
  Multiplicity = 1
  Basis Set: 6-31G*
  Basis Set:
  @DF-RHF Final Energy:  -212.31183888931582
    Total Energy =                       -212.3118388893158226
    Molecular point group: c1
  Basis Set: 6-31G*
  Basis Set:
  Basis Set: 6-31G*
  Basis Set:
  @DF-RHF Final Energy:  -212.31351515722881
    Total Energy =                       -212.3135151572288351
  Basis Set: 6-31G*
  Basis Set:
  Basis Set: 6-31G*
  Basis Set:
  @DF-RHF Final Energy:  -212.31374750658856
    Total Energy =                       -212.3137475065885837
  Basis Set: 6-31G*
  Basis Set:
  Basis Set: 6-31G*
  Basis Set:
  @DF-RHF Final Energy:  -212.31375448901929
    Total Energy =                       -212.3137544890191748
  Basis Set: 6-31G*
  Basis Set:
  Basis Set: 6-31G*
  Basis Set:
  @DF-RHF Final Energy:  -212.31375558726626
    Total Energy =                       -212.3137555872662006
  Basis Set: 6-31G*
  Basis Set:
  Charge       = 0
  Multiplicity = 1
  Basis Set: 6-31G*
  Basis Set:

    Orbital Energies (a.u.)
    -----------------------

    Doubly Occupied:

       1A    -15.528422     2A    -11.239133     3A    -11.218096
       4A    -11.215973     5A    -11.210394     6A     -1.173339
       7A     -1.062205     8A     -0.960230     9A     -0.846092
      10A     -0.797667    11A     -0.655930    12A     -0.646455
      13A     -0.598343    14A     -0.579153    15A     -0.571925
      16A     -0.520969    17A     -0.510335    18A     -0.473089
      19A     -0.469659    20A     -0.462593    21A     -0.373800

  @DF-RHF Final Energy:  -212.31375579001471

   => Energetics <=

    Nuclear Repulsion Energy =            186.3355542982675672
    One-Electron Energy =                -655.0710150641571090
    Two-Electron Energy =                 256.4217049758745475
    DFT Exchange-Correlation Energy =       0.0000000000000000
    Empirical Dispersion Energy =           0.0000000000000000
    PCM Polarization Energy =               0.0000000000000000
    EFP Energy =                            0.0000000000000000
    Total Energy =                       -212.3137557900150227
    Molecular point group: c1
  Basis Set: 6-31G*
  Basis Set:

  -Total Gradient:
     Atom            X                  Y                   Z
    ------   -----------------  -----------------  -----------------
       1       -0.000777685789    -0.001049650293     0.002867739076
       2        0.001343351607     0.001898299199    -0.003147097481
       3       -0.001985236854    -0.002765414106    -0.001387143266
       4       -0.000005120113    -0.000002752915     0.000009964468
       5        0.000017910712     0.000006111836    -0.000000806386
       6        0.001424324730     0.001914083169     0.001646389916
       7        0.000008091032     0.000016641681     0.000013035573
       8       -0.000028946834    -0.000007659519    -0.000013202095
       9       -0.000014777013     0.000005071634     0.000008611865
      10       -0.000005801322    -0.000006801349    -0.000002315200
      11        0.000007305386    -0.000000784857     0.000008462733
      12        0.000010679311    -0.000007124415    -0.000004381782
      13       -0.000000436435    -0.000001462625     0.000003006141
      14       -0.000002401812     0.000002998196    -0.000005280384
      15        0.000006895411     0.000002841778     0.000005128633
      16        0.000001847985    -0.000004397414    -0.000002111810

  **** Optimization is complete! (in 6 steps) ****
    Final optimized geometry and variables:
    Molecular point group: c1

    Geometry (in Angstrom), charge = 0, multiplicity = 1:

    H            2.253616422733    -1.257592031655    -0.405291134532
    N            2.450964905317    -0.358963632893    -0.013198785733
    C            1.269811186441     0.497023387545    -0.009664037545
    H            3.210127287103     0.044381113836    -0.522615947238
    C           -0.016704012677    -0.320809361728    -0.038919017316
    H            1.276386215982     1.206257368453    -0.837961145298
    H            1.283382627498     1.098915726976     0.895656629861
    C           -1.278586591676     0.534852681000     0.078066634381
    H           -0.054281607784    -0.895787976421    -0.963597042310
    H            0.012290511482    -1.042067096155     0.775247745817
    C           -2.562946575467    -0.292639803662     0.043160720527
    H           -1.297497900523     1.263672865545    -0.729423270917
    H           -1.242029961425     1.104393964069     1.003770365757
    H           -2.647314183749    -0.847263928523    -0.887139235078
    H           -3.440361121800     0.340384332895     0.131270356502
    H           -2.588938315801    -1.009865342521     0.858507994025

  Mulliken Charges: (a.u.)
   Center  Symbol    Alpha    Beta     Spin     Total
       1     H     0.33234  0.33234  0.00000  0.33531
       2     N     3.93228  3.93228  0.00000 -0.86457
       3     C     3.04504  3.04504  0.00000 -0.09008
       4     H     0.33150  0.33150  0.00000  0.33701
       5     C     3.16559  3.16559  0.00000 -0.33118
       6     H     0.43247  0.43247  0.00000  0.13507
       7     H     0.42123  0.42123  0.00000  0.15753
       8     C     3.15445  3.15445  0.00000 -0.30889
       9     H     0.42608  0.42608  0.00000  0.14783
      10     H     0.41583  0.41583  0.00000  0.16835
      11     C     3.23926  3.23926  0.00000 -0.47853
      12     H     0.42254  0.42254  0.00000  0.15492
      13     H     0.42030  0.42030  0.00000  0.15940
      14     H     0.42183  0.42183  0.00000  0.15635
      15     H     0.41867  0.41867  0.00000  0.16266
      16     H     0.42059  0.42059  0.00000  0.15882

   Total alpha = 21.00000, Total beta = 21.00000, Total charge = -0.00000
