                              Psi4 1.0.54 Driver

  ==> Input File <==

--------------------------------------------------------------------------
set {
	reference rhf
	basis cc-pvtz
}

set_num_threads( 4 )
memory 2 gb

molecule MOL {
0 1

H	 -2.023531	 0.171880	 0.105784
N	 -1.173824	 -0.310545	 -0.096857
C	 -0.022588	 0.563366	 0.065815
H	 -1.120667	 -1.089094	 0.526561
C	 1.270420	 -0.230572	 -0.014245
H	 -0.045354	 1.293678	 -0.735129
H	 -0.043155	 1.123061	 1.001180
H	 1.336273	 -0.754933	 -0.959364
H	 2.130728	 0.422015	 0.082222
H	 1.323344	 -0.967006	 0.781773

	symmetry c1
}
set optking {
	frozen_dihedral = ("
		1 2 3 6
	")
}

ee,wfn = optimize('scf', return_wfn=True)
oeprop( wfn, 'DIPOLE', 'QUADRUPOLE', 'MULLIKEN_CHARGES')
f=open( 'psi4out.xyz', 'w' )
f.write( "10  " )
f.write( str(ee) + "\n" )
f.write( MOL.save_string_xyz() )
f.close()
--------------------------------------------------------------------------

    Molecular point group: c1
  Charge       = 0
  Multiplicity = 1
  Basis Set: CC-PVTZ
  Basis Set:
  @DF-RHF Final Energy:  -134.30443204098142
    Total Energy =                       -134.3044320409814532
    Molecular point group: c1
  Basis Set: CC-PVTZ
  Basis Set:
  Basis Set: CC-PVTZ
  Basis Set:
  @DF-RHF Final Energy:  -134.30447352907953
    Total Energy =                       -134.3044735290795018
  Basis Set: CC-PVTZ
  Basis Set:
  Basis Set: CC-PVTZ
  Basis Set:
  @DF-RHF Final Energy:  -134.30447619166043
    Total Energy =                       -134.3044761916603989
  Basis Set: CC-PVTZ
  Basis Set:
  Charge       = 0
  Multiplicity = 1
  Basis Set: CC-PVTZ
  Basis Set:

    Orbital Energies (a.u.)
    -----------------------

    Doubly Occupied:

       1A    -15.527268     2A    -11.240890     3A    -11.206914
       4A     -1.178413     5A     -0.989225     6A     -0.825586
       7A     -0.659938     8A     -0.633255     9A     -0.585931
      10A     -0.518203    11A     -0.505341    12A     -0.490909
      13A     -0.386183

  @DF-RHF Final Energy:  -134.30447637035883

   => Energetics <=

    Nuclear Repulsion Energy =             83.5158622600685447
    One-Electron Energy =                -346.1445670289421059
    Two-Electron Energy =                 128.3242283985147196
    DFT Exchange-Correlation Energy =       0.0000000000000000
    Empirical Dispersion Energy =           0.0000000000000000
    PCM Polarization Energy =               0.0000000000000000
    EFP Energy =                            0.0000000000000000
    Total Energy =                       -134.3044763703588274
    Molecular point group: c1
  Basis Set: CC-PVTZ
  Basis Set:

  -Total Gradient:
     Atom            X                  Y                   Z
    ------   -----------------  -----------------  -----------------
       1        0.000093193751    -0.000461176219     0.001621645575
       2        0.000094748233     0.000398234351    -0.002238117527
       3       -0.001065448409     0.001016734830     0.001488290924
       4        0.000000953332    -0.000008916818     0.000008084788
       5        0.000013029278    -0.000004968799    -0.000002509956
       6        0.000841108784    -0.000944115674    -0.000863245306
       7        0.000004438972     0.000012884934    -0.000004784159
       8        0.000008271775    -0.000004274984    -0.000002539244
       9        0.000003895597    -0.000003705301    -0.000001889592
      10        0.000005808687    -0.000000696321    -0.000004935505

  **** Optimization is complete! (in 4 steps) ****
    Final optimized geometry and variables:
    Molecular point group: c1

    Geometry (in Angstrom), charge = 0, multiplicity = 1:

    H           -2.026707802787     0.173126690667     0.091158464642
    N           -1.174809550200    -0.309434165471    -0.104194371774
    C           -0.026102748157     0.567243574020     0.069889074064
    H           -1.128845327794    -1.074759001059     0.536751203786
    C            1.267654977473    -0.225655984300    -0.015679322578
    H           -0.039684554153     1.299551179520    -0.729653982012
    H           -0.049061428042     1.116972181639     1.010387995617
    H            1.327728631036    -0.754015171541    -0.959302508349
    H            2.127299866486     0.428905498613     0.068965188363
    H            1.329536307981    -0.957619609061     0.783940511431

  Mulliken Charges: (a.u.)
   Center  Symbol    Alpha    Beta     Spin     Total
       1     H     0.43085  0.43085  0.00000  0.13831
       2     N     3.68765  3.68765  0.00000 -0.37530
       3     C     3.01638  3.01638  0.00000 -0.03275
       4     H     0.43135  0.43135  0.00000  0.13729
       5     C     3.14175  3.14175  0.00000 -0.28350
       6     H     0.45867  0.45867  0.00000  0.08265
       7     H     0.46983  0.46983  0.00000  0.06034
       8     H     0.44894  0.44894  0.00000  0.10211
       9     H     0.45402  0.45402  0.00000  0.09196
      10     H     0.46056  0.46056  0.00000  0.07889

   Total alpha = 13.00000, Total beta = 13.00000, Total charge =  0.00000

*** Psi4 exiting successfully. Buy a developer a beer!
