                              Psi4 1.0.54 Driver

  ==> Input File <==

--------------------------------------------------------------------------
set {
	reference rhf
	basis cc-pvtz
}

set_num_threads( 4 )
memory 2 gb

molecule MOL {
0 1

H	 -4.230259	 0.539112	 0.036360
O	 -3.515113	 -0.019339	 -0.206321
C	 -2.302264	 0.528872	 0.237390
C	 -1.175688	 -0.398187	 -0.171891
H	 -2.148018	 1.514076	 -0.197759
H	 -2.310727	 0.646384	 1.319032
C	 0.196029	 0.106276	 0.266738
H	 -1.201873	 -0.515469	 -1.250677
H	 -1.365975	 -1.378728	 0.252664
C	 1.330220	 -0.826136	 -0.155230
H	 0.359542	 1.097229	 -0.145561
H	 0.212134	 0.218135	 1.348778
C	 2.719700	 -0.407669	 0.328325
H	 1.339388	 -0.911200	 -1.239363
H	 1.119001	 -1.821953	 0.224128
C	 3.508546	 0.448956	 -0.659235
H	 3.291670	 -1.304991	 0.543665
H	 2.625847	 0.124082	 1.271652
H	 3.612480	 -0.054783	 -1.615010
H	 3.031222	 1.404629	 -0.839621
H	 4.505172	 0.649792	 -0.282972

	symmetry c1
}
set optking {
	frozen_dihedral = ("
		16 13 10 14
	")
}

ee,wfn = optimize('scf', return_wfn=True)
oeprop( wfn, 'DIPOLE', 'QUADRUPOLE', 'MULLIKEN_CHARGES')
f=open( 'psi4out.xyz', 'w' )
f.write( "21  " )
f.write( str(ee) + "\n" )
f.write( MOL.save_string_xyz() )
f.close()
--------------------------------------------------------------------------

    Molecular point group: c1
  Charge       = 0
  Multiplicity = 1
  Basis Set: CC-PVTZ
  Basis Set:
  @DF-RHF Final Energy:  -310.33078362021200
    Total Energy =                       -310.3307836202120029
    Molecular point group: c1
  Basis Set: CC-PVTZ
  Basis Set:
  Basis Set: CC-PVTZ
  Basis Set:
  @DF-RHF Final Energy:  -310.33130356058740
    Total Energy =                       -310.3313035605874575
  Basis Set: CC-PVTZ
  Basis Set:
  Basis Set: CC-PVTZ
  Basis Set:
  @DF-RHF Final Energy:  -310.33134542859312
    Total Energy =                       -310.3313454285930675
  Basis Set: CC-PVTZ
  Basis Set:
  Basis Set: CC-PVTZ
  Basis Set:
  @DF-RHF Final Energy:  -310.33134974600699
    Total Energy =                       -310.3313497460072199
  Basis Set: CC-PVTZ
  Basis Set:
  Basis Set: CC-PVTZ
  Basis Set:
  @DF-RHF Final Energy:  -310.33135124786355
    Total Energy =                       -310.3313512478636085
  Basis Set: CC-PVTZ
  Basis Set:
  Charge       = 0
  Multiplicity = 1
  Basis Set: CC-PVTZ
  Basis Set:

    Orbital Energies (a.u.)
    -----------------------

    Doubly Occupied:

       1A    -20.545375     2A    -11.265005     3A    -11.213520
       4A    -11.212703     5A    -11.211013     6A    -11.208825
       7A    -11.206527     8A     -1.363234     9A     -1.086974
      10A     -1.034535    11A     -0.956303    12A     -0.872028
      13A     -0.805659    14A     -0.785351    15A     -0.696285
      16A     -0.662870    17A     -0.620044    18A     -0.611415
      19A     -0.588156    20A     -0.567531    21A     -0.540060
      22A     -0.521862    23A     -0.508828    24A     -0.487978
      25A     -0.479984    26A     -0.463058    27A     -0.455202
      28A     -0.442938    29A     -0.437396

  @DF-RHF Final Energy:  -310.33135136150577

   => Energetics <=

    Nuclear Repulsion Energy =            311.9416476493254322
    One-Electron Energy =               -1038.8446856571652006
    Two-Electron Energy =                 416.5716866463343422
    DFT Exchange-Correlation Energy =       0.0000000000000000
    Empirical Dispersion Energy =           0.0000000000000000
    PCM Polarization Energy =               0.0000000000000000
    EFP Energy =                            0.0000000000000000
    Total Energy =                       -310.3313513615054262
    Molecular point group: c1
  Basis Set: CC-PVTZ
  Basis Set:

  -Total Gradient:
     Atom            X                  Y                   Z
    ------   -----------------  -----------------  -----------------
       1        0.000006376436     0.000000115872     0.000000429894
       2        0.000003112647    -0.000000574134     0.000000869921
       3        0.000005748002     0.000005090631     0.000000565186
       4       -0.000001235629     0.000004752436    -0.000009827150
       5       -0.000004224937    -0.000003011383    -0.000000088184
       6       -0.000002274814    -0.000000793491    -0.000001265294
       7       -0.000005578306    -0.000000809026     0.000008790488
       8       -0.000001797782    -0.000001935327    -0.000001548030
       9        0.000005058683     0.000003454595     0.000001704276
      10        0.001499113103    -0.004608529264     0.000152976497
      11       -0.000009188468    -0.000008309171     0.000000345409
      12       -0.000000206857    -0.000004550568     0.000002457977
      13       -0.001543310055     0.003526413677     0.001116236194
      14       -0.000907057842     0.003098194850    -0.000399070768
      15        0.000003602785    -0.000002557469     0.000001058378
      16        0.000956158629    -0.001995436245    -0.000874876979
      17       -0.000007870813    -0.000001177682    -0.000003002136
      18        0.000003402542     0.000001506535    -0.000005183776
      19        0.000002186124     0.000000088620     0.000008604761
      20        0.000011576945    -0.000009477740     0.000003531602
      21       -0.000013590390    -0.000002455714    -0.000002708264

  **** Optimization is complete! (in 6 steps) ****
    Final optimized geometry and variables:
    Molecular point group: c1

    Geometry (in Angstrom), charge = 0, multiplicity = 1:

    H           -4.219595754621     0.778133119114    -0.093098904795
    O           -3.518770036293     0.190392517791    -0.306440338669
    C           -2.308833510051     0.671785651331     0.215728614568
    C           -1.205356251447    -0.300939256947    -0.147955077819
    H           -2.083752700571     1.655805871951    -0.190298666101
    H           -2.373635489407     0.770883533473     1.297255905613
    C            0.161560409390     0.131019669618     0.373032042286
    H           -1.177996121105    -0.401294371567    -1.228319000859
    H           -1.463442813437    -1.277725058048     0.248999398730
    C            1.275122221457    -0.857554627801     0.025492934013
    H            0.408570922715     1.110334310388    -0.029729057596
    H            0.117699538071     0.248497539937     1.453128767598
    C            2.666497671333    -0.392663106432     0.478963692603
    H            1.278004441752    -0.997858140813    -1.051931512415
    H            1.040663602601    -1.819047864128     0.469905849392
    C            3.413094860898     0.421075292679    -0.575168699800
    H            3.270502524350    -1.259521258519     0.727260636932
    H            2.578195244439     0.183341906271     1.395231179132
    H            3.589726437556    -0.173174267507    -1.465005205653
    H            2.853294564480     1.301442079459    -0.873235921742
    H            4.375054333506     0.755338937931    -0.203372886404

  Mulliken Charges: (a.u.)
   Center  Symbol    Alpha    Beta     Spin     Total
       1     H     0.39760  0.39760  0.00000  0.20479
       2     O     4.19434  4.19434  0.00000 -0.38867
       3     C     2.96315  2.96315  0.00000  0.07369
       4     C     3.08539  3.08539  0.00000 -0.17078
       5     H     0.47498  0.47498  0.00000  0.05004
       6     H     0.47481  0.47481  0.00000  0.05038
       7     C     3.10087  3.10087  0.00000 -0.20174
       8     H     0.45064  0.45064  0.00000  0.09872
       9     H     0.45094  0.45094  0.00000  0.09813
      10     C     3.09399  3.09399  0.00000 -0.18798
      11     H     0.45498  0.45498  0.00000  0.09004
      12     H     0.45517  0.45517  0.00000  0.08966
      13     C     3.09038  3.09038  0.00000 -0.18076
      14     H     0.45523  0.45523  0.00000  0.08954
      15     H     0.44699  0.44699  0.00000  0.10603
      16     C     3.14771  3.14771  0.00000 -0.29543
      17     H     0.44861  0.44861  0.00000  0.10278
      18     H     0.45528  0.45528  0.00000  0.08945
      19     H     0.45451  0.45451  0.00000  0.09097
      20     H     0.45581  0.45581  0.00000  0.08837
      21     H     0.44861  0.44861  0.00000  0.10278

   Total alpha = 29.00000, Total beta = 29.00000, Total charge =  0.00000

*** Psi4 exiting successfully. Buy a developer a beer!
