                              Psi4 1.0.54 Driver

  ==> Input File <==

--------------------------------------------------------------------------
set {
	reference rhf
	basis cc-pvtz
}

set_num_threads( 4 )
memory 2 gb

molecule MOL {
0 1

H	 -3.418318	 -0.134271	 -0.335803
O	 -2.632934	 -0.660281	 -0.350050
C	 -1.605397	 0.107680	 0.001145
C	 -0.310616	 -0.658853	 0.000791
O	 -1.737918	 1.251452	 0.269836
C	 0.926581	 0.227233	 0.000178
H	 -0.327628	 -1.313681	 -0.864448
H	 -0.327041	 -1.313334	 0.866298
C	 2.220156	 -0.582071	 -0.000088
H	 0.899945	 0.878221	 -0.866390
H	 0.900542	 0.878581	 0.866486
C	 3.466689	 0.296012	 -0.000457
H	 2.239073	 -1.234095	 -0.869382
H	 2.239505	 -1.233985	 0.869270
H	 3.493549	 0.935857	 -0.875887
H	 4.368821	 -0.304526	 -0.001199
H	 3.494559	 0.935166	 0.875458

	symmetry c1
}
set optking {
	frozen_dihedral = ("
		2 3 4 7
	")
}

ee,wfn = optimize('scf', return_wfn=True)
oeprop( wfn, 'DIPOLE', 'QUADRUPOLE', 'MULLIKEN_CHARGES')
f=open( 'psi4out.xyz', 'w' )
f.write( "17  " )
f.write( str(ee) + "\n" )
f.write( MOL.save_string_xyz() )
f.close()
--------------------------------------------------------------------------

    Molecular point group: c1
  Charge       = 0
  Multiplicity = 1
  Basis Set: CC-PVTZ
  Basis Set:
  @DF-RHF Final Energy:  -345.04858394043879
    Total Energy =                       -345.0485839404387889
    Molecular point group: c1
  Basis Set: CC-PVTZ
  Basis Set:
  Basis Set: CC-PVTZ
  Basis Set:
  @DF-RHF Final Energy:  -345.04853403265923
    Total Energy =                       -345.0485340326588357
  Basis Set: CC-PVTZ
  Basis Set:
  Basis Set: CC-PVTZ
  Basis Set:
  @DF-RHF Final Energy:  -345.04855491081815
    Total Energy =                       -345.0485549108183250
  Basis Set: CC-PVTZ
  Basis Set:
  Basis Set: CC-PVTZ
  Basis Set:
  @DF-RHF Final Energy:  -345.04868150765157
    Total Energy =                       -345.0486815076511675
  Basis Set: CC-PVTZ
  Basis Set:
  Charge       = 0
  Multiplicity = 1
  Basis Set: CC-PVTZ
  Basis Set:

    Orbital Energies (a.u.)
    -----------------------

    Doubly Occupied:

       1A    -20.604556     2A    -20.540219     3A    -11.373744
       4A    -11.239298     5A    -11.221824     6A    -11.220993
       7A    -11.210877     8A     -1.477856     9A     -1.369071
      10A     -1.093050    11A     -1.019872    12A     -0.914903
      13A     -0.825166    14A     -0.792002    15A     -0.704405
      16A     -0.688115    17A     -0.670440    18A     -0.632034
      19A     -0.593571    20A     -0.585163    21A     -0.575400
      22A     -0.538772    23A     -0.509590    24A     -0.485743
      25A     -0.482051    26A     -0.478236    27A     -0.473362
      28A     -0.445675

  @DF-RHF Final Energy:  -345.04868200577442

   => Energetics <=

    Nuclear Repulsion Energy =            304.7636757829735075
    One-Electron Energy =               -1074.0927417620125652
    Two-Electron Energy =                 424.2803839732646338
    DFT Exchange-Correlation Energy =       0.0000000000000000
    Empirical Dispersion Energy =           0.0000000000000000
    PCM Polarization Energy =               0.0000000000000000
    EFP Energy =                            0.0000000000000000
    Total Energy =                       -345.0486820057744808
    Molecular point group: c1
  Basis Set: CC-PVTZ
  Basis Set:

  -Total Gradient:
     Atom            X                  Y                   Z
    ------   -----------------  -----------------  -----------------
       1       -0.000023986856    -0.000013152363    -0.000009921602
       2        0.000065335743     0.000242911960    -0.000667287177
       3       -0.000137842600    -0.000411787140     0.001014564551
       4        0.000492249587     0.000836163913    -0.000799080840
       5       -0.000047240452    -0.000023359063    -0.000015374282
       6        0.000007288542    -0.000013439894     0.000019565615
       7       -0.000359636532    -0.000607561817     0.000473605488
       8        0.000003451363    -0.000001419933    -0.000001400091
       9        0.000007464314     0.000005233114    -0.000007457910
      10       -0.000002729668    -0.000005984600     0.000001305978
      11       -0.000006687502    -0.000005312402    -0.000002279873
      12        0.000000602083    -0.000003399110    -0.000006542777
      13        0.000005260138    -0.000004078930     0.000000842722
      14       -0.000005046378     0.000004717923    -0.000000095244
      15        0.000001273886     0.000000960727     0.000001031241
      16        0.000001197311     0.000001273086    -0.000001293912
      17       -0.000000952983    -0.000001765470    -0.000000181887

  **** Optimization is complete! (in 5 steps) ****
    Final optimized geometry and variables:
    Molecular point group: c1

    Geometry (in Angstrom), charge = 0, multiplicity = 1:

    H           -3.427109671243    -0.136585685171    -0.284008383519
    O           -2.640821053929    -0.659361478849    -0.332750810565
    C           -1.606053674218     0.106098138746     0.001084006070
    C           -0.311825966184    -0.661854867044    -0.008266323226
    O           -1.733101944870     1.248500232918     0.278852402055
    C            0.925823250625     0.224295158684     0.007026354052
    H           -0.322568847346    -1.327710387322    -0.862772711062
    H           -0.335132362378    -1.305470342117     0.867237734609
    C            2.219165569352    -0.584803884032     0.033299933693
    H            0.915545071196     0.868537224212    -0.866098106110
    H            0.883038981115     0.881224727684     0.867311881706
    C            3.465502142659     0.293456090108     0.043653759107
    H            2.251593941662    -1.245508069360    -0.828918806389
    H            2.224610165595    -1.227662992110     0.909554177861
    H            3.506748974321     0.923754660460    -0.838171247322
    H            4.367479500171    -0.306961513858     0.063939081519
    H            3.479007222551     0.942007217283     0.912915824071

  Mulliken Charges: (a.u.)
   Center  Symbol    Alpha    Beta     Spin     Total
       1     H     0.38193  0.38193  0.00000  0.23614
       2     O     4.15948  4.15948  0.00000 -0.31897
       3     C     2.80646  2.80646  0.00000  0.38709
       4     C     3.10766  3.10766  0.00000 -0.21532
       5     O     4.19204  4.19204  0.00000 -0.38408
       6     C     3.08350  3.08350  0.00000 -0.16700
       7     H     0.43654  0.43654  0.00000  0.12692
       8     H     0.44072  0.44072  0.00000  0.11855
       9     C     3.08608  3.08608  0.00000 -0.17217
      10     H     0.44899  0.44899  0.00000  0.10202
      11     H     0.44280  0.44280  0.00000  0.11439
      12     C     3.14919  3.14919  0.00000 -0.29839
      13     H     0.45481  0.45481  0.00000  0.09037
      14     H     0.45450  0.45450  0.00000  0.09099
      15     H     0.45392  0.45392  0.00000  0.09217
      16     H     0.44798  0.44798  0.00000  0.10404
      17     H     0.45338  0.45338  0.00000  0.09323

   Total alpha = 28.00000, Total beta = 28.00000, Total charge = -0.00000

*** Psi4 exiting successfully. Buy a developer a beer!
