  ==> Input File <==

--------------------------------------------------------------------------
set {
	reference rhf
	basis 6-31G*
}

set_num_threads( 1 )
memory 2 gb

molecule MOL {
0 1

O	 2.885223	 -2.308308	 -1.454081
C	 2.518917	 -1.693670	 -0.504818
C	 1.086020	 -1.538547	 -0.055897
O	 3.347903	 -1.046386	 0.304773
C	 0.093632	 -2.277630	 -0.950904
H	 1.036476	 -1.877952	 0.973444
H	 0.869720	 -0.473590	 -0.028035
C	 -1.372528	 -2.044578	 -0.570697
H	 0.314559	 -3.340585	 -0.929996
H	 0.249542	 -1.959768	 -1.976125
C	 -1.785482	 -2.616361	 0.788583
H	 -1.995601	 -2.494092	 -1.340399
H	 -1.587865	 -0.977293	 -0.593954
C	 -3.280229	 -2.454978	 1.072636
H	 -1.524391	 -3.672873	 0.826445
H	 -1.222806	 -2.133916	 1.584582
C	 -3.703408	 -3.018107	 2.430552
H	 -3.850919	 -2.947029	 0.286867
H	 -3.544064	 -1.399631	 1.024326
C	 -5.198176	 -2.856412	 2.704820
H	 -3.439586	 -4.072386	 2.480905
H	 -3.137168	 -2.524407	 3.217579
H	 -5.467106	 -3.264791	 3.674103
H	 -5.792283	 -3.369177	 1.953617
H	 -5.487539	 -1.809296	 2.695334
C	 4.728119	 -1.109107	 -0.004993
H	 4.882018	 -1.033965	 -1.071845
H	 5.068212	 -2.067527	 0.355250
H	 5.265056	 -0.311663	 0.488280

	symmetry c1
}
set optking {
	frozen_dihedral = ("
		21 17 14 11,
		17 14 11 15,
		15 11 8 5,
		6 3 5 9,
		11 8 5 9,
		1 2 4 26,
		6 3 2 1
	")
}

ee = energy('scf')
oeprop('DIPOLE', 'QUADRUPOLE', 'MULLIKEN_CHARGES')
f=open( 'psi4out.xyz', 'w' )
f.write( "29  " )
f.write( str(ee) + "\n" )
f.write( MOL.save_string_xyz() )
f.close()
--------------------------------------------------------------------------

    Molecular point group: c1

    Geometry (in Angstrom), charge = 0, multiplicity = 1:

       Center              X                  Y                   Z               Mass
    ------------   -----------------  -----------------  -----------------  -----------------
           O          2.902769049545    -0.227677261238    -1.797184935467    15.994914619560
           C          2.536463049545     0.386960738762    -0.847921935467    12.000000000000
           C          1.103566049545     0.542083738762    -0.399000935467    12.000000000000
           O          3.365449049545     1.034244738762    -0.038330935467    15.994914619560
           C          0.111178049545    -0.196999261238    -1.294007935467    12.000000000000
           H          1.054022049545     0.202678738762     0.630340064533     1.007825032070
           H          0.887266049545     1.607040738762    -0.371138935467     1.007825032070
           C         -1.354981950455     0.036052738762    -0.913800935467    12.000000000000
           H          0.332105049545    -1.259954261238    -1.273099935467     1.007825032070
           H          0.267088049545     0.120862738762    -2.319228935467     1.007825032070
           C         -1.767935950455    -0.535730261238     0.445479064533    12.000000000000
           H         -1.978054950455    -0.413461261238    -1.683502935467     1.007825032070
           H         -1.570318950455     1.103337738762    -0.937057935467     1.007825032070
           C         -3.262682950455    -0.374347261238     0.729532064533    12.000000000000
           H         -1.506844950455    -1.592242261238     0.483341064533     1.007825032070
           H         -1.205259950455    -0.053285261238     1.241478064533     1.007825032070
           C         -3.685861950455    -0.937476261238     2.087448064533    12.000000000000
           H         -3.833372950455    -0.866398261238    -0.056236935467     1.007825032070
           H         -3.526517950455     0.680999738762     0.681222064533     1.007825032070
           C         -5.180629950455    -0.775781261238     2.361716064533    12.000000000000
           H         -3.422039950455    -1.991755261238     2.137801064533     1.007825032070
           H         -3.119621950455    -0.443776261238     2.874475064533     1.007825032070
           H         -5.449559950455    -1.184160261238     3.330999064533     1.007825032070
           H         -5.774736950455    -1.288546261238     1.610513064533     1.007825032070
           H         -5.469992950455     0.271334738762     2.352230064533     1.007825032070
           C          4.745665049545     0.971523738762    -0.348096935467    12.000000000000
           H          4.899564049545     1.046665738762    -1.414948935467     1.007825032070
           H          5.085758049545     0.013103738762     0.012146064533     1.007825032070
           H          5.282602049545     1.768967738762     0.145176064533     1.007825032070

  Charge       = 0
  Multiplicity = 1
  Basis Set: 6-31G*
  Basis Set:

    Orbital Energies (a.u.)
    -----------------------

    Doubly Occupied:

       1A    -20.602511     2A    -20.544791     3A    -11.372559
       4A    -11.279594     5A    -11.234854     6A    -11.219143
       7A    -11.217655     8A    -11.215992     9A    -11.215849
      10A    -11.214460    11A    -11.209046    12A     -1.468946
      13A     -1.362321    14A     -1.098099    15A     -1.066827
      16A     -1.019403    17A     -0.976792    18A     -0.928344
      19A     -0.861562    20A     -0.799192    21A     -0.790426
      22A     -0.762816    23A     -0.700981    24A     -0.683458
      25A     -0.672816    26A     -0.650915    27A     -0.629488
      28A     -0.605820    29A     -0.594417    30A     -0.581374
      31A     -0.567369    32A     -0.549678    33A     -0.532115
      34A     -0.528054    35A     -0.514375    36A     -0.511545
      37A     -0.496158    38A     -0.477814    39A     -0.470241
      40A     -0.462358    41A     -0.458626    42A     -0.454685
      43A     -0.440972    44A     -0.435729

  @DF-RHF Final Energy:  -501.04207948085434

   => Energetics <=

    Nuclear Repulsion Energy =            610.2873380064610274
    One-Electron Energy =               -1891.6985947452694745
    Two-Electron Energy =                 780.3691772579549024
    DFT Exchange-Correlation Energy =       0.0000000000000000
    Empirical Dispersion Energy =           0.0000000000000000
    PCM Polarization Energy =               0.0000000000000000
    EFP Energy =                            0.0000000000000000
    Total Energy =                       -501.0420794808534311

  Mulliken Charges: (a.u.)
   Center  Symbol    Alpha    Beta     Spin     Total
       1     O     4.28606  4.28606  0.00000 -0.57212
       2     C     2.60467  2.60467  0.00000  0.79066
       3     C     3.20976  3.20976  0.00000 -0.41952
       4     O     4.30818  4.30818  0.00000 -0.61635
       5     C     3.15384  3.15384  0.00000 -0.30769
       6     H     0.39873  0.39873  0.00000  0.20254
       7     H     0.40117  0.40117  0.00000  0.19767
       8     C     3.15663  3.15663  0.00000 -0.31327
       9     H     0.41306  0.41306  0.00000  0.17388
      10     H     0.40875  0.40875  0.00000  0.18250
      11     C     3.15508  3.15508  0.00000 -0.31016
      12     H     0.41821  0.41821  0.00000  0.16357
      13     H     0.42385  0.42385  0.00000  0.15230
      14     C     3.15030  3.15030  0.00000 -0.30059
      15     H     0.42260  0.42260  0.00000  0.15479
      16     H     0.42359  0.42359  0.00000  0.15281
      17     C     3.15146  3.15146  0.00000 -0.30293
      18     H     0.42332  0.42332  0.00000  0.15336
      19     H     0.42397  0.42397  0.00000  0.15206
      20     C     3.23935  3.23935  0.00000 -0.47870
      21     H     0.42280  0.42280  0.00000  0.15440
      22     H     0.42342  0.42342  0.00000  0.15316
      23     H     0.41923  0.41923  0.00000  0.16155
      24     H     0.42155  0.42155  0.00000  0.15691
      25     H     0.42183  0.42183  0.00000  0.15635
      26     C     3.09531  3.09531  0.00000 -0.19061
      27     H     0.40244  0.40244  0.00000  0.19513
      28     H     0.41249  0.41249  0.00000  0.17502
      29     H     0.40835  0.40835  0.00000  0.18329

   Total alpha = 44.00000, Total beta = 44.00000, Total charge = -0.00000
