  ==> Input File <==

--------------------------------------------------------------------------
set {
	reference rhf
	basis 6-31G*
}

set_num_threads( 4 )
memory 2 gb

molecule MOL {
0 1

H	 -3.269016	 -0.876744	 0.468090
C	 -2.809304	 0.000122	 0.025886
N	 -1.391456	 0.000019	 0.300661
H	 -3.037557	 -0.000063	 -1.044252
H	 -3.269223	 0.876956	 0.468000
C	 -1.106468	 0.000267	 1.722128
C	 -0.702294	 1.089778	 -0.362129
H	 -1.491127	 0.901589	 2.209122
H	 -1.597082	 -0.854335	 2.176569
C	 0.392017	 -0.093708	 1.963543
H	 -0.898167	 1.029770	 -1.427769
H	 -1.060197	 2.063224	 -0.013106
C	 0.796191	 0.995803	 -0.120715
H	 0.587890	 -0.033700	 3.029183
H	 0.749920	 -1.067153	 1.614519
N	 1.081179	 0.996051	 1.300753
H	 1.286804	 1.850405	 -0.575155
H	 1.180850	 0.094482	 -0.607708
C	 2.499027	 0.995949	 1.575528
H	 2.665706	 1.059628	 2.645078
H	 2.962956	 1.860247	 1.113374
H	 3.006286	 0.099751	 1.205646

	symmetry c1
}
set optking {
	frozen_dihedral = ("
		6 3 2 4
	")
}

ee = optimize('scf')
oeprop('DIPOLE', 'QUADRUPOLE', 'MULLIKEN_CHARGES')
f=open( 'psi4out.xyz', 'w' )
f.write( "22  " )
f.write( str(ee) + "\n" )
f.write( MOL.save_string_xyz() )
f.close()
--------------------------------------------------------------------------

    Molecular point group: c1
  Charge       = 0
  Multiplicity = 1
  Basis Set: 6-31G*
  Basis Set:
  @DF-RHF Final Energy:  -344.22978348835170
    Total Energy =                       -344.2297834883513588
    Molecular point group: c1
  Basis Set: 6-31G*
  Basis Set:
  Basis Set: 6-31G*
  Basis Set:
  @DF-RHF Final Energy:  -344.23049900722509
    Total Energy =                       -344.2304990072250348
  Basis Set: 6-31G*
  Basis Set:
  Basis Set: 6-31G*
  Basis Set:
  @DF-RHF Final Energy:  -344.23061643926684
    Total Energy =                       -344.2306164392668961
  Basis Set: 6-31G*
  Basis Set:
  Charge       = 0
  Multiplicity = 1
  Basis Set: 6-31G*
  Basis Set:

    Orbital Energies (a.u.)
    -----------------------

    Doubly Occupied:

       1A    -15.542133     2A    -15.541966     3A    -11.238851
       4A    -11.238793     5A    -11.238224     6A    -11.238168
       7A    -11.235970     8A    -11.235963     9A     -1.255429
      10A     -1.204411    11A     -1.024691    12A     -0.991810
      13A     -0.911379    14A     -0.866901    15A     -0.835357
      16A     -0.755178    17A     -0.665553    18A     -0.636719
      19A     -0.630300    20A     -0.626659    21A     -0.621415
      22A     -0.581139    23A     -0.549861    24A     -0.545629
      25A     -0.542140    26A     -0.517663    27A     -0.496277
      28A     -0.490812    29A     -0.464743    30A     -0.455728
      31A     -0.350626    32A     -0.345123

  @DF-RHF Final Energy:  -344.23061746915903

   => Energetics <=

    Nuclear Repulsion Energy =            421.4645883782528699
    One-Electron Energy =               -1301.6391932662982072
    Two-Electron Energy =                 535.9439874188866497
    DFT Exchange-Correlation Energy =       0.0000000000000000
    Empirical Dispersion Energy =           0.0000000000000000
    PCM Polarization Energy =               0.0000000000000000
    EFP Energy =                            0.0000000000000000
    Total Energy =                       -344.2306174691586875
    Molecular point group: c1
  Basis Set: 6-31G*
  Basis Set:

  -Total Gradient:
     Atom            X                  Y                   Z
    ------   -----------------  -----------------  -----------------
       1        0.000047856872    -0.000002952685     0.000011886332
       2        0.000024339558    -0.000797754357     0.000062226885
       3        0.000034467731    -0.000712955897     0.000045269042
       4        0.000045380515     0.000840869577    -0.000008476226
       5        0.000018920260     0.000009900349     0.000015017026
       6       -0.000110234083     0.000694601812     0.000032598543
       7       -0.000043049481    -0.000037254808    -0.000006360551
       8       -0.000011442193     0.000010588240    -0.000009937238
       9       -0.000016221450    -0.000009473200    -0.000005218094
      10       -0.000006615695    -0.000027247335    -0.000139609159
      11        0.000002259147     0.000008978501    -0.000008462027
      12        0.000023325355    -0.000003731293    -0.000000471178
      13       -0.000015190722     0.000026050645     0.000008455486
      14       -0.000056384436     0.000001956471    -0.000027124135
      15        0.000031664583    -0.000026877701     0.000005265339
      16        0.000015336317     0.000014455932     0.000008527328
      17        0.000007809313     0.000001466179     0.000005784719
      18       -0.000010256811     0.000001502929     0.000005324413
      19        0.000009324000     0.000011686062    -0.000002287808
      20        0.000003864042    -0.000000077750     0.000002400733
      21        0.000004854899    -0.000002228687     0.000004208959
      22       -0.000000007723    -0.000001502984     0.000000981609

  **** Optimization is complete! (in 4 steps) ****
    Final optimized geometry and variables:
    Molecular point group: c1

    Geometry (in Angstrom), charge = 0, multiplicity = 1:

    H           -3.113404368340    -1.384722978300    -0.348605480706
    C           -2.656438717119    -0.494714740409    -0.766839146630
    N           -1.237087882560    -0.499262987474    -0.499384848454
    H           -2.828381250333    -0.497507558784    -1.837300031394
    H           -3.166117045505     0.378309701766    -0.347781739444
    C           -0.950061935438    -0.495760242746     0.921880242140
    C           -0.548980309748     0.592177153578    -1.161779424420
    H           -1.332675245122     0.407947867416     1.405881610989
    H           -1.442402748242    -1.347839251912     1.379500948905
    C            0.548377736495    -0.592049059749     1.161727855506
    H           -0.746391605495     0.534013878446    -2.227181808534
    H           -0.905763959056     1.565157555705    -0.810422389591
    C            0.949908515688     0.497383766440    -0.923228111579
    H            0.745260117766    -0.531620976529     2.227147188481
    H            0.904741807472    -1.566192711762     0.813045112830
    N            1.238072042967     0.496748370166     0.497701673098
    H            1.440226270698     1.351847792088    -1.378299220340
    H            1.332874453695    -0.403972891167    -1.411466097940
    C            2.656388200638     0.494344453588     0.769522343478
    H            2.825654350683     0.557332157871     1.838740290878
    H            3.120669864189     1.358118411246     0.306734577686
    H            3.161638058434    -0.402379290438     0.398108173673

  Mulliken Charges: (a.u.)
   Center  Symbol    Alpha    Beta     Spin     Total
       1     H     0.41637  0.41637  0.00000  0.16726
       2     C     3.14043  3.14043  0.00000 -0.28086
       3     N     3.78658  3.78658  0.00000 -0.57315
       4     H     0.41702  0.41702  0.00000  0.16595
       5     H     0.43348  0.43348  0.00000  0.13305
       6     C     3.05695  3.05695  0.00000 -0.11391
       7     C     3.05688  3.05688  0.00000 -0.11377
       8     H     0.42829  0.42829  0.00000  0.14342
       9     H     0.41789  0.41789  0.00000  0.16421
      10     C     3.05632  3.05632  0.00000 -0.11264
      11     H     0.41787  0.41787  0.00000  0.16426
      12     H     0.42846  0.42846  0.00000  0.14307
      13     C     3.05641  3.05641  0.00000 -0.11283
      14     H     0.41795  0.41795  0.00000  0.16410
      15     H     0.42842  0.42842  0.00000  0.14316
      16     N     3.78705  3.78705  0.00000 -0.57411
      17     H     0.41794  0.41794  0.00000  0.16412
      18     H     0.42844  0.42844  0.00000  0.14312
      19     C     3.14029  3.14029  0.00000 -0.28058
      20     H     0.41676  0.41676  0.00000  0.16648
      21     H     0.41677  0.41677  0.00000  0.16647
      22     H     0.43341  0.43341  0.00000  0.13318

   Total alpha = 32.00000, Total beta = 32.00000, Total charge = -0.00000
