  ==> Input File <==

--------------------------------------------------------------------------
set {
	reference rhf
	basis cc-pvtz
}

set_num_threads( 4 )
memory 2 gb

molecule MOL {
0 1

H	 -2.123561	 0.563187	 0.800431
N	 -1.851927	 0.161443	 -0.071573
C	 -0.561396	 -0.500007	 0.035200
H	 -1.818317	 0.902793	 -0.739860
C	 0.575129	 0.507849	 -0.048832
H	 -0.478089	 -1.200753	 -0.788956
H	 -0.456191	 -1.081816	 0.952176
C	 1.951750	 -0.141983	 0.035101
H	 0.478254	 1.061643	 -0.975981
H	 0.467676	 1.231891	 0.755499
H	 2.101550	 -0.848142	 -0.774949
H	 2.738260	 0.600794	 -0.026526
H	 2.078939	 -0.679792	 0.968824

	symmetry c1
}
set optking {
	frozen_dihedral = ("
		1 2 3 6
	")
}

ee = optimize('scf')
oeprop('DIPOLE', 'QUADRUPOLE', 'MULLIKEN_CHARGES')
f=open( 'psi4out.xyz', 'w' )
f.write( "13  " )
f.write( str(ee) + "\n" )
f.write( MOL.save_string_xyz() )
f.close()
--------------------------------------------------------------------------

    Molecular point group: c1
  Charge       = 0
  Multiplicity = 1
  Basis Set: CC-PVTZ
  Basis Set:
  @DF-RHF Final Energy:  -173.34978316028327
    Total Energy =                       -173.3497831602831525
    Molecular point group: c1
  Basis Set: CC-PVTZ
  Basis Set:
  Basis Set: CC-PVTZ
  Basis Set:
  @DF-RHF Final Energy:  -173.35169579891806
    Total Energy =                       -173.3516957989181719
  Basis Set: CC-PVTZ
  Basis Set:
  Basis Set: CC-PVTZ
  Basis Set:
  @DF-RHF Final Energy:  -173.35191684881082
    Total Energy =                       -173.3519168488106459
  Basis Set: CC-PVTZ
  Basis Set:
  Basis Set: CC-PVTZ
  Basis Set:
  @DF-RHF Final Energy:  -173.35192422426422
    Total Energy =                       -173.3519242242642520
  Basis Set: CC-PVTZ
  Basis Set:
  Charge       = 0
  Multiplicity = 1
  Basis Set: CC-PVTZ
  Basis Set:

    Orbital Energies (a.u.)
    -----------------------

    Doubly Occupied:

       1A    -15.525541     2A    -11.238311     3A    -11.213669
       4A    -11.209489     5A     -1.177862     6A     -1.037687
       7A     -0.899967     8A     -0.807188     9A     -0.677823
      10A     -0.609512    11A     -0.607148    12A     -0.562690
      13A     -0.526664    14A     -0.512521    15A     -0.486735
      16A     -0.470196    17A     -0.378472

  @DF-RHF Final Energy:  -173.35192502428984

   => Energetics <=

    Nuclear Repulsion Energy =            131.8184068791171342
    One-Electron Energy =                -494.4577125483069153
    Two-Electron Energy =                 189.2873806448998835
    DFT Exchange-Correlation Energy =       0.0000000000000000
    Empirical Dispersion Energy =           0.0000000000000000
    PCM Polarization Energy =               0.0000000000000000
    EFP Energy =                            0.0000000000000000
    Total Energy =                       -173.3519250242898693
    Molecular point group: c1
  Basis Set: CC-PVTZ
  Basis Set:

  -Total Gradient:
     Atom            X                  Y                   Z
    ------   -----------------  -----------------  -----------------
       1       -0.000900049733    -0.001960546758     0.000668845251
       2        0.000941267182     0.002137882406    -0.000600997562
       3        0.000709139148     0.001383060093    -0.001380772740
       4        0.000028028149    -0.000038211810     0.000037373794
       5       -0.000158720762    -0.000067051447     0.000016296358
       6       -0.000717942757    -0.001439913007     0.001242769782
       7        0.000009566968    -0.000022080058     0.000031740058
       8        0.000047448077     0.000011461111    -0.000032607325
       9        0.000015720638    -0.000006944081     0.000034305280
      10       -0.000006027873     0.000000528255    -0.000012218557
      11       -0.000002246674    -0.000001326673     0.000012396068
      12        0.000050114458    -0.000015380259    -0.000001164492
      13       -0.000016296819     0.000018522228    -0.000015965913

  **** Optimization is complete! (in 5 steps) ****
    Final optimized geometry and variables:
    Molecular point group: c1

    Geometry (in Angstrom), charge = 0, multiplicity = 1:

    H           -2.157366121921     0.530150960324     0.819123302099
    N           -1.896878872001     0.106809322840    -0.045100939864
    C           -0.570545470270    -0.479943907309     0.026550303387
    H           -1.960075005047     0.797634456867    -0.762059128682
    C            0.592423429078     0.505737726398    -0.033975807852
    H           -0.474550395191    -1.210988509719    -0.770517205771
    H           -0.513190477150    -1.047091443272     0.950193528296
    C            1.954394072647    -0.176409743772     0.040058827718
    H            0.523153942746     1.078492047847    -0.955686986283
    H            0.494648869530     1.220232292592     0.779189303382
    H            2.086463764375    -0.876815818454    -0.777868834624
    H            2.759981134717     0.546504374998    -0.011539102241
    H            2.065701241218    -0.728806492407     0.967253990377

  Mulliken Charges: (a.u.)
   Center  Symbol    Alpha    Beta     Spin     Total
       1     H     0.42996  0.42996  0.00000  0.14007
       2     N     3.69286  3.69286  0.00000 -0.38573
       3     C     3.02605  3.02605  0.00000 -0.05211
       4     H     0.43041  0.43041  0.00000  0.13919
       5     C     3.08080  3.08080  0.00000 -0.16161
       6     H     0.45462  0.45462  0.00000  0.09075
       7     H     0.45607  0.45607  0.00000  0.08787
       8     C     3.15248  3.15248  0.00000 -0.30497
       9     H     0.45960  0.45960  0.00000  0.08081
      10     H     0.45932  0.45932  0.00000  0.08136
      11     H     0.45475  0.45475  0.00000  0.09051
      12     H     0.44798  0.44798  0.00000  0.10405
      13     H     0.45510  0.45510  0.00000  0.08981

   Total alpha = 17.00000, Total beta = 17.00000, Total charge = -0.00000
