                              Psi4 1.0.54 Driver

  ==> Input File <==

--------------------------------------------------------------------------
set {
	reference rhf
	basis cc-pvtz
}

set_num_threads( 4 )
memory 2 gb

molecule MOL {
0 1

H	 -0.099767	 1.784712	 4.173712
O	 0.818849	 1.730804	 4.360980
C	 1.233428	 0.390224	 4.376596
C	 1.292260	 -0.242537	 2.994265
H	 2.221736	 0.391787	 4.816169
H	 0.591425	 -0.197929	 5.029557
C	 -0.065348	 -0.378922	 2.308593
H	 1.958549	 0.347699	 2.372301
H	 1.744190	 -1.226297	 3.096123
C	 0.029195	 -1.047843	 0.938029
H	 -0.513087	 0.603409	 2.201083
H	 -0.732746	 -0.959344	 2.943398
C	 -1.311023	 -1.277304	 0.237018
H	 0.673562	 -0.453697	 0.294594
H	 0.523508	 -2.008134	 1.056198
C	 -2.041121	 -0.006551	 -0.194127
H	 -1.134931	 -1.889793	 -0.642968
H	 -1.959433	 -1.861983	 0.885764
C	 -3.489218	 0.042606	 0.286507
H	 -2.022185	 0.066287	 -1.279394
H	 -1.518764	 0.869305	 0.178730
C	 -4.219984	 1.311773	 -0.139038
H	 -4.022855	 -0.824300	 -0.093339
H	 -3.510372	 -0.038577	 1.370031
H	 -4.244251	 1.405725	 -1.219696
H	 -5.244345	 1.313233	 0.215630
H	 -3.732090	 2.196311	 0.257073

	symmetry c1
}
set optking {
	frozen_dihedral = ("
		10 13 16 20
	")
}

ee,wfn = optimize('scf', return_wfn=True)
oeprop( wfn, 'DIPOLE', 'QUADRUPOLE', 'MULLIKEN_CHARGES')
f=open( 'psi4out.xyz', 'w' )
f.write( "27  " )
f.write( str(ee) + "\n" )
f.write( MOL.save_string_xyz() )
f.close()
--------------------------------------------------------------------------

    Molecular point group: c1
  Charge       = 0
  Multiplicity = 1
  Basis Set: CC-PVTZ
  Basis Set:
  @DF-RHF Final Energy:  -388.42253365437853
    Total Energy =                       -388.4225336543788671
    Molecular point group: c1
  Basis Set: CC-PVTZ
  Basis Set:
  Basis Set: CC-PVTZ
  Basis Set:
  @DF-RHF Final Energy:  -388.42275902921165
    Total Energy =                       -388.4227590292115337
  Basis Set: CC-PVTZ
  Basis Set:
  Basis Set: CC-PVTZ
  Basis Set:
  @DF-RHF Final Energy:  -388.42280386300837
    Total Energy =                       -388.4228038630083120
  Basis Set: CC-PVTZ
  Basis Set:
  Basis Set: CC-PVTZ
  Basis Set:
  @DF-RHF Final Energy:  -388.42297636609356
    Total Energy =                       -388.4229763660937351
  Basis Set: CC-PVTZ
  Basis Set:
  Basis Set: CC-PVTZ
  Basis Set:
  @DF-RHF Final Energy:  -388.42297884891195
    Total Energy =                       -388.4229788489119528
  Basis Set: CC-PVTZ
  Basis Set:
  Basis Set: CC-PVTZ
  Basis Set:
  @DF-RHF Final Energy:  -388.42298091376193
    Total Energy =                       -388.4229809137623306
  Basis Set: CC-PVTZ
  Basis Set:
  Charge       = 0
  Multiplicity = 1
  Basis Set: CC-PVTZ
  Basis Set:

    Orbital Energies (a.u.)
    -----------------------

    Doubly Occupied:

       1A    -20.545657     2A    -11.265245     3A    -11.217097
       4A    -11.214845     5A    -11.214719     6A    -11.213481
       7A    -11.212853     8A    -11.211731     9A    -11.207355
      10A     -1.363528    11A     -1.095468    12A     -1.061765
      13A     -1.012334    14A     -0.948706    15A     -0.889002
      16A     -0.822811    17A     -0.798675    18A     -0.781028
      19A     -0.696862    20A     -0.650531    21A     -0.639645
      22A     -0.613855    23A     -0.600940    24A     -0.588727
      25A     -0.579061    26A     -0.555170    27A     -0.546815
      28A     -0.522804    29A     -0.507796    30A     -0.495341
      31A     -0.485879    32A     -0.478143    33A     -0.469515
      34A     -0.459238    35A     -0.449580    36A     -0.441738
      37A     -0.426097

  @DF-RHF Final Energy:  -388.42298105405263

   => Energetics <=

    Nuclear Repulsion Energy =            465.5475408374229005
    One-Electron Energy =               -1449.3729641767540670
    Two-Electron Energy =                 595.4024422852781981
    DFT Exchange-Correlation Energy =       0.0000000000000000
    Empirical Dispersion Energy =           0.0000000000000000
    PCM Polarization Energy =               0.0000000000000000
    EFP Energy =                            0.0000000000000000
    Total Energy =                       -388.4229810540529115
    Molecular point group: c1
  Basis Set: CC-PVTZ
  Basis Set:

  -Total Gradient:
     Atom            X                  Y                   Z
    ------   -----------------  -----------------  -----------------
       1        0.000018743593    -0.000004692256     0.000004147620
       2       -0.000003649267     0.000008980005     0.000006133652
       3       -0.000015355595    -0.000029265895    -0.000003545532
       4        0.000009058350     0.000014143626     0.000002139991
       5       -0.000009891570     0.000003391531    -0.000003389372
       6        0.000000693020     0.000010657234     0.000004145092
       7       -0.000003424701    -0.000000523617     0.000002785225
       8       -0.000008814863    -0.000006121879    -0.000003858925
       9       -0.000005239132     0.000006765508    -0.000006429032
      10       -0.000496079079    -0.000030788002     0.000955676090
      11        0.000007701632    -0.000007155939    -0.000003483471
      12        0.000002231054     0.000009473363     0.000002935003
      13        0.000422704571    -0.000159582516    -0.001386891238
      14       -0.000006365736    -0.000005616097    -0.000002609652
      15        0.000007104211     0.000003548987     0.000003777131
      16        0.001342400517     0.000948760313     0.000537319222
      17        0.000004260126    -0.000001317423     0.000002244882
      18        0.000006062043    -0.000008337709    -0.000000206331
      19        0.000002774420     0.000008046265    -0.000007669816
      20       -0.001258661928    -0.000768719548    -0.000102881996
      21       -0.000009962008     0.000001405295    -0.000003220114
      22       -0.000001143969     0.000006728188     0.000006354967
      23        0.000005996995    -0.000003184227     0.000003479860
      24       -0.000002384608     0.000002629118    -0.000006221294
      25        0.000002068423    -0.000001224404     0.000003462678
      26       -0.000007490902     0.000003602327    -0.000000130462
      27       -0.000003335588    -0.000001602245    -0.000004064178

  **** Optimization is complete! (in 7 steps) ****
    Final optimized geometry and variables:
    Molecular point group: c1

    Geometry (in Angstrom), charge = 0, multiplicity = 1:

    H            0.539098619988     1.371232063460     2.669884269698
    O            1.463263064682     1.435001304617     2.822939844271
    C            2.067099952581     0.176215723310     2.680895470759
    C            2.163066095920    -0.290176805925     1.236044554747
    H            3.060988850036     0.276529669047     3.095685820779
    H            1.541887582351    -0.565944689510     3.278887148144
    C            0.813601093461    -0.539699259027     0.566769129017
    H            2.720390981217     0.450078404730     0.670120964138
    H            2.748070583384    -1.206655604609     1.218994812292
    C            0.945086896082    -1.070720957902    -0.859559207605
    H            0.239524952504     0.381669676419     0.558741690299
    H            0.244962919373    -1.255033823820     1.158029595314
    C           -0.391320447512    -1.297997151688    -1.569666848461
    H            1.552777762332    -0.385218133188    -1.445318360568
    H            1.491535517538    -2.009279120721    -0.829586433535
    C           -1.149589840469    -0.008431566215    -1.947236635476
    H           -0.213879944539    -1.885030486896    -2.463841855585
    H           -1.018600958575    -1.914695146015    -0.931645411298
    C           -2.605153330327     0.007811871576    -1.483791190720
    H           -1.134801551867     0.115939890081    -3.025585752699
    H           -0.641987392318     0.859512989843    -1.538778556569
    C           -3.351894112757     1.272439431659    -1.893028749210
    H           -3.118226894898    -0.860872713868    -1.887656419697
    H           -2.637947623460    -0.097827073430    -0.402524100061
    H           -3.369046167333     1.384658030526    -2.972028313541
    H           -4.378926673916     1.252607005142    -1.546709692914
    H           -2.880228123433     2.157419714612    -1.478522030965

  Mulliken Charges: (a.u.)
   Center  Symbol    Alpha    Beta     Spin     Total
       1     H     0.39218  0.39218  0.00000  0.21565
       2     O     4.20566  4.20566  0.00000 -0.41133
       3     C     2.98014  2.98014  0.00000  0.03971
       4     C     3.08862  3.08862  0.00000 -0.17724
       5     H     0.44860  0.44860  0.00000  0.10279
       6     H     0.46937  0.46937  0.00000  0.06126
       7     C     3.10357  3.10357  0.00000 -0.20714
       8     H     0.45060  0.45060  0.00000  0.09879
       9     H     0.45508  0.45508  0.00000  0.08985
      10     C     3.09626  3.09626  0.00000 -0.19252
      11     H     0.45619  0.45619  0.00000  0.08763
      12     H     0.45320  0.45320  0.00000  0.09360
      13     C     3.10301  3.10301  0.00000 -0.20601
      14     H     0.45187  0.45187  0.00000  0.09626
      15     H     0.44806  0.44806  0.00000  0.10388
      16     C     3.10257  3.10257  0.00000 -0.20513
      17     H     0.44358  0.44358  0.00000  0.11283
      18     H     0.45500  0.45500  0.00000  0.09000
      19     C     3.08165  3.08165  0.00000 -0.16331
      20     H     0.44557  0.44557  0.00000  0.10885
      21     H     0.45127  0.45127  0.00000  0.09747
      22     C     3.15034  3.15034  0.00000 -0.30068
      23     H     0.45318  0.45318  0.00000  0.09365
      24     H     0.45607  0.45607  0.00000  0.08787
      25     H     0.45468  0.45468  0.00000  0.09064
      26     H     0.44854  0.44854  0.00000  0.10292
      27     H     0.45515  0.45515  0.00000  0.08971

   Total alpha = 37.00000, Total beta = 37.00000, Total charge = -0.00000

*** Psi4 exiting successfully. Buy a developer a beer!
