                              Psi4 1.0.54 Driver

  ==> Input File <==

--------------------------------------------------------------------------
set {
	reference rhf
	basis cc-pvtz
}

set_num_threads( 4 )
memory 2 gb

molecule MOL {
0 1

H	 1.955146	 -1.809696	 2.730204
O	 1.761161	 -1.681815	 1.813845
C	 0.982045	 -0.610261	 1.694756
C	 0.626018	 -0.337582	 0.258241
O	 0.635555	 0.021656	 2.632022
C	 -0.267326	 0.883135	 0.076490
H	 1.560202	 -0.243767	 -0.282460
H	 0.149055	 -1.233734	 -0.126272
C	 -1.726822	 0.642622	 0.463839
H	 -0.210803	 1.217591	 -0.953497
H	 0.129920	 1.693110	 0.675679
C	 -2.480891	 -0.340606	 -0.429852
H	 -2.243098	 1.597649	 0.438609
H	 -1.776542	 0.301208	 1.495542
C	 -3.955933	 -0.460128	 -0.060472
H	 -2.393755	 -0.020485	 -1.464726
H	 -2.024244	 -1.323637	 -0.374360
H	 -4.467673	 -1.160944	 -0.709827
H	 -4.458917	 0.497287	 -0.144505
H	 -4.076458	 -0.806900	 0.960497

	symmetry c1
}
set optking {
	frozen_dihedral = ("
		7 4 6 10
	")
}

ee,wfn = optimize('scf', return_wfn=True)
oeprop( wfn, 'DIPOLE', 'QUADRUPOLE', 'MULLIKEN_CHARGES')
f=open( 'psi4out.xyz', 'w' )
f.write( "20  " )
f.write( str(ee) + "\n" )
f.write( MOL.save_string_xyz() )
f.close()
--------------------------------------------------------------------------

    Molecular point group: c1
  Charge       = 0
  Multiplicity = 1
  Basis Set: CC-PVTZ
  Basis Set:
  @DF-RHF Final Energy:  -384.09346466931066
    Total Energy =                       -384.0934646693104924
    Molecular point group: c1
  Basis Set: CC-PVTZ
  Basis Set:
  Basis Set: CC-PVTZ
  Basis Set:
  @DF-RHF Final Energy:  -384.09351678022273
    Total Energy =                       -384.0935167802231263
  Basis Set: CC-PVTZ
  Basis Set:
  Basis Set: CC-PVTZ
  Basis Set:
  @DF-RHF Final Energy:  -384.09373102123936
    Total Energy =                       -384.0937310212393641
  Basis Set: CC-PVTZ
  Basis Set:
  Basis Set: CC-PVTZ
  Basis Set:
  @DF-RHF Final Energy:  -384.09377079002701
    Total Energy =                       -384.0937707900268379
  Basis Set: CC-PVTZ
  Basis Set:
  @DF-RHF Final Energy:  -384.09393580886058
    Total Energy =                       -384.0939358088606923
  Basis Set: CC-PVTZ
  Basis Set:
  @DF-RHF Final Energy:  -384.09395671744784
    Total Energy =                       -384.0939567174475542
  Basis Set: CC-PVTZ
  Basis Set:
  Basis Set: CC-PVTZ
  Basis Set:
  @DF-RHF Final Energy:  -384.09397194798044
    Total Energy =                       -384.0939719479803216
  Basis Set: CC-PVTZ
  Basis Set:
  Basis Set: CC-PVTZ
  Basis Set:
  @DF-RHF Final Energy:  -384.09397512132239
    Total Energy =                       -384.0939751213227282
  Basis Set: CC-PVTZ
  Basis Set:
  Charge       = 0
  Multiplicity = 1
  Basis Set: CC-PVTZ
  Basis Set:

    Orbital Energies (a.u.)
    -----------------------

    Doubly Occupied:

       1A    -20.604698     2A    -20.541199     3A    -11.374251
       4A    -11.238759     5A    -11.221300     6A    -11.215908
       7A    -11.212989     8A    -11.207933     9A     -1.478345
      10A     -1.369702    11A     -1.095035    12A     -1.040387
      13A     -0.959854    14A     -0.871835    15A     -0.816960
      16A     -0.775413    17A     -0.705707    18A     -0.691697
      19A     -0.665282    20A     -0.634972    21A     -0.604085
      22A     -0.594612    23A     -0.575176    24A     -0.558042
      25A     -0.535479    26A     -0.511896    27A     -0.501060
      28A     -0.486508    29A     -0.468182    30A     -0.464582
      31A     -0.454392    32A     -0.445328

  @DF-RHF Final Energy:  -384.09397530172203

   => Energetics <=

    Nuclear Repulsion Energy =            384.0255945104269131
    One-Electron Energy =               -1284.3960099545561206
    Two-Electron Energy =                 516.2764401424076368
    DFT Exchange-Correlation Energy =       0.0000000000000000
    Empirical Dispersion Energy =           0.0000000000000000
    PCM Polarization Energy =               0.0000000000000000
    EFP Energy =                            0.0000000000000000
    Total Energy =                       -384.0939753017215708
    Molecular point group: c1
  Basis Set: CC-PVTZ
  Basis Set:

  -Total Gradient:
     Atom            X                  Y                   Z
    ------   -----------------  -----------------  -----------------
       1        0.000000211953    -0.000005203942    -0.000000243334
       2        0.000016846916    -0.000012027030     0.000001058018
       3       -0.000012017615    -0.000008262385     0.000007906553
       4        0.000956017786     0.001000451427     0.001594183703
       5       -0.000001821094     0.000012301711    -0.000014955361
       6       -0.001443293154    -0.001268467875    -0.000757344152
       7       -0.000586637414    -0.000612140458    -0.001195645184
       8        0.000001675740    -0.000000473833     0.000001316992
       9        0.000012672852    -0.000033220318    -0.000000098982
      10        0.001067179795     0.000911345556     0.000369762650
      11        0.000006580419     0.000001869977    -0.000001882563
      12       -0.000014834329     0.000031760097    -0.000006117057
      13        0.000009957254    -0.000003353425    -0.000007023408
      14       -0.000000724220    -0.000001807114     0.000012678938
      15       -0.000002263550    -0.000012958402     0.000001214346
      16        0.000000688177    -0.000001150556    -0.000013566969
      17       -0.000007347432     0.000004942252     0.000006037408
      18       -0.000002780724    -0.000003505662     0.000004047233
      19        0.000002775302    -0.000002600694    -0.000004324582
      20       -0.000002886659     0.000002500675     0.000002995754

  **** Optimization is complete! (in 9 steps) ****
    Final optimized geometry and variables:
    Molecular point group: c1

    Geometry (in Angstrom), charge = 0, multiplicity = 1:

    H            2.517664174095    -1.589027850523     1.834491008310
    O            2.275682637869    -1.450264357409     0.931170552248
    C            1.558972081015    -0.332618656535     0.854853566181
    C            1.159857097048    -0.024298594610    -0.564192325786
    O            1.304609808989     0.316217900272     1.810328604879
    C            0.202616029931     1.156807644420    -0.702890481568
    H            2.079936281674     0.160692538311    -1.109136710241
    H            0.755881215370    -0.933177246316    -0.992277468786
    C           -1.253031219764     0.863018110431    -0.333937806854
    H            0.253625761176     1.517377745802    -1.725478022998
    H            0.566908164068     1.961803331335    -0.077467850702
    C           -1.993651850150    -0.042472512986    -1.316798411580
    H           -1.781859484535     1.809650222154    -0.274010169408
    H           -1.293572025795     0.434562079907     0.662511322922
    C           -3.453248556061    -0.260233097679    -0.930445059571
    H           -1.946181704827     0.394126347910    -2.311029520599
    H           -1.501648126516    -1.007792005990    -1.385008584162
    H           -3.956971343879    -0.902424113630    -1.643743840093
    H           -3.992231858999     0.680460363458    -0.893430049270
    H           -3.533599875094    -0.723814002921     0.047025036322

  Mulliken Charges: (a.u.)
   Center  Symbol    Alpha    Beta     Spin     Total
       1     H     0.38239  0.38239  0.00000  0.23522
       2     O     4.15985  4.15985  0.00000 -0.31970
       3     C     2.80226  2.80226  0.00000  0.39548
       4     C     3.11992  3.11992  0.00000 -0.23985
       5     O     4.19282  4.19282  0.00000 -0.38564
       6     C     3.10198  3.10198  0.00000 -0.20396
       7     H     0.42930  0.42930  0.00000  0.14139
       8     H     0.43568  0.43568  0.00000  0.12864
       9     C     3.09878  3.09878  0.00000 -0.19755
      10     H     0.44501  0.44501  0.00000  0.10999
      11     H     0.43838  0.43838  0.00000  0.12324
      12     C     3.08544  3.08544  0.00000 -0.17088
      13     H     0.44731  0.44731  0.00000  0.10537
      14     H     0.44452  0.44452  0.00000  0.11096
      15     C     3.14945  3.14945  0.00000 -0.29891
      16     H     0.45485  0.45485  0.00000  0.09030
      17     H     0.45575  0.45575  0.00000  0.08849
      18     H     0.44852  0.44852  0.00000  0.10296
      19     H     0.45392  0.45392  0.00000  0.09216
      20     H     0.45386  0.45386  0.00000  0.09228

   Total alpha = 32.00000, Total beta = 32.00000, Total charge = -0.00000

*** Psi4 exiting successfully. Buy a developer a beer!
