  ==> Input File <==

--------------------------------------------------------------------------
set {
	reference rhf
	basis 6-31G*
}

set_num_threads( 4 )
memory 2 gb

molecule MOL {
0 1

H	 2.332609	 0.878551	 -1.051851
C	 2.357710	 0.000000	 -0.417167
C	 1.175432	 0.000000	 0.532082
H	 3.291263	 0.000000	 0.136880
H	 2.332609	 -0.878551	 -1.051851
O	 0.000000	 0.000000	 -0.221444
H	 1.206604	 0.877321	 1.177902
H	 1.206604	 -0.877321	 1.177902
C	 -1.175432	 0.000000	 0.532082
C	 -1.460554	 1.419454	 0.982314
H	 -1.067863	 -0.657809	 1.394325
H	 -2.003130	 -0.382919	 -0.064606
H	 -0.642079	 1.796158	 1.585222
H	 -2.370764	 1.456388	 1.572775
H	 -1.578657	 2.071433	 0.124246

	symmetry c1
}
set optking {
	frozen_dihedral = ("
		11 9 6 3
	")
}

ee = optimize('scf')
oeprop('DIPOLE', 'QUADRUPOLE', 'MULLIKEN_CHARGES')
f=open( 'psi4out.xyz', 'w' )
f.write( "15  " )
f.write( str(ee) + "\n" )
f.write( MOL.save_string_xyz() )
f.close()
--------------------------------------------------------------------------

    Molecular point group: c1
  Charge       = 0
  Multiplicity = 1
  Basis Set: 6-31G*
  Basis Set:
  @DF-RHF Final Energy:  -232.13990349182174
    Total Energy =                       -232.1399034918217694
    Molecular point group: c1
  Basis Set: 6-31G*
  Basis Set:
  Basis Set: 6-31G*
  Basis Set:
  @DF-RHF Final Energy:  -232.14115808432240
    Total Energy =                       -232.1411580843225124
  Basis Set: 6-31G*
  Basis Set:
  Basis Set: 6-31G*
  Basis Set:
  @DF-RHF Final Energy:  -232.14205535664058
    Total Energy =                       -232.1420553566406397
  Basis Set: 6-31G*
  Basis Set:
  Basis Set: 6-31G*
  Basis Set:
  @DF-RHF Final Energy:  -232.14208339880787
    Total Energy =                       -232.1420833988079835
  Basis Set: 6-31G*
  Basis Set:
  Charge       = 0
  Multiplicity = 1
  Basis Set: 6-31G*
  Basis Set:

    Orbital Energies (a.u.)
    -----------------------

    Doubly Occupied:

       1A    -20.549878     2A    -11.268212     3A    -11.267979
       4A    -11.210447     5A    -11.208438     6A     -1.374544
       7A     -1.040774     8A     -0.985761     9A     -0.861056
      10A     -0.814098    11A     -0.672041    12A     -0.646607
      13A     -0.644789    14A     -0.573906    15A     -0.550039
      16A     -0.543859    17A     -0.523592    18A     -0.501998
      19A     -0.487376    20A     -0.457328    21A     -0.407320

  @DF-RHF Final Energy:  -232.14208465151231

   => Energetics <=

    Nuclear Repulsion Energy =            192.4712994643421951
    One-Electron Energy =                -696.0466847178097396
    Two-Electron Energy =                 271.4333006019552386
    DFT Exchange-Correlation Energy =       0.0000000000000000
    Empirical Dispersion Energy =           0.0000000000000000
    PCM Polarization Energy =               0.0000000000000000
    EFP Energy =                            0.0000000000000000
    Total Energy =                       -232.1420846515122776
    Molecular point group: c1
  Basis Set: 6-31G*
  Basis Set:

  -Total Gradient:
     Atom            X                  Y                   Z
    ------   -----------------  -----------------  -----------------
       1        0.000000197251    -0.000000096001     0.000000923894
       2        0.000007691684    -0.000004377757    -0.000004120382
       3       -0.000012044205    -0.000276563687    -0.000019741884
       4       -0.000007972846    -0.000001851982    -0.000002887536
       5        0.000003747158    -0.000003032349    -0.000004936565
       6        0.000098545738     0.000548968714     0.000025940165
       7       -0.000007986236     0.000005934989     0.000017863096
       8       -0.000022048669    -0.000004648953    -0.000008876290
       9       -0.000117929364    -0.000557573542    -0.000244363462
      10        0.000002442714    -0.000045891056    -0.000015260407
      11        0.000087100717     0.000302655592     0.000256645425
      12       -0.000024424614     0.000035205817     0.000013069372
      13       -0.000001803459    -0.000018773543    -0.000013710989
      14       -0.000008077541     0.000009968006     0.000003045636
      15        0.000002561672     0.000010075750    -0.000003590072

  **** Optimization is complete! (in 5 steps) ****
    Final optimized geometry and variables:
    Molecular point group: c1

    Geometry (in Angstrom), charge = 0, multiplicity = 1:

    H            2.184825519707     0.532186673976    -1.376246555268
    C            2.192110975737    -0.342701382309    -0.736004993259
    C            1.033496608300    -0.292290253898     0.240933904597
    H            3.138147794048    -0.374099640260    -0.204187659361
    H            2.118127411272    -1.223566554794    -1.363604471266
    O           -0.157176940294    -0.264464002336    -0.491290713499
    H            1.119350952798     0.586274310701     0.877085410350
    H            1.048099247181    -1.166033640734     0.891617723294
    C           -1.339921626128    -0.256441863260     0.257345850523
    C           -1.736797352368     1.139423187967     0.720311559111
    H           -1.249579925650    -0.926064304144     1.111264470510
    H           -2.109309328409    -0.657781938606    -0.390873687902
    H           -1.007412853496     1.561416528267     1.403532007201
    H           -2.693333700322     1.107642948190     1.234040217175
    H           -1.827194133297     1.804490514982    -0.131559959531

  Mulliken Charges: (a.u.)
   Center  Symbol    Alpha    Beta     Spin     Total
       1     H     0.41352  0.41352  0.00000  0.17295
       2     C     3.24363  3.24363  0.00000 -0.48725
       3     C     2.98948  2.98948  0.00000  0.02104
       4     H     0.42288  0.42288  0.00000  0.15423
       5     H     0.41333  0.41333  0.00000  0.17334
       6     O     4.31030  4.31030  0.00000 -0.62060
       7     H     0.43178  0.43178  0.00000  0.13644
       8     H     0.43185  0.43185  0.00000  0.13630
       9     C     2.99195  2.99195  0.00000  0.01611
      10     C     3.24935  3.24935  0.00000 -0.49869
      11     H     0.43185  0.43185  0.00000  0.13629
      12     H     0.41547  0.41547  0.00000  0.16906
      13     H     0.41958  0.41958  0.00000  0.16083
      14     H     0.42206  0.42206  0.00000  0.15588
      15     H     0.41296  0.41296  0.00000  0.17407

   Total alpha = 21.00000, Total beta = 21.00000, Total charge =  0.00000
