  ==> Input File <==

--------------------------------------------------------------------------
set {
	reference rhf
	basis cc-pvtz
}

set_num_threads( 4 )
memory 2 gb

molecule MOL {
0 1

H	 -3.642953	 0.223825	 0.000000
C	 -2.571844	 0.155001	 0.000000
C	 -1.957580	 -1.086132	 0.000000
C	 -1.807160	 1.303787	 0.000000
H	 -2.551493	 -1.979629	 0.000000
C	 -0.582719	 -1.174294	 0.000000
H	 -2.279934	 2.266806	 0.000000
C	 -0.427220	 1.213406	 0.000000
H	 -0.094904	 -2.127556	 0.000000
C	 0.196908	 -0.024061	 0.000000
H	 0.151409	 2.115254	 0.000000
C	 1.690041	 -0.173233	 0.000000
C	 2.297411	 -1.481515	 -0.451841
O	 2.386848	 0.725064	 0.350546
H	 1.955095	 -2.299005	 0.171465
H	 3.370712	 -1.402685	 -0.384457
H	 2.014634	 -1.703048	 -1.474064

	symmetry c1
}
set optking {
	frozen_dihedral = ("
		13 12 10 8
	")
}

ee = optimize('scf')
oeprop('DIPOLE', 'QUADRUPOLE', 'MULLIKEN_CHARGES')
f=open( 'psi4out.xyz', 'w' )
f.write( "17  " )
f.write( str(ee) + "\n" )
f.write( MOL.save_string_xyz() )
f.close()
--------------------------------------------------------------------------

    Molecular point group: c1
  Charge       = 0
  Multiplicity = 1
  Basis Set: CC-PVTZ
  Basis Set:
  @DF-RHF Final Energy:  -382.60306486348276
    Total Energy =                       -382.6030648634823592
    Molecular point group: c1
  Basis Set: CC-PVTZ
  Basis Set:
  Basis Set: CC-PVTZ
  Basis Set:
  @DF-RHF Final Energy:  -382.60367186561137
    Total Energy =                       -382.6036718656112043
  Basis Set: CC-PVTZ
  Basis Set:
  Basis Set: CC-PVTZ
  Basis Set:
  @DF-RHF Final Energy:  -382.60286860691076
    Total Energy =                       -382.6028686069108744
  Basis Set: CC-PVTZ
  Basis Set:
  Basis Set: CC-PVTZ
  Basis Set:
  @DF-RHF Final Energy:  -382.60501761607389
    Total Energy =                       -382.6050176160733827
  Basis Set: CC-PVTZ
  Basis Set:
  Basis Set: CC-PVTZ
  Basis Set:
  @DF-RHF Final Energy:  -382.60505597994734
    Total Energy =                       -382.6050559799471102
  Basis Set: CC-PVTZ
  Basis Set:
  Basis Set: CC-PVTZ
  Basis Set:
  @DF-RHF Final Energy:  -382.60506045335109
    Total Energy =                       -382.6050604533510295
  Basis Set: CC-PVTZ
  Basis Set:
  Charge       = 0
  Multiplicity = 1
  Basis Set: CC-PVTZ
  Basis Set:

    Orbital Energies (a.u.)
    -----------------------

    Doubly Occupied:

       1A    -20.540938     2A    -11.327917     3A    -11.246589
       4A    -11.243943     5A    -11.242897     6A    -11.239277
       7A    -11.239018     8A    -11.236828     9A    -11.229119
      10A     -1.402258    11A     -1.171248    12A     -1.053479
      13A     -1.030720    14A     -0.998985    15A     -0.864477
      16A     -0.839212    17A     -0.763736    18A     -0.712644
      19A     -0.659273    20A     -0.651961    21A     -0.628359
      22A     -0.613133    23A     -0.602719    24A     -0.598539
      25A     -0.556465    26A     -0.529933    27A     -0.520880
      28A     -0.504051    29A     -0.497493    30A     -0.414451
      31A     -0.350710    32A     -0.346904

  @DF-RHF Final Energy:  -382.60506130732796

   => Energetics <=

    Nuclear Repulsion Energy =            404.4529281913740419
    One-Electron Energy =               -1320.3996671822678763
    Two-Electron Energy =                 533.3416776835663313
    DFT Exchange-Correlation Energy =       0.0000000000000000
    Empirical Dispersion Energy =           0.0000000000000000
    PCM Polarization Energy =               0.0000000000000000
    EFP Energy =                            0.0000000000000000
    Total Energy =                       -382.6050613073275599
    Molecular point group: c1
  Basis Set: CC-PVTZ
  Basis Set:

  -Total Gradient:
     Atom            X                  Y                   Z
    ------   -----------------  -----------------  -----------------
       1       -0.000001928484    -0.000007556463    -0.000010400087
       2        0.000035752814     0.000104830080     0.000025668873
       3        0.000075853173    -0.000049075512    -0.000008468332
       4       -0.000084757140    -0.000025866793    -0.000001876632
       5       -0.000007786941     0.000010212890    -0.000001763078
       6       -0.000060046833    -0.000053265520    -0.000012594589
       7       -0.000004376499    -0.000001227205     0.000004548058
       8       -0.000006967168    -0.000005273603    -0.001939313862
       9       -0.000004336968     0.000020293063     0.000001364152
      10        0.000019243983     0.000313839485     0.001983044683
      11        0.000007935377    -0.000006899059     0.000006714469
      12        0.000049615088    -0.000854069671     0.001634768632
      13        0.000058589226     0.000610654117    -0.001668170544
      14       -0.000061009135    -0.000024037583    -0.000021965118
      15       -0.000006667575    -0.000012112183     0.000008679157
      16       -0.000008178052    -0.000027978891    -0.000004334915
      17       -0.000000934859     0.000007532849     0.000004099136

  **** Optimization is complete! (in 7 steps) ****
    Final optimized geometry and variables:
    Molecular point group: c1

    Geometry (in Angstrom), charge = 0, multiplicity = 1:

    H           -3.632381295480     0.341455266272    -0.005763255536
    C           -2.563599798049     0.243187523918     0.003275712039
    C           -1.986218523030    -1.010734874043    -0.000048775164
    C           -1.764412682450     1.373536407251     0.014876315323
    H           -2.602934273786    -1.888605984208    -0.008682479260
    C           -0.609272700081    -1.135973556913     0.002176252561
    H           -2.212277906643     2.348513620334     0.011724799618
    C           -0.392011520028     1.247039561079     0.031693682410
    H           -0.175909065869    -2.116299541164    -0.008703655718
    C            0.198277923915    -0.010077198921     0.029142544909
    H            0.237356654504     2.113590542194     0.049503200331
    C            1.696673986507    -0.094576255570     0.025748261184
    C            2.352772282103    -1.377932846080    -0.430036092277
    O            2.354846239076     0.844104488410     0.341764517774
    H            2.146949617059    -2.181644593875     0.267612049372
    H            3.418569974507    -1.221125625368    -0.481862839467
    H            1.975169856608    -1.677385148677    -1.399923910501

  Mulliken Charges: (a.u.)
   Center  Symbol    Alpha    Beta     Spin     Total
       1     H     0.42034  0.42034  0.00000  0.15932
       2     C     3.07396  3.07396  0.00000 -0.14792
       3     C     3.07481  3.07481  0.00000 -0.14961
       4     C     3.07307  3.07307  0.00000 -0.14614
       5     H     0.42219  0.42219  0.00000  0.15562
       6     C     3.08702  3.08702  0.00000 -0.17403
       7     H     0.42036  0.42036  0.00000  0.15927
       8     C     3.07793  3.07793  0.00000 -0.15586
       9     H     0.42185  0.42185  0.00000  0.15630
      10     C     3.00434  3.00434  0.00000 -0.00868
      11     H     0.40826  0.40826  0.00000  0.18348
      12     C     2.84180  2.84180  0.00000  0.31641
      13     C     3.16570  3.16570  0.00000 -0.33139
      14     O     4.18187  4.18187  0.00000 -0.36373
      15     H     0.44904  0.44904  0.00000  0.10192
      16     H     0.43227  0.43227  0.00000  0.13546
      17     H     0.44520  0.44520  0.00000  0.10959

   Total alpha = 32.00000, Total beta = 32.00000, Total charge = -0.00000
