  ==> Input File <==

--------------------------------------------------------------------------
set {
	reference rhf
	basis 6-31G*
}

set_num_threads( 4 )
memory 2 gb

molecule MOL {
0 1

O	 0.749854	 1.307668	 -0.000040
C	 0.576249	 0.131685	 -0.000108
C	 -0.766779	 -0.556801	 -0.000461
O	 1.568443	 -0.749345	 -0.000005
C	 -1.945214	 0.412366	 0.000161
H	 -0.796911	 -1.211249	 -0.867467
H	 -0.796854	 -1.212390	 0.865687
C	 -3.287791	 -0.317055	 0.000105
H	 -1.876087	 1.060580	 -0.866812
H	 -1.875822	 1.059691	 0.867761
H	 -3.394745	 -0.949193	 -0.877058
H	 -4.111778	 0.388953	 0.000015
H	 -3.394954	 -0.949187	 0.877259
C	 1.261656	 -2.062707	 0.431470
H	 0.906673	 -2.054173	 1.451987
H	 2.183126	 -2.619258	 0.360688
H	 0.507323	 -2.504828	 -0.203369

	symmetry c1
}
set optking {
	frozen_dihedral = ("
		14 4 2 1
	")
}

ee = optimize('scf')
oeprop('DIPOLE', 'QUADRUPOLE', 'MULLIKEN_CHARGES')
f=open( 'psi4out.xyz', 'w' )
f.write( "17  " )
f.write( str(ee) + "\n" )
f.write( MOL.save_string_xyz() )
f.close()
--------------------------------------------------------------------------

    Molecular point group: c1
  Charge       = 0
  Multiplicity = 1
  Basis Set: 6-31G*
  Basis Set:
  @DF-RHF Final Energy:  -344.88055682913068
    Total Energy =                       -344.8805568291307395
    Molecular point group: c1
  Basis Set: 6-31G*
  Basis Set:
  Basis Set: 6-31G*
  Basis Set:
  @DF-RHF Final Energy:  -344.87931911061702
    Total Energy =                       -344.8793191106173026
  Basis Set: 6-31G*
  Basis Set:
  Basis Set: 6-31G*
  Basis Set:
  @DF-RHF Final Energy:  -344.88829825852605
    Total Energy =                       -344.8882982585258787
  Basis Set: 6-31G*
  Basis Set:
  Basis Set: 6-31G*
  Basis Set:
  @DF-RHF Final Energy:  -344.89028208576025
    Total Energy =                       -344.8902820857600773
  Basis Set: 6-31G*
  Basis Set:
  @DF-RHF Final Energy:  -344.88933955951012
    Total Energy =                       -344.8893395595097218
  Basis Set: 6-31G*
  Basis Set:
  @DF-RHF Final Energy:  -344.89078470448982
    Total Energy =                       -344.8907847044896471
  Basis Set: 6-31G*
  Basis Set:
  Basis Set: 6-31G*
  Basis Set:
  @DF-RHF Final Energy:  -344.89097060215732
    Total Energy =                       -344.8909706021572674
  Basis Set: 6-31G*
  Basis Set:
  Basis Set: 6-31G*
  Basis Set:
  @DF-RHF Final Energy:  -344.89097403140238
    Total Energy =                       -344.8909740314022656
  Basis Set: 6-31G*
  Basis Set:
  Charge       = 0
  Multiplicity = 1
  Basis Set: 6-31G*
  Basis Set:

    Orbital Energies (a.u.)
    -----------------------

    Doubly Occupied:

       1A    -20.600878     2A    -20.541422     3A    -11.374330
       4A    -11.296652     5A    -11.246078     6A    -11.226356
       7A    -11.218772     8A     -1.462932     9A     -1.365708
      10A     -1.082956    11A     -0.990090    12A     -0.968894
      13A     -0.839061    14A     -0.766803    15A     -0.704032
      16A     -0.688353    17A     -0.673220    18A     -0.641492
      19A     -0.603833    20A     -0.579340    21A     -0.571842
      22A     -0.544535    23A     -0.530738    24A     -0.496105
      25A     -0.490768    26A     -0.484359    27A     -0.448192
      28A     -0.432044

  @DF-RHF Final Energy:  -344.89097430227054

   => Energetics <=

    Nuclear Repulsion Energy =            313.9555675376695376
    One-Electron Energy =               -1091.9535109853945869
    Two-Electron Energy =                 433.1069691454544568
    DFT Exchange-Correlation Energy =       0.0000000000000000
    Empirical Dispersion Energy =           0.0000000000000000
    PCM Polarization Energy =               0.0000000000000000
    EFP Energy =                            0.0000000000000000
    Total Energy =                       -344.8909743022705356
    Molecular point group: c1
  Basis Set: 6-31G*
  Basis Set:

  -Total Gradient:
     Atom            X                  Y                   Z
    ------   -----------------  -----------------  -----------------
       1        0.000035954082    -0.000091896797     0.002203695750
       2        0.000168428617     0.000343530604    -0.002182206863
       3        0.000016659296     0.000006590590     0.000046428258
       4       -0.000665343740    -0.000766648999    -0.001868741515
       5        0.000005206286    -0.000006258785    -0.000015074060
       6        0.000021985972     0.000002254770    -0.000005177779
       7       -0.000007858167     0.000009751609    -0.000011304429
       8       -0.000006474593     0.000004362477     0.000008199991
       9        0.000003668973    -0.000004326128     0.000000421318
      10       -0.000001458216     0.000001253916     0.000002450911
      11        0.000001627396     0.000003597032    -0.000001565355
      12       -0.000004443076    -0.000001447775     0.000001392029
      13        0.000000480798    -0.000001542778    -0.000001058259
      14        0.000441436645     0.000539195803     0.001846026024
      15        0.000018102997    -0.000044334833    -0.000005076807
      16       -0.000008145735    -0.000009442178    -0.000002537698
      17       -0.000019827536     0.000015361474    -0.000015871516

  **** Optimization is complete! (in 9 steps) ****
    Final optimized geometry and variables:
    Molecular point group: c1

    Geometry (in Angstrom), charge = 0, multiplicity = 1:

    O            0.955686884203     1.518135101664    -0.028680079837
    C            0.776169751594     0.348252306713    -0.033049610232
    C           -0.602500191165    -0.282803216840    -0.038621238408
    O            1.832063988878    -0.472004465407    -0.059662666093
    C           -1.724489169039     0.750983392938    -0.099698088167
    H           -0.662580575087    -0.960860652828    -0.886633834026
    H           -0.711676530275    -0.901825888855     0.848314818084
    C           -3.105038762004     0.096581015925    -0.108951925392
    H           -1.597028035787     1.362955916806    -0.985372307119
    H           -1.636226721744     1.422148543309     0.746852363236
    H           -3.228700268079    -0.557742855732    -0.967558139332
    H           -3.887168548616     0.847230919162    -0.152391609908
    H           -3.268835821990    -0.497926009825     0.785783975498
    C            1.755224875425    -1.820300253581     0.338522435268
    H            1.423115386701    -1.909423046859     1.365712857990
    H            2.759188482872    -2.207129199789     0.259714073325
    H            1.103629356647    -2.397372124173    -0.305354870745

  Mulliken Charges: (a.u.)
   Center  Symbol    Alpha    Beta     Spin     Total
       1     O     4.26538  4.26538  0.00000 -0.53075
       2     C     2.59963  2.59963  0.00000  0.80074
       3     C     3.23149  3.23149  0.00000 -0.46299
       4     O     4.30389  4.30389  0.00000 -0.60778
       5     C     3.14858  3.14858  0.00000 -0.29716
       6     H     0.40325  0.40325  0.00000  0.19349
       7     H     0.40541  0.40541  0.00000  0.18918
       8     C     3.24350  3.24350  0.00000 -0.48701
       9     H     0.40813  0.40813  0.00000  0.18375
      10     H     0.40788  0.40788  0.00000  0.18425
      11     H     0.42175  0.42175  0.00000  0.15649
      12     H     0.41349  0.41349  0.00000  0.17301
      13     H     0.42226  0.42226  0.00000  0.15548
      14     C     3.09396  3.09396  0.00000 -0.18792
      15     H     0.41584  0.41584  0.00000  0.16833
      16     H     0.39811  0.39811  0.00000  0.20378
      17     H     0.41744  0.41744  0.00000  0.16511

   Total alpha = 28.00000, Total beta = 28.00000, Total charge = -0.00000
