                              Psi4 1.0.54 Driver

  ==> Input File <==

--------------------------------------------------------------------------
set {
	reference rhf
	basis cc-pvtz
}

set_num_threads( 4 )
memory 2 gb

molecule MOL {
0 1

H	 0.951709	 1.564153	 -0.280407
O	 0.057669	 1.301365	 -0.158528
C	 0.004145	 -0.005141	 0.363049
C	 1.199168	 -0.827145	 -0.096690
C	 -1.316386	 -0.602081	 -0.083515
H	 0.012026	 0.043363	 1.450619
H	 1.216685	 -0.896776	 -1.178167
H	 2.129940	 -0.372354	 0.228035
H	 1.160783	 -1.829622	 0.314294
H	 -1.357882	 -0.655920	 -1.165207
H	 -2.140147	 0.011735	 0.257253
H	 -1.440790	 -1.601175	 0.317669

	symmetry c1
}
set optking {
	frozen_dihedral = ("
		1 2 3 4
	")
}

ee,wfn = optimize('scf', return_wfn=True)
oeprop( wfn, 'DIPOLE', 'QUADRUPOLE', 'MULLIKEN_CHARGES')
f=open( 'psi4out.xyz', 'w' )
f.write( "12  " )
f.write( str(ee) + "\n" )
f.write( MOL.save_string_xyz() )
f.close()
--------------------------------------------------------------------------

    Molecular point group: c1
  Charge       = 0
  Multiplicity = 1
  Basis Set: CC-PVTZ
  Basis Set:
  @DF-RHF Final Energy:  -193.19504499055827
    Total Energy =                       -193.1950449905582445
    Molecular point group: c1
  Basis Set: CC-PVTZ
  Basis Set:
  Basis Set: CC-PVTZ
  Basis Set:
  @DF-RHF Final Energy:  -193.19510470176758
    Total Energy =                       -193.1951047017677183
  Basis Set: CC-PVTZ
  Basis Set:
  Basis Set: CC-PVTZ
  Basis Set:
  @DF-RHF Final Energy:  -193.19513152993741
    Total Energy =                       -193.1951315299373277
  Basis Set: CC-PVTZ
  Basis Set:
  Charge       = 0
  Multiplicity = 1
  Basis Set: CC-PVTZ
  Basis Set:

    Orbital Energies (a.u.)
    -----------------------

    Doubly Occupied:

       1A    -20.543200     2A    -11.273949     3A    -11.215800
       4A    -11.205101     5A     -1.363897     6A     -1.043957
       7A     -0.943389     8A     -0.807962     9A     -0.688817
      10A     -0.639967    11A     -0.608254    12A     -0.548053
      13A     -0.538368    14A     -0.526548    15A     -0.514497
      16A     -0.470451    17A     -0.431309

  @DF-RHF Final Energy:  -193.19513175359850

   => Energetics <=

    Nuclear Repulsion Energy =            135.7493966189181265
    One-Electron Energy =                -531.1620164434061735
    Two-Electron Energy =                 202.2174880708896580
    DFT Exchange-Correlation Energy =       0.0000000000000000
    Empirical Dispersion Energy =           0.0000000000000000
    PCM Polarization Energy =               0.0000000000000000
    EFP Energy =                            0.0000000000000000
    Total Energy =                       -193.1951317535983890
    Molecular point group: c1
  Basis Set: CC-PVTZ
  Basis Set:

  -Total Gradient:
     Atom            X                  Y                   Z
    ------   -----------------  -----------------  -----------------
       1       -0.000027457958    -0.000645861825    -0.001742836803
       2        0.000295543909     0.000963232270     0.002493959357
       3       -0.000863384214    -0.000623381634    -0.001696497725
       4        0.000604429902     0.000333861724     0.000952454418
       5       -0.000015297447    -0.000016015892    -0.000001078732
       6        0.000009274375    -0.000025484974    -0.000008841004
       7       -0.000016442006     0.000003308002     0.000008979980
       8        0.000012485693     0.000000870869    -0.000006198455
       9       -0.000003353454     0.000007575247    -0.000000028818
      10        0.000001952743     0.000002097911     0.000005367576
      11        0.000003671381    -0.000005169489    -0.000004224104
      12       -0.000001422924     0.000004967791    -0.000001055692

  **** Optimization is complete! (in 4 steps) ****
    Final optimized geometry and variables:
    Molecular point group: c1

    Geometry (in Angstrom), charge = 0, multiplicity = 1:

    H            0.953881823395     1.578277668875    -0.251385652877
    O            0.061514073343     1.310008692595    -0.135173503950
    C            0.003929219753    -0.007080326981     0.361596657884
    C            1.195144506261    -0.828403013034    -0.106198317094
    C           -1.323306233703    -0.597925115633    -0.073825386931
    H            0.023998933896     0.032107189920     1.449106448218
    H            1.214784296139    -0.892913255862    -1.188808467859
    H            2.127232992838    -0.381784212303     0.226938366278
    H            1.151272501529    -1.833655039883     0.295645786691
    H           -1.367544288985    -0.675554133969    -1.154036445119
    H           -2.138116175905     0.035074173965     0.253598619767
    H           -1.462567880521    -1.584992076954     0.352284890396

  Mulliken Charges: (a.u.)
   Center  Symbol    Alpha    Beta     Spin     Total
       1     H     0.39340  0.39340  0.00000  0.21321
       2     O     4.20756  4.20756  0.00000 -0.41512
       3     C     2.91930  2.91930  0.00000  0.16140
       4     C     3.15284  3.15284  0.00000 -0.30569
       5     C     3.13965  3.13965  0.00000 -0.27931
       6     H     0.46635  0.46635  0.00000  0.06730
       7     H     0.45070  0.45070  0.00000  0.09860
       8     H     0.45612  0.45612  0.00000  0.08777
       9     H     0.45317  0.45317  0.00000  0.09365
      10     H     0.45546  0.45546  0.00000  0.08908
      11     H     0.44600  0.44600  0.00000  0.10801
      12     H     0.45945  0.45945  0.00000  0.08110

   Total alpha = 17.00000, Total beta = 17.00000, Total charge = -0.00000

*** Psi4 exiting successfully. Buy a developer a beer!
