  ==> Input File <==

--------------------------------------------------------------------------
set {
	reference rhf
	basis cc-pvtz
}

set_num_threads( 4 )
memory 2 gb

molecule MOL {
0 1

H	 1.120746	 0.328159	 1.508480
C	 1.141832	 0.156298	 0.423649
C	 0.062554	 0.862911	 -0.350953
O	 1.975935	 -0.534515	 -0.049851
C	 -1.339253	 0.577611	 0.196911
H	 0.146471	 0.582688	 -1.393031
H	 0.267542	 1.928189	 -0.271973
C	 -1.813142	 -0.849710	 -0.061612
H	 -2.032833	 1.276441	 -0.256032
H	 -1.357249	 0.782269	 1.263793
H	 -1.839268	 -1.063526	 -1.124230
H	 -2.810118	 -1.001930	 0.334000
H	 -1.159274	 -1.579980	 0.402282

	symmetry c1
}
set optking {
	frozen_dihedral = ("
		6 3 5 9
	")
}

ee = optimize('scf')
oeprop('DIPOLE', 'QUADRUPOLE', 'MULLIKEN_CHARGES')
f=open( 'psi4out.xyz', 'w' )
f.write( "13  " )
f.write( str(ee) + "\n" )
f.write( MOL.save_string_xyz() )
f.close()
--------------------------------------------------------------------------

    Molecular point group: c1
  Charge       = 0
  Multiplicity = 1
  Basis Set: CC-PVTZ
  Basis Set:
  @DF-RHF Final Energy:  -231.07070992413824
    Total Energy =                       -231.0707099241381570
    Molecular point group: c1
  Basis Set: CC-PVTZ
  Basis Set:
  Basis Set: CC-PVTZ
  Basis Set:
  @DF-RHF Final Energy:  -231.07071695653102
    Total Energy =                       -231.0707169565308732
  Basis Set: CC-PVTZ
  Basis Set:
  Basis Set: CC-PVTZ
  Basis Set:
  @DF-RHF Final Energy:  -231.07069415390885
    Total Energy =                       -231.0706941539087609
  Basis Set: CC-PVTZ
  Basis Set:
  Basis Set: CC-PVTZ
  Basis Set:
  @DF-RHF Final Energy:  -231.07071893204633
    Total Energy =                       -231.0707189320463328
  Basis Set: CC-PVTZ
  Basis Set:
  Charge       = 0
  Multiplicity = 1
  Basis Set: CC-PVTZ
  Basis Set:

    Orbital Energies (a.u.)
    -----------------------

    Doubly Occupied:

       1A    -20.552652     2A    -11.321932     3A    -11.236920
       4A    -11.234819     5A    -11.219443     6A     -1.407613
       7A     -1.088003     8A     -0.974223     9A     -0.847711
      10A     -0.790251    11A     -0.668707    12A     -0.652113
      13A     -0.629259    14A     -0.595253    15A     -0.560363
      16A     -0.537513    17A     -0.507171    18A     -0.494190
      19A     -0.483947    20A     -0.413064

  @DF-RHF Final Energy:  -231.07071946296620

   => Energetics <=

    Nuclear Repulsion Energy =            174.0214630042744659
    One-Electron Energy =                -657.7540762855137473
    Two-Electron Energy =                 252.6618938182731711
    DFT Exchange-Correlation Energy =       0.0000000000000000
    Empirical Dispersion Energy =           0.0000000000000000
    PCM Polarization Energy =               0.0000000000000000
    EFP Energy =                            0.0000000000000000
    Total Energy =                       -231.0707194629661387
    Molecular point group: c1
  Basis Set: CC-PVTZ
  Basis Set:

  -Total Gradient:
     Atom            X                  Y                   Z
    ------   -----------------  -----------------  -----------------
       1       -0.000002262617    -0.000010316445     0.000007728596
       2        0.000006887775     0.000014768137    -0.000005651235
       3       -0.000263852628     0.000846038930    -0.000109175492
       4       -0.000001118632     0.000008342102    -0.000001144667
       5       -0.000062578624    -0.000671138056    -0.000560593582
       6        0.000200551972    -0.000618756189     0.000172898901
       7        0.000015485693    -0.000000443844    -0.000000708944
       8       -0.000000689332     0.000000081096    -0.000013056149
       9        0.000109133568     0.000419014763     0.000500723526
      10       -0.000006179659     0.000006709113     0.000006127514
      11       -0.000000650347    -0.000003708378    -0.000001400144
      12        0.000000792062     0.000002128303     0.000000377948
      13        0.000004480771     0.000007280470     0.000003873727

  **** Optimization is complete! (in 5 steps) ****
    Final optimized geometry and variables:
    Molecular point group: c1

    Geometry (in Angstrom), charge = 0, multiplicity = 1:

    H            1.112153570609     0.299475120584     1.478698083639
    C            1.132247424050     0.130233931431     0.393466257388
    C            0.057392286530     0.845573465197    -0.379954274630
    O            1.961451373322    -0.565363604530    -0.081580547378
    C           -1.345600529840     0.558386604010     0.164125699867
    H            0.144566220679     0.566320589326    -1.422041419323
    H            0.265897260215     1.909491276679    -0.294998582699
    C           -1.812957380584    -0.871687053646    -0.088894119991
    H           -2.040739535160     1.255695462096    -0.288655242186
    H           -1.365819944010     0.766679652372     1.230501438447
    H           -1.841697969341    -1.088386687863    -1.150824493926
    H           -2.807629442496    -1.028391492938     0.310743740321
    H           -1.152815147552    -1.596509961697     0.374664567097

  Mulliken Charges: (a.u.)
   Center  Symbol    Alpha    Beta     Spin     Total
       1     H     0.46508  0.46508  0.00000  0.06984
       2     C     2.90589  2.90589  0.00000  0.18823
       3     C     3.08649  3.08649  0.00000 -0.17298
       4     O     4.16436  4.16436  0.00000 -0.32871
       5     C     3.10314  3.10314  0.00000 -0.20629
       6     H     0.44355  0.44355  0.00000  0.11290
       7     H     0.44256  0.44256  0.00000  0.11487
       8     C     3.14373  3.14373  0.00000 -0.28747
       9     H     0.44368  0.44368  0.00000  0.11264
      10     H     0.45188  0.45188  0.00000  0.09624
      11     H     0.45132  0.45132  0.00000  0.09736
      12     H     0.44668  0.44668  0.00000  0.10664
      13     H     0.45163  0.45163  0.00000  0.09674

   Total alpha = 20.00000, Total beta = 20.00000, Total charge = -0.00000
