  ==> Input File <==

--------------------------------------------------------------------------
set {
	reference rhf
	basis 6-31G*
}

set_num_threads( 1 )
memory 2 gb

molecule MOL {
0 1

H	 2.383636	 -3.220391	 -1.621315
C	 2.436923	 -2.410381	 -0.901041
C	 1.182425	 -1.539800	 -0.958365
H	 2.563208	 -2.852517	 0.083232
H	 3.330120	 -1.832169	 -1.120398
C	 1.217350	 -0.386724	 0.039429
H	 0.299935	 -2.140563	 -0.761682
H	 1.067355	 -1.140162	 -1.964565
N	 0.000003	 0.397874	 -0.023260
H	 1.305953	 -0.786385	 1.046099
H	 2.113115	 0.219426	 -0.132516
C	 -1.217365	 -0.386708	 0.039277
H	 -0.000031	 1.072115	 0.718656
C	 -2.452633	 0.504241	 -0.042481
H	 -1.215291	 -1.074557	 -0.802042
H	 -1.269739	 -1.003477	 0.942735
C	 -3.758029	 -0.289423	 -0.010781
H	 -2.394220	 1.093569	 -0.952170
H	 -2.440793	 1.210787	 0.785871
H	 -3.816659	 -0.981993	 -0.845726
H	 -4.617837	 0.370165	 -0.069296
H	 -3.847478	 -0.867502	 0.904682

	symmetry c1
}
set optking {
	frozen_dihedral = ("
		15 12 14 18
	")
}

ee = energy('scf')
oeprop('DIPOLE', 'QUADRUPOLE', 'MULLIKEN_CHARGES')
f=open( 'psi4out.xyz', 'w' )
f.write( "22  " )
f.write( str(ee) + "\n" )
f.write( MOL.save_string_xyz() )
f.close()
--------------------------------------------------------------------------

    Molecular point group: c1

    Geometry (in Angstrom), charge = 0, multiplicity = 1:

       Center              X                  Y                   Z               Mass
    ------------   -----------------  -----------------  -----------------  -----------------
           H          2.756318260839    -2.621490219133    -1.362699306936     1.007825032070
           C          2.809605260839    -1.811480219133    -0.642425306936    12.000000000000
           C          1.555107260839    -0.940899219133    -0.699749306936    12.000000000000
           H          2.935890260839    -2.253616219133     0.341847693064     1.007825032070
           H          3.702802260839    -1.233268219133    -0.861782306936     1.007825032070
           C          1.590032260839     0.212176780867     0.298044693064    12.000000000000
           H          0.672617260839    -1.541662219133    -0.503066306936     1.007825032070
           H          1.440037260839    -0.541261219133    -1.705949306936     1.007825032070
           N          0.372685260839     0.996774780867     0.235355693064    14.003074004780
           H          1.678635260839    -0.187484219133     1.304714693064     1.007825032070
           H          2.485797260839     0.818326780867     0.126099693064     1.007825032070
           C         -0.844682739161     0.212192780867     0.297892693064    12.000000000000
           H          0.372651260839     1.671015780867     0.977271693064     1.007825032070
           C         -2.079950739161     1.103141780867     0.216134693064    12.000000000000
           H         -0.842608739161    -0.475656219133    -0.543426306936     1.007825032070
           H         -0.897056739161    -0.404576219133     1.201350693064     1.007825032070
           C         -3.385346739161     0.309477780867     0.247834693064    12.000000000000
           H         -2.021537739161     1.692469780867    -0.693554306936     1.007825032070
           H         -2.068110739161     1.809687780867     1.044486693064     1.007825032070
           H         -3.443976739161    -0.383092219133    -0.587110306936     1.007825032070
           H         -4.245154739161     0.969065780867     0.189319693064     1.007825032070
           H         -3.474795739161    -0.268601219133     1.163297693064     1.007825032070

  Charge       = 0
  Multiplicity = 1
  Basis Set: 6-31G*
  Basis Set:

    Orbital Energies (a.u.)
    -----------------------

    Doubly Occupied:

       1A    -15.531922     2A    -11.238600     3A    -11.236703
       4A    -11.212975     5A    -11.212458     6A    -11.209539
       7A    -11.209394     8A     -1.206391     9A     -1.055654
      10A     -1.027256    11A     -0.928210    12A     -0.877662
      13A     -0.814783    14A     -0.779235    15A     -0.661753
      16A     -0.640947    17A     -0.616467    18A     -0.611679
      19A     -0.573392    20A     -0.555927    21A     -0.551613
      22A     -0.528503    23A     -0.503567    24A     -0.485255
      25A     -0.480026    26A     -0.471256    27A     -0.465462
      28A     -0.452664    29A     -0.354442

  @DF-RHF Final Energy:  -290.37368578550110

   => Energetics <=

    Nuclear Repulsion Energy =            320.5084252795080033
    One-Electron Energy =               -1026.7767604622597446
    Two-Electron Energy =                 415.8946493972488270
    DFT Exchange-Correlation Energy =       0.0000000000000000
    Empirical Dispersion Energy =           0.0000000000000000
    PCM Polarization Energy =               0.0000000000000000
    EFP Energy =                            0.0000000000000000
    Total Energy =                       -290.3736857855029712

  Mulliken Charges: (a.u.)
   Center  Symbol    Alpha    Beta     Spin     Total
       1     H     0.41810  0.41810  0.00000  0.16380
       2     C     3.24143  3.24143  0.00000 -0.48287
       3     C     3.16513  3.16513  0.00000 -0.33025
       4     H     0.42162  0.42162  0.00000  0.15677
       5     H     0.42128  0.42128  0.00000  0.15745
       6     C     3.04690  3.04690  0.00000 -0.09381
       7     H     0.41730  0.41730  0.00000  0.16541
       8     H     0.41529  0.41529  0.00000  0.16943
       9     N     3.85516  3.85516  0.00000 -0.71032
      10     H     0.43648  0.43648  0.00000  0.12703
      11     H     0.41925  0.41925  0.00000  0.16150
      12     C     3.05685  3.05685  0.00000 -0.11370
      13     H     0.33360  0.33360  0.00000  0.33281
      14     C     3.15339  3.15339  0.00000 -0.30678
      15     H     0.41636  0.41636  0.00000  0.16728
      16     H     0.43782  0.43782  0.00000  0.12435
      17     C     3.24331  3.24331  0.00000 -0.48662
      18     H     0.41301  0.41301  0.00000  0.17398
      19     H     0.42718  0.42718  0.00000  0.14563
      20     H     0.42101  0.42101  0.00000  0.15798
      21     H     0.41770  0.41770  0.00000  0.16460
      22     H     0.42183  0.42183  0.00000  0.15633

   Total alpha = 29.00000, Total beta = 29.00000, Total charge = -0.00000
