  ==> Input File <==

--------------------------------------------------------------------------
set {
	reference rhf
	basis cc-pvtz
}

set_num_threads( 4 )
memory 2 gb

molecule MOL {
0 1

O	 1.075136	 -0.269482	 -0.432647
C	 0.029490	 0.077183	 0.000078
C	 -1.232113	 -0.748027	 0.000015
O	 -0.170253	 1.262228	 0.552349
C	 -2.501422	 0.088592	 -0.000052
H	 -1.188777	 -1.400384	 -0.865133
H	 -1.188857	 -1.400312	 0.865225
H	 -2.548170	 0.725504	 -0.873205
H	 -3.371613	 -0.556398	 -0.000040
H	 -2.548215	 0.725571	 0.873047
C	 0.934152	 2.141745	 0.618525
H	 1.733057	 1.707330	 1.200993
H	 0.572312	 3.038928	 1.093877
H	 1.302021	 2.366726	 -0.371577

	symmetry c1
}
set optking {
	frozen_dihedral = ("
		4 2 3 6
	")
}

ee = optimize('scf')
oeprop('DIPOLE', 'QUADRUPOLE', 'MULLIKEN_CHARGES')
f=open( 'psi4out.xyz', 'w' )
f.write( "14  " )
f.write( str(ee) + "\n" )
f.write( MOL.save_string_xyz() )
f.close()
--------------------------------------------------------------------------

    Molecular point group: c1
  Charge       = 0
  Multiplicity = 1
  Basis Set: CC-PVTZ
  Basis Set:
  @DF-RHF Final Energy:  -305.98453369219163
    Total Energy =                       -305.9845336921914623
    Molecular point group: c1
  Basis Set: CC-PVTZ
  Basis Set:
  Basis Set: CC-PVTZ
  Basis Set:
  @DF-RHF Final Energy:  -305.98509124754298
    Total Energy =                       -305.9850912475429823
  Basis Set: CC-PVTZ
  Basis Set:
  Basis Set: CC-PVTZ
  Basis Set:
  @DF-RHF Final Energy:  -305.98533598323445
    Total Energy =                       -305.9853359832345632
  Basis Set: CC-PVTZ
  Basis Set:
  Basis Set: CC-PVTZ
  Basis Set:
  @DF-RHF Final Energy:  -305.98540619263395
    Total Energy =                       -305.9854061926336044
  Basis Set: CC-PVTZ
  Basis Set:
  Basis Set: CC-PVTZ
  Basis Set:
  @DF-RHF Final Energy:  -305.98542340261486
    Total Energy =                       -305.9854234026148561
  Basis Set: CC-PVTZ
  Basis Set:
  Basis Set: CC-PVTZ
  Basis Set:
  @DF-RHF Final Energy:  -305.98542804578130
    Total Energy =                       -305.9854280457815321
  Basis Set: CC-PVTZ
  Basis Set:
  Charge       = 0
  Multiplicity = 1
  Basis Set: CC-PVTZ
  Basis Set:

    Orbital Energies (a.u.)
    -----------------------

    Doubly Occupied:

       1A    -20.599552     2A    -20.531289     3A    -11.365301
       4A    -11.279931     5A    -11.237376     6A    -11.220258
       7A     -1.473965     8A     -1.365175     9A     -1.067390
      10A     -0.976184    11A     -0.888031    12A     -0.777210
      13A     -0.697401    14A     -0.685348    15A     -0.675901
      16A     -0.622380    17A     -0.587453    18A     -0.562792
      19A     -0.548186    20A     -0.523623    21A     -0.516884
      22A     -0.499800    23A     -0.459175    24A     -0.437152

  @DF-RHF Final Energy:  -305.98542810920037

   => Energetics <=

    Nuclear Repulsion Energy =            248.8466201909814970
    One-Electron Energy =                -910.4685766790826165
    Two-Electron Energy =                 355.6365283789006071
    DFT Exchange-Correlation Energy =       0.0000000000000000
    Empirical Dispersion Energy =           0.0000000000000000
    PCM Polarization Energy =               0.0000000000000000
    EFP Energy =                            0.0000000000000000
    Total Energy =                       -305.9854281092004840
    Molecular point group: c1
  Basis Set: CC-PVTZ
  Basis Set:

  -Total Gradient:
     Atom            X                  Y                   Z
    ------   -----------------  -----------------  -----------------
       1       -0.000035309859     0.000024986635     0.000016310096
       2        0.000162584287    -0.000255080414     0.000611762756
       3        0.000322211016    -0.000486058212     0.000260038631
       4       -0.000128865538     0.000254620944    -0.000515048736
       5        0.000003160967    -0.000001517178     0.000001070914
       6       -0.000309167246     0.000470845344    -0.000380914134
       7        0.000001737709     0.000001009431     0.000001919164
       8       -0.000000860495    -0.000001146623     0.000002133701
       9        0.000004107886    -0.000000981836     0.000001363320
      10       -0.000004990649     0.000006813394     0.000003004635
      11       -0.000022259686    -0.000017714578     0.000001069079
      12        0.000001594919    -0.000000734581     0.000000619510
      13        0.000003906542     0.000003778067    -0.000000023846
      14        0.000002150150     0.000001179606    -0.000003305090

  **** Optimization is complete! (in 7 steps) ****
    Final optimized geometry and variables:
    Molecular point group: c1

    Geometry (in Angstrom), charge = 0, multiplicity = 1:

    O            1.357145916828    -0.733751946509    -0.540362776515
    C            0.315877402451    -0.349186791805    -0.127185654765
    C           -0.942932515346    -1.183868304698    -0.133117957997
    O            0.149419760292     0.845901078035     0.409104712478
    C           -2.259037445964    -0.415187935342    -0.128606963136
    H           -0.871356865580    -1.830320192507    -0.996626616596
    H           -0.879528603956    -1.825753357859     0.740292627986
    H           -2.334006449039     0.241318534086    -0.986939988753
    H           -3.088207923774    -1.110901181220    -0.167487489356
    H           -2.363717523917     0.188334887767     0.761843213297
    C            1.285537197474     1.683770282462     0.488790143157
    H            2.054937265681     1.224935008671     1.091597325441
    H            0.948203885956     2.599099101240     0.947275002097
    H            1.680924117742     1.882430816290    -0.496042242564

  Mulliken Charges: (a.u.)
   Center  Symbol    Alpha    Beta     Spin     Total
       1     O     4.20222  4.20222  0.00000 -0.40445
       2     C     2.80544  2.80544  0.00000  0.38911
       3     C     3.08895  3.08895  0.00000 -0.17789
       4     O     4.14433  4.14433  0.00000 -0.28865
       5     C     3.14234  3.14234  0.00000 -0.28467
       6     H     0.43560  0.43560  0.00000  0.12880
       7     H     0.44477  0.44477  0.00000  0.11046
       8     H     0.45135  0.45135  0.00000  0.09730
       9     H     0.44923  0.44923  0.00000  0.10154
      10     H     0.44751  0.44751  0.00000  0.10497
      11     C     3.03497  3.03497  0.00000 -0.06994
      12     H     0.45351  0.45351  0.00000  0.09297
      13     H     0.44639  0.44639  0.00000  0.10722
      14     H     0.45338  0.45338  0.00000  0.09324

   Total alpha = 24.00000, Total beta = 24.00000, Total charge = -0.00000
