  ==> Input File <==

--------------------------------------------------------------------------
set {
	reference rhf
	basis cc-pvtz
}

set_num_threads( 4 )
memory 2 gb

molecule MOL {
0 1

H	 -3.268214	 -0.875720	 0.463107
C	 -2.806015	 0.000007	 0.024886
N	 -1.391133	 0.000016	 0.301321
H	 -3.029448	 0.000055	 -1.045738
H	 -3.268126	 0.875758	 0.463150
C	 -1.103616	 -0.232412	 1.700209
C	 -0.739302	 1.204690	 -0.164950
H	 -1.523737	 0.557146	 2.330245
H	 -1.559561	 -1.168176	 2.001116
C	 0.393479	 -0.307331	 1.934954
H	 -0.929276	 1.318070	 -1.225679
H	 -1.134585	 2.092214	 0.337942
C	 0.757793	 1.129771	 0.069794
H	 0.583452	 -0.420712	 2.995682
H	 0.788762	 -1.194855	 1.432061
N	 1.045310	 0.897343	 1.468682
H	 1.213738	 2.065535	 -0.231112
H	 1.177914	 0.340212	 -0.560241
C	 2.460192	 0.897352	 1.745117
H	 2.629002	 0.782874	 2.808584
H	 2.896765	 1.839339	 1.437504
H	 2.993481	 0.093463	 1.229827

	symmetry c1
}
set optking {
	frozen_dihedral = ("
		6 3 2 4
	")
}

ee = optimize('scf')
oeprop('DIPOLE', 'QUADRUPOLE', 'MULLIKEN_CHARGES')
f=open( 'psi4out.xyz', 'w' )
f.write( "22  " )
f.write( str(ee) + "\n" )
f.write( MOL.save_string_xyz() )
f.close()
--------------------------------------------------------------------------

    Molecular point group: c1
  Charge       = 0
  Multiplicity = 1
  Basis Set: CC-PVTZ
  Basis Set:
  @DF-RHF Final Energy:  -344.34981191777030
    Total Energy =                       -344.3498119177703529
    Molecular point group: c1
  Basis Set: CC-PVTZ
  Basis Set:
  Basis Set: CC-PVTZ
  Basis Set:
  @DF-RHF Final Energy:  -344.35048668862680
    Total Energy =                       -344.3504866886268019
  Basis Set: CC-PVTZ
  Basis Set:
  Basis Set: CC-PVTZ
  Basis Set:
  @DF-RHF Final Energy:  -344.35056564880506
    Total Energy =                       -344.3505656488054001
  Basis Set: CC-PVTZ
  Basis Set:
  Charge       = 0
  Multiplicity = 1
  Basis Set: CC-PVTZ
  Basis Set:

    Orbital Energies (a.u.)
    -----------------------

    Doubly Occupied:

       1A    -15.537682     2A    -15.537232     3A    -11.237609
       4A    -11.237569     5A    -11.236954     6A    -11.236921
       7A    -11.234311     8A    -11.234256     9A     -1.257505
      10A     -1.206515    11A     -1.026075    12A     -0.993081
      13A     -0.912288    14A     -0.868354    15A     -0.836287
      16A     -0.755220    17A     -0.667005    18A     -0.638528
      19A     -0.632318    20A     -0.627440    21A     -0.623439
      22A     -0.582570    23A     -0.549621    24A     -0.547117
      25A     -0.542709    26A     -0.517957    27A     -0.496515
      28A     -0.491122    29A     -0.466715    30A     -0.457504
      31A     -0.352627    32A     -0.347173

  @DF-RHF Final Energy:  -344.35056659577833

   => Energetics <=

    Nuclear Repulsion Energy =            421.9944788781800753
    One-Electron Energy =               -1302.9136499698188345
    Two-Electron Energy =                 536.5686044958605407
    DFT Exchange-Correlation Energy =       0.0000000000000000
    Empirical Dispersion Energy =           0.0000000000000000
    PCM Polarization Energy =               0.0000000000000000
    EFP Energy =                            0.0000000000000000
    Total Energy =                       -344.3505665957782185
    Molecular point group: c1
  Basis Set: CC-PVTZ
  Basis Set:

  -Total Gradient:
     Atom            X                  Y                   Z
    ------   -----------------  -----------------  -----------------
       1        0.000046400440    -0.000009939245     0.000009876548
       2       -0.000042925451     0.001404733392    -0.000033113417
       3        0.000011933031     0.001029264055     0.000223537046
       4        0.000053248614    -0.001417316394     0.000005157426
       5        0.000025572920     0.000005829529     0.000009755557
       6       -0.000033161132    -0.001039555468    -0.000068307536
       7       -0.000022323768     0.000056574396    -0.000019308280
       8        0.000002566416    -0.000003257064    -0.000024582540
       9       -0.000011436888    -0.000010359089    -0.000010550473
      10       -0.000022960120     0.000006584131    -0.000103905917
      11       -0.000000929930     0.000001277757    -0.000008622275
      12        0.000011491912    -0.000017761543    -0.000001322749
      13       -0.000029299547    -0.000015943454     0.000015810551
      14       -0.000033265216     0.000003614989    -0.000013081673
      15        0.000013743545    -0.000014940251     0.000001657603
      16        0.000018078246     0.000014399447     0.000008437106
      17       -0.000001666284     0.000000491149     0.000003481955
      18       -0.000000528391    -0.000000861449     0.000002983605
      19        0.000010761551     0.000008633871    -0.000001627719
      20        0.000001363094     0.000000064421     0.000000474363
      21        0.000004836755    -0.000000468757     0.000002732694
      22       -0.000001499801    -0.000001064422     0.000000518122

  **** Optimization is complete! (in 4 steps) ****
    Final optimized geometry and variables:
    Molecular point group: c1

    Geometry (in Angstrom), charge = 0, multiplicity = 1:

    H           -3.086797667439    -1.345522026535    -0.461687450831
    C           -2.635617645919    -0.444290873248    -0.857646269292
    N           -1.222306420742    -0.441888599370    -0.575323682238
    H           -2.799696119822    -0.440647400186    -1.928337366512
    H           -3.159313339289     0.412583703188    -0.425096016632
    C           -0.930866741167    -0.678100348947     0.821578010363
    C           -0.566754894976     0.756564994433    -1.049608520011
    H           -1.346085134312     0.110101625848     1.456897021550
    H           -1.386644229621    -1.614148152706     1.121425417463
    C            0.567371513950    -0.756407289936     1.048989021594
    H           -0.760554558068     0.865995221733    -2.110316283849
    H           -0.956671305528     1.648212721906    -0.549689258257
    C            0.930763911682     0.676666976666    -0.819207168808
    H            0.761992543979    -0.870327989413     2.108873384195
    H            0.957717908711    -1.645281847003     0.544362447839
    N            1.220837612268     0.446023768260     0.579357522151
    H            1.389471993016     1.610111484760    -1.123380438226
    H            1.346366960823    -0.115835328837    -1.448671967362
    C            2.636155930842     0.443493316272     0.852785707606
    H            2.806990243866     0.330647382217     1.916159007972
    H            3.074286223418     1.383922218930     0.542436378305
    H            3.166817749877    -0.362581566833     0.337998472258

  Mulliken Charges: (a.u.)
   Center  Symbol    Alpha    Beta     Spin     Total
       1     H     0.45282  0.45282  0.00000  0.09436
       2     C     3.09837  3.09837  0.00000 -0.19673
       3     N     3.61308  3.61308  0.00000 -0.22616
       4     H     0.45147  0.45147  0.00000  0.09707
       5     H     0.46961  0.46961  0.00000  0.06078
       6     C     3.03472  3.03472  0.00000 -0.06945
       7     C     3.03554  3.03554  0.00000 -0.07108
       8     H     0.46869  0.46869  0.00000  0.06262
       9     H     0.45374  0.45374  0.00000  0.09252
      10     C     3.03563  3.03563  0.00000 -0.07126
      11     H     0.45393  0.45393  0.00000  0.09215
      12     H     0.46775  0.46775  0.00000  0.06450
      13     C     3.03540  3.03540  0.00000 -0.07079
      14     H     0.45384  0.45384  0.00000  0.09232
      15     H     0.46812  0.46812  0.00000  0.06376
      16     N     3.61311  3.61311  0.00000 -0.22621
      17     H     0.45380  0.45380  0.00000  0.09241
      18     H     0.46806  0.46806  0.00000  0.06387
      19     C     3.09839  3.09839  0.00000 -0.19679
      20     H     0.45193  0.45193  0.00000  0.09613
      21     H     0.45194  0.45194  0.00000  0.09613
      22     H     0.47007  0.47007  0.00000  0.05985

   Total alpha = 32.00000, Total beta = 32.00000, Total charge = -0.00000
