  ==> Input File <==

--------------------------------------------------------------------------
set {
	reference rhf
	basis cc-pvtz
}

set_num_threads( 4 )
memory 2 gb

molecule MOL {
0 1

H	 -0.185851	 -0.826727	 -0.871859
N	 -0.625934	 -0.663929	 -0.000707
C	 -1.978635	 -0.158664	 0.001017
C	 0.074470	 -0.929684	 1.124189
H	 -2.519057	 -0.493535	 -0.876362
H	 -1.938890	 0.917202	 -0.004137
H	 -2.514266	 -0.485137	 0.884506
C	 1.472800	 -1.455853	 0.886202
O	 -0.366448	 -0.771891	 2.224083
H	 2.058767	 -0.734015	 0.329253
H	 1.942944	 -1.642322	 1.837654
H	 1.439441	 -2.375324	 0.313420

	symmetry c1
}
set optking {
	frozen_dihedral = ("
		4 2 3 5
	")
}

ee = optimize('scf')
oeprop('DIPOLE', 'QUADRUPOLE', 'MULLIKEN_CHARGES')
f=open( 'psi4out.xyz', 'w' )
f.write( "12  " )
f.write( str(ee) + "\n" )
f.write( MOL.save_string_xyz() )
f.close()
--------------------------------------------------------------------------

    Molecular point group: c1
  Charge       = 0
  Multiplicity = 1
  Basis Set: CC-PVTZ
  Basis Set:
  @DF-RHF Final Energy:  -247.10032850400188
    Total Energy =                       -247.1003285040019364
    Molecular point group: c1
  Basis Set: CC-PVTZ
  Basis Set:
  Basis Set: CC-PVTZ
  Basis Set:
  @DF-RHF Final Energy:  -247.10094595157389
    Total Energy =                       -247.1009459515738627
  Basis Set: CC-PVTZ
  Basis Set:
  Basis Set: CC-PVTZ
  Basis Set:
  @DF-RHF Final Energy:  -247.10096623935078
    Total Energy =                       -247.1009662393507824
  Basis Set: CC-PVTZ
  Basis Set:
  Basis Set: CC-PVTZ
  Basis Set:
  @DF-RHF Final Energy:  -247.10106926985529
    Total Energy =                       -247.1010692698553157
  Basis Set: CC-PVTZ
  Basis Set:
  @DF-RHF Final Energy:  -247.10112848678244
    Total Energy =                       -247.1011284867823292
  @DF-RHF Final Energy:  -247.10113944871267
    Total Energy =                       -247.1011394487127291
  @DF-RHF Final Energy:  -247.10115279920956
    Total Energy =                       -247.1011527992096717
  @DF-RHF Final Energy:  -247.10115921693711
    Total Energy =                       -247.1011592169370488
  @DF-RHF Final Energy:  -247.10116069566556
    Total Energy =                       -247.1011606956655555
  @DF-RHF Final Energy:  -247.10116295644028
    Total Energy =                       -247.1011629564403052
  @DF-RHF Final Energy:  -247.10116862598858
    Total Energy =                       -247.1011686259886346
  @DF-RHF Final Energy:  -247.10117508478680
    Total Energy =                       -247.1011750847868598
  @DF-RHF Final Energy:  -247.10119965151128
    Total Energy =                       -247.1011996515111377
  @DF-RHF Final Energy:  -247.10127903896122
    Total Energy =                       -247.1012790389610814
  @DF-RHF Final Energy:  -247.10122905116253
    Total Energy =                       -247.1012290511626475
  Basis Set: CC-PVTZ
  Basis Set:
  @DF-RHF Final Energy:  -247.10133018636378
    Total Energy =                       -247.1013301863635547
  Basis Set: CC-PVTZ
  Basis Set:
  Basis Set: CC-PVTZ
  Basis Set:
  @DF-RHF Final Energy:  -247.10133694650040
    Total Energy =                       -247.1013369465002256
  Basis Set: CC-PVTZ
  Basis Set:
  Basis Set: CC-PVTZ
  Basis Set:
  @DF-RHF Final Energy:  -247.10133809876103
    Total Energy =                       -247.1013380987611185
  Basis Set: CC-PVTZ
  Basis Set:
  Charge       = 0
  Multiplicity = 1
  Basis Set: CC-PVTZ
  Basis Set:

    Orbital Energies (a.u.)
    -----------------------

    Doubly Occupied:

       1A    -20.504181     2A    -15.577084     3A    -11.336193
       4A    -11.253498     5A    -11.228417     6A     -1.387422
       7A     -1.231919     8A     -1.016069     9A     -0.934253
      10A     -0.789827    11A     -0.690925    12A     -0.652246
      13A     -0.635493    14A     -0.586541    15A     -0.583095
      16A     -0.554799    17A     -0.547434    18A     -0.506995
      19A     -0.416803    20A     -0.390554

  @DF-RHF Final Energy:  -247.10133836646574

   => Energetics <=

    Nuclear Repulsion Energy =            181.7670078428720046
    One-Electron Energy =                -696.0891994450760194
    Two-Electron Energy =                 267.2208532357383319
    DFT Exchange-Correlation Energy =       0.0000000000000000
    Empirical Dispersion Energy =           0.0000000000000000
    PCM Polarization Energy =               0.0000000000000000
    EFP Energy =                            0.0000000000000000
    Total Energy =                       -247.1013383664657113
    Molecular point group: c1
  Basis Set: CC-PVTZ
  Basis Set:

  -Total Gradient:
     Atom            X                  Y                   Z
    ------   -----------------  -----------------  -----------------
       1       -0.000000722347    -0.000003158085    -0.000004528767
       2        0.000140354839     0.000298217004     0.000006269462
       3        0.000035000445     0.000128612439    -0.000216888013
       4       -0.000118470662    -0.000236689001    -0.000061230860
       5       -0.000083282372    -0.000186992449     0.000190217201
       6        0.000007999717    -0.000004979255     0.000001526299
       7        0.000005588852    -0.000004877854    -0.000002002796
       8       -0.000003815462     0.000015311029    -0.000011560888
       9        0.000007785177     0.000005151420     0.000059546093
      10        0.000000797950    -0.000006407876     0.000005456778
      11        0.000006930474    -0.000006470860     0.000021398478
      12        0.000001833389     0.000002283487     0.000011797015

  **** Optimization is complete! (in 19 steps) ****
    Final optimized geometry and variables:
    Molecular point group: c1

    Geometry (in Angstrom), charge = 0, multiplicity = 1:

    H           -0.019127857083    -0.321440822383    -1.696968821505
    N           -0.402754030541    -0.046782333355    -0.828110571430
    C           -1.713351584570     0.560365384914    -0.813986830089
    C            0.380504095424    -0.111916162501     0.268525564710
    H           -2.342588990763     0.074344680854    -1.547354979031
    H           -1.672604834260     1.621283503603    -1.034462891472
    H           -2.149830103166     0.432322762388     0.162894813890
    C            1.756480272824    -0.703104860008     0.059387610364
    O            0.026874273669     0.276053232235     1.343385313729
    H            2.481687705609     0.100670377788     0.090944213990
    H            1.969391419940    -1.375139682043     0.877582724883
    H            1.858441026695    -1.231054766494    -0.879480782049

  Mulliken Charges: (a.u.)
   Center  Symbol    Alpha    Beta     Spin     Total
       1     H     0.41043  0.41043  0.00000  0.17914
       2     N     3.61496  3.61496  0.00000 -0.22993
       3     C     3.08065  3.08065  0.00000 -0.16129
       4     C     2.84213  2.84213  0.00000  0.31574
       5     H     0.45526  0.45526  0.00000  0.08949
       6     H     0.45719  0.45719  0.00000  0.08562
       7     H     0.43502  0.43502  0.00000  0.12996
       8     C     3.14399  3.14399  0.00000 -0.28798
       9     O     4.22056  4.22056  0.00000 -0.44112
      10     H     0.44331  0.44331  0.00000  0.11338
      11     H     0.43788  0.43788  0.00000  0.12423
      12     H     0.45862  0.45862  0.00000  0.08275

   Total alpha = 20.00000, Total beta = 20.00000, Total charge = -0.00000
