  ==> Input File <==

--------------------------------------------------------------------------
set {
	reference rhf
	basis 6-31G*
}

set_num_threads( 4 )
memory 2 gb

molecule MOL {
0 1

H	 -3.650283	 0.221984	 0.000000
C	 -2.577024	 0.154109	 0.000000
C	 -1.960329	 -1.089307	 0.000000
C	 -1.811733	 1.307557	 0.000000
H	 -2.554473	 -1.985285	 0.000000
C	 -0.581547	 -1.175855	 0.000000
H	 -2.287118	 2.271701	 0.000000
C	 -0.428719	 1.219221	 0.000000
H	 -0.090826	 -2.129898	 0.000000
C	 0.198341	 -0.021559	 0.000000
H	 0.149947	 2.124040	 0.000000
C	 1.691355	 -0.173192	 0.000000
C	 2.510016	 0.598642	 -1.013710
O	 2.228945	 -0.893057	 0.788775
H	 2.225428	 0.331050	 -2.026224
H	 3.553837	 0.364468	 -0.861754
H	 2.361161	 1.667507	 -0.899034

	symmetry c1
}
set optking {
	frozen_dihedral = ("
		13 12 10 8
	")
}

ee = optimize('scf')
oeprop('DIPOLE', 'QUADRUPOLE', 'MULLIKEN_CHARGES')
f=open( 'psi4out.xyz', 'w' )
f.write( "17  " )
f.write( str(ee) + "\n" )
f.write( MOL.save_string_xyz() )
f.close()
--------------------------------------------------------------------------

    Molecular point group: c1
  Charge       = 0
  Multiplicity = 1
  Basis Set: 6-31G*
  Basis Set:
  @DF-RHF Final Energy:  -382.47013152767352
    Total Energy =                       -382.4701315276732885
    Molecular point group: c1
  Basis Set: 6-31G*
  Basis Set:
  Basis Set: 6-31G*
  Basis Set:
  @DF-RHF Final Energy:  -382.46955757365731
    Total Energy =                       -382.4695575736570845
  Basis Set: 6-31G*
  Basis Set:
  Basis Set: 6-31G*
  Basis Set:
  @DF-RHF Final Energy:  -382.47093258339868
    Total Energy =                       -382.4709325833991898
  Basis Set: 6-31G*
  Basis Set:
  Basis Set: 6-31G*
  Basis Set:
  @DF-RHF Final Energy:  -382.47107327454080
    Total Energy =                       -382.4710732745406858
  Basis Set: 6-31G*
  Basis Set:
  Basis Set: 6-31G*
  Basis Set:
  @DF-RHF Final Energy:  -382.47107917067149
    Total Energy =                       -382.4710791706713735
  Basis Set: 6-31G*
  Basis Set:
  Basis Set: 6-31G*
  Basis Set:
  @DF-RHF Final Energy:  -382.47108458551372
    Total Energy =                       -382.4710845855140633
  Basis Set: 6-31G*
  Basis Set:
  Charge       = 0
  Multiplicity = 1
  Basis Set: 6-31G*
  Basis Set:

    Orbital Energies (a.u.)
    -----------------------

    Doubly Occupied:

       1A    -20.553403     2A    -11.332590     3A    -11.247331
       4A    -11.244900     5A    -11.243211     6A    -11.241517
       7A    -11.240662     8A    -11.238847     9A    -11.230626
      10A     -1.399101    11A     -1.165617    12A     -1.049751
      13A     -1.026068    14A     -0.997574    15A     -0.860056
      16A     -0.836306    17A     -0.760622    18A     -0.705358
      19A     -0.659095    20A     -0.645343    21A     -0.623765
      22A     -0.616883    23A     -0.599660    24A     -0.589501
      25A     -0.558180    26A     -0.525896    27A     -0.513479
      28A     -0.502055    29A     -0.490677    30A     -0.410525
      31A     -0.344264    32A     -0.341502

  @DF-RHF Final Energy:  -382.47108555403031

   => Energetics <=

    Nuclear Repulsion Energy =            403.1145890731478403
    One-Electron Energy =               -1317.5826151120149916
    Two-Electron Energy =                 531.9969404848366139
    DFT Exchange-Correlation Energy =       0.0000000000000000
    Empirical Dispersion Energy =           0.0000000000000000
    PCM Polarization Energy =               0.0000000000000000
    EFP Energy =                            0.0000000000000000
    Total Energy =                       -382.4710855540305374
    Molecular point group: c1
  Basis Set: 6-31G*
  Basis Set:

  -Total Gradient:
     Atom            X                  Y                   Z
    ------   -----------------  -----------------  -----------------
       1       -0.000002406514    -0.000001150631     0.000006265527
       2       -0.000008226904    -0.000055599905    -0.000043375319
       3       -0.000047706937     0.000035920012    -0.000024710044
       4        0.000047655247     0.000005448519     0.000074761174
       5        0.000000164316     0.000001788109     0.000004909121
       6        0.000052079857     0.000042006701     0.000008389342
       7       -0.000002517546    -0.000003000674    -0.000006398216
       8       -0.000151830682    -0.000080965125     0.003999890399
       9        0.000004143802    -0.000018354170     0.000001286744
      10        0.000051431256    -0.001149349111    -0.007153494812
      11        0.000013453917     0.000010512080     0.000018313116
      12        0.000295731675     0.003896049896     0.005502477790
      13       -0.000248580401    -0.002729350327    -0.002403957940
      14       -0.000023862702     0.000021572263    -0.000001767131
      15       -0.000000889118     0.000009678084     0.000018712275
      16        0.000022222080     0.000005558802    -0.000003333777
      17       -0.000000861353     0.000009235478     0.000002031748

  **** Optimization is complete! (in 7 steps) ****
    Final optimized geometry and variables:
    Molecular point group: c1

    Geometry (in Angstrom), charge = 0, multiplicity = 1:

    H           -3.644286541813     0.254553504898     0.061048730457
    C           -2.571578358418     0.181186180187     0.046291482109
    C           -1.960989357289    -1.064240397080     0.049686536121
    C           -1.799135993155     1.330235502015     0.032877661363
    H           -2.559005307233    -1.957485021529     0.068947374388
    C           -0.581232451705    -1.158417090350     0.044155501056
    H           -2.268999030313     2.297122724807     0.047409142883
    C           -0.416947291101     1.235323133959     0.001623681136
    H           -0.100640979780    -2.118453600685     0.077256389612
    C            0.200397674971    -0.008999194812    -0.004606913764
    H            0.172116930384     2.134845684089    -0.008069884370
    C            1.695677068928    -0.155651613005     0.038207124895
    C            2.516310035675     0.650453442629    -0.944757221297
    O            2.205329640840    -0.955499171371     0.763309248724
    H            2.246732765265     0.356907668566    -1.954919065996
    H            3.566919880212     0.457776240807    -0.778031154295
    H            2.325137388381     1.714611252092    -0.858270187291

  Mulliken Charges: (a.u.)
   Center  Symbol    Alpha    Beta     Spin     Total
       1     H     0.39601  0.39601  0.00000  0.20798
       2     C     3.09522  3.09522  0.00000 -0.19044
       3     C     3.10206  3.10206  0.00000 -0.20413
       4     C     3.10162  3.10162  0.00000 -0.20325
       5     H     0.39551  0.39551  0.00000  0.20899
       6     C     3.09409  3.09409  0.00000 -0.18817
       7     H     0.39642  0.39642  0.00000  0.20717
       8     C     3.10352  3.10352  0.00000 -0.20704
       9     H     0.38397  0.38397  0.00000  0.23206
      10     C     3.03933  3.03933  0.00000 -0.07865
      11     H     0.39542  0.39542  0.00000  0.20915
      12     C     2.74335  2.74335  0.00000  0.51330
      13     C     3.28744  3.28744  0.00000 -0.57488
      14     O     4.25776  4.25776  0.00000 -0.51553
      15     H     0.40244  0.40244  0.00000  0.19512
      16     H     0.39645  0.39645  0.00000  0.20709
      17     H     0.40940  0.40940  0.00000  0.18121

   Total alpha = 32.00000, Total beta = 32.00000, Total charge = -0.00000
