                              Psi4 1.0.54 Driver

  ==> Input File <==

--------------------------------------------------------------------------
set {
	reference rhf
	basis cc-pvtz
}

set_num_threads( 4 )
memory 2 gb

molecule MOL {
0 1

H	 1.164783	 0.506984	 -1.997290
C	 1.013290	 1.216825	 -1.173380
C	 0.692262	 0.592428	 0.156232
O	 1.103137	 2.379078	 -1.370177
C	 -0.554654	 -0.292621	 0.086567
H	 0.574828	 1.382131	 0.886585
H	 1.548554	 -0.012702	 0.446853
C	 -1.846385	 0.513195	 -0.016346
H	 -0.473986	 -0.956115	 -0.769708
H	 -0.597929	 -0.929215	 0.966651
C	 -3.089953	 -0.365049	 -0.098564
H	 -1.798267	 1.154820	 -0.891143
H	 -1.925398	 1.173265	 0.842889
H	 -3.055079	 -1.012299	 -0.968245
H	 -3.988403	 0.236438	 -0.170014
H	 -3.183055	 -0.995885	 0.779079

	symmetry c1
}
set optking {
	frozen_dihedral = ("
		6 3 5 9
	")
}

ee,wfn = optimize('scf', return_wfn=True)
oeprop( wfn, 'DIPOLE', 'QUADRUPOLE', 'MULLIKEN_CHARGES')
f=open( 'psi4out.xyz', 'w' )
f.write( "16  " )
f.write( str(ee) + "\n" )
f.write( MOL.save_string_xyz() )
f.close()
--------------------------------------------------------------------------

    Molecular point group: c1
  Charge       = 0
  Multiplicity = 1
  Basis Set: CC-PVTZ
  Basis Set:
  @DF-RHF Final Energy:  -270.11840638186379
    Total Energy =                       -270.1184063818636787
    Molecular point group: c1
  Basis Set: CC-PVTZ
  Basis Set:
  Basis Set: CC-PVTZ
  Basis Set:
  @DF-RHF Final Energy:  -270.11840458902373
    Total Energy =                       -270.1184045890238394
  Basis Set: CC-PVTZ
  Basis Set:
  Basis Set: CC-PVTZ
  Basis Set:
  @DF-RHF Final Energy:  -270.11734670764417
    Total Energy =                       -270.1173467076443444
  Basis Set: CC-PVTZ
  Basis Set:
  Basis Set: CC-PVTZ
  Basis Set:
  @DF-RHF Final Energy:  -270.11849172200550
    Total Energy =                       -270.1184917220055013
  Basis Set: CC-PVTZ
  Basis Set:
  Basis Set: CC-PVTZ
  Basis Set:
  @DF-RHF Final Energy:  -270.11849841597035
    Total Energy =                       -270.1184984159702935
  Basis Set: CC-PVTZ
  Basis Set:
  Basis Set: CC-PVTZ
  Basis Set:
  @DF-RHF Final Energy:  -270.11850070133909
    Total Energy =                       -270.1185007013392010
  Basis Set: CC-PVTZ
  Basis Set:
  Charge       = 0
  Multiplicity = 1
  Basis Set: CC-PVTZ
  Basis Set:

    Orbital Energies (a.u.)
    -----------------------

    Doubly Occupied:

       1A    -20.552254     2A    -11.321562     3A    -11.234507
       4A    -11.233801     5A    -11.224524     6A    -11.215192
       7A     -1.407267     8A     -1.097149     9A     -1.017988
      10A     -0.905250    11A     -0.819070    12A     -0.790363
      13A     -0.669450    14A     -0.659188    15A     -0.615335
      16A     -0.613431    17A     -0.590825    18A     -0.544777
      19A     -0.527722    20A     -0.524773    21A     -0.488321
      22A     -0.481095    23A     -0.468735    24A     -0.412714

  @DF-RHF Final Energy:  -270.11850157679737

   => Energetics <=

    Nuclear Repulsion Energy =            233.6217171510323283
    One-Electron Energy =                -828.6498526094479757
    Two-Electron Energy =                 324.9096338816181060
    DFT Exchange-Correlation Energy =       0.0000000000000000
    Empirical Dispersion Energy =           0.0000000000000000
    PCM Polarization Energy =               0.0000000000000000
    EFP Energy =                            0.0000000000000000
    Total Energy =                       -270.1185015767974846
    Molecular point group: c1
  Basis Set: CC-PVTZ
  Basis Set:

  -Total Gradient:
     Atom            X                  Y                   Z
    ------   -----------------  -----------------  -----------------
       1        0.000023320278    -0.000001871412     0.000011912928
       2       -0.000019873241     0.000050266870    -0.000078046879
       3        0.000558383703    -0.000776001878     0.001076132175
       4       -0.000022728785    -0.000059420827     0.000042467688
       5        0.000615659521    -0.000991500446     0.000725663640
       6       -0.000549118136     0.000834966229    -0.001016943122
       7       -0.000023202515    -0.000038452431     0.000008865390
       8        0.000035354255     0.000023368736     0.000024042078
       9       -0.000621751086     0.000979034443    -0.000803444410
      10       -0.000015005454     0.000000197112     0.000009779066
      11        0.000004424182    -0.000022995781     0.000015741808
      12        0.000020135663    -0.000018181260     0.000002862326
      13       -0.000020022688    -0.000007978196    -0.000013707294
      14        0.000007328514     0.000020340866     0.000019886072
      15        0.000002986008    -0.000003771429    -0.000000166265
      16        0.000004109783     0.000011999400    -0.000025045201

  **** Optimization is complete! (in 7 steps) ****
    Final optimized geometry and variables:
    Molecular point group: c1

    Geometry (in Angstrom), charge = 0, multiplicity = 1:

    H            1.567768051183    -0.164926298285    -1.600150187731
    C            1.471143036338     0.541854506398    -0.764794511391
    C            1.139776785249    -0.086185904059     0.562552012070
    O            1.631497996474     1.698657698119    -0.947004484594
    C           -0.112251025607    -0.967138425403     0.494272367295
    H            1.029472410922     0.706445097951     1.291058279731
    H            1.996287746415    -0.693790512312     0.844200072860
    C           -1.410298856911    -0.168299613040     0.392454647565
    H           -0.036917331238    -1.634012630664    -0.361447445567
    H           -0.146125766799    -1.599552638442     1.374433935485
    C           -2.646118340519    -1.057340264505     0.309844298045
    H           -1.374136618383     0.480480134277    -0.477864953280
    H           -1.492140547381     0.487568578814     1.253984587823
    H           -2.610044640607    -1.698972095357    -0.564179492007
    H           -3.550381051459    -0.463893475180     0.246542580667
    H           -2.728996057263    -1.694808905533     1.183768178144

  Mulliken Charges: (a.u.)
   Center  Symbol    Alpha    Beta     Spin     Total
       1     H     0.46524  0.46524  0.00000  0.06953
       2     C     2.90478  2.90478  0.00000  0.19044
       3     C     3.08783  3.08783  0.00000 -0.17567
       4     O     4.16528  4.16528  0.00000 -0.33056
       5     C     3.11074  3.11074  0.00000 -0.22147
       6     H     0.44368  0.44368  0.00000  0.11264
       7     H     0.44060  0.44060  0.00000  0.11879
       8     C     3.08290  3.08290  0.00000 -0.16580
       9     H     0.45178  0.45178  0.00000  0.09644
      10     H     0.44343  0.44343  0.00000  0.11313
      11     C     3.14935  3.14935  0.00000 -0.29871
      12     H     0.44883  0.44883  0.00000  0.10234
      13     H     0.45061  0.45061  0.00000  0.09878
      14     H     0.45470  0.45470  0.00000  0.09061
      15     H     0.44581  0.44581  0.00000  0.10838
      16     H     0.45444  0.45444  0.00000  0.09112

   Total alpha = 24.00000, Total beta = 24.00000, Total charge =  0.00000

*** Psi4 exiting successfully. Buy a developer a beer!
