  ==> Input File <==

--------------------------------------------------------------------------
set {
	reference rhf
	basis 6-31G*
}

set_num_threads( 1 )
memory 2 gb

molecule MOL {
0 1

O	 -1.599401	 0.122117	 2.494262
C	 -0.691869	 0.822409	 2.161978
C	 0.577500	 0.227150	 1.578303
C	 -0.769456	 2.328731	 2.273103
C	 0.379448	 -0.143569	 0.099626
H	 0.813550	 -0.665858	 2.146740
H	 1.406810	 0.921479	 1.679189
C	 1.631333	 -0.777471	 -0.511575
H	 -0.464008	 -0.821253	 0.030991
H	 0.114647	 0.746551	 -0.468980
C	 2.915987	 -0.544314	 0.291766
H	 1.766672	 -0.399098	 -1.523130
H	 1.471257	 -1.849544	 -0.605828
C	 3.373361	 0.914346	 0.347591
H	 3.708709	 -1.142521	 -0.150311
H	 2.780642	 -0.921148	 1.303579
H	 3.506512	 1.320010	 -0.651625
H	 4.322697	 0.999599	 0.867103
H	 2.660624	 1.545032	 0.868198
H	 -0.049198	 2.678353	 3.008125
H	 -1.763818	 2.627007	 2.574865
H	 -0.514576	 2.797645	 1.327080

	symmetry c1
}
set optking {
	frozen_dihedral = ("
		6 3 2 1,
		6 3 5 8,
		12 8 11 15
	")
}

ee = energy('scf')
oeprop('DIPOLE', 'QUADRUPOLE', 'MULLIKEN_CHARGES')
f=open( 'psi4out.xyz', 'w' )
f.write( "22  " )
f.write( str(ee) + "\n" )
f.write( MOL.save_string_xyz() )
f.close()
--------------------------------------------------------------------------

    Molecular point group: c1

    Geometry (in Angstrom), charge = 0, multiplicity = 1:

       Center              X                  Y                   Z               Mass
    ------------   -----------------  -----------------  -----------------  -----------------
           O         -2.329683659975    -0.261550789873     1.396387040366    15.994914619560
           C         -1.422151659975     0.438741210127     1.064103040366    12.000000000000
           C         -0.152782659975    -0.156517789873     0.480428040366    12.000000000000
           C         -1.499738659975     1.945063210127     1.175228040366    12.000000000000
           C         -0.350834659975    -0.527236789873    -0.998248959634    12.000000000000
           H          0.083267340025    -1.049525789873     1.048865040366     1.007825032070
           H          0.676527340025     0.537811210127     0.581314040366     1.007825032070
           C          0.901050340025    -1.161138789873    -1.609449959634    12.000000000000
           H         -1.194290659975    -1.204920789873    -1.066883959634     1.007825032070
           H         -0.615635659975     0.362883210127    -1.566854959634     1.007825032070
           C          2.185704340025    -0.927981789873    -0.806108959634    12.000000000000
           H          1.036389340025    -0.782765789873    -2.621004959634     1.007825032070
           H          0.740974340025    -2.233211789873    -1.703702959634     1.007825032070
           C          2.643078340025     0.530678210127    -0.750283959634    12.000000000000
           H          2.978426340025    -1.526188789873    -1.248185959634     1.007825032070
           H          2.050359340025    -1.304815789873     0.205704040366     1.007825032070
           H          2.776229340025     0.936342210127    -1.749499959634     1.007825032070
           H          3.592414340025     0.615931210127    -0.230771959634     1.007825032070
           H          1.930341340025     1.161364210127    -0.229676959634     1.007825032070
           H         -0.779480659975     2.294685210127     1.910250040366     1.007825032070
           H         -2.494100659975     2.243339210127     1.476990040366     1.007825032070
           H         -1.244858659975     2.413977210127     0.229205040366     1.007825032070

  Charge       = 0
  Multiplicity = 1
  Basis Set: 6-31G*
  Basis Set:

    Orbital Energies (a.u.)
    -----------------------

    Doubly Occupied:

       1A    -20.545379     2A    -11.322350     3A    -11.228353
       4A    -11.227573     5A    -11.224650     6A    -11.222722
       7A    -11.221523     8A    -11.216265     9A     -1.391301
      10A     -1.102427    11A     -1.038027    12A     -0.998436
      13A     -0.947321    14A     -0.862653    15A     -0.779029
      16A     -0.736611    17A     -0.669238    18A     -0.655668
      19A     -0.620960    20A     -0.608766    21A     -0.604114
      22A     -0.580250    23A     -0.558966    24A     -0.552322
      25A     -0.541965    26A     -0.521521    27A     -0.505468
      28A     -0.489972    29A     -0.468483    30A     -0.454872
      31A     -0.453338    32A     -0.395290

  @DF-RHF Final Energy:  -348.07942812640960

   => Energetics <=

    Nuclear Repulsion Energy =            386.3701282692413201
    One-Electron Energy =               -1237.4072081363776761
    Two-Electron Energy =                 502.9576517407254528
    DFT Exchange-Correlation Energy =       0.0000000000000000
    Empirical Dispersion Energy =           0.0000000000000000
    PCM Polarization Energy =               0.0000000000000000
    EFP Energy =                            0.0000000000000000
    Total Energy =                       -348.0794281264108463

  Mulliken Charges: (a.u.)
   Center  Symbol    Alpha    Beta     Spin     Total
       1     O     4.26358  4.26358  0.00000 -0.52717
       2     C     2.73186  2.73186  0.00000  0.53628
       3     C     3.21050  3.21050  0.00000 -0.42100
       4     C     3.29065  3.29065  0.00000 -0.58130
       5     C     3.16487  3.16487  0.00000 -0.32974
       6     H     0.40019  0.40019  0.00000  0.19962
       7     H     0.41562  0.41562  0.00000  0.16875
       8     C     3.15478  3.15478  0.00000 -0.30956
       9     H     0.40185  0.40185  0.00000  0.19630
      10     H     0.41935  0.41935  0.00000  0.16130
      11     C     3.16366  3.16366  0.00000 -0.32732
      12     H     0.41906  0.41906  0.00000  0.16188
      13     H     0.41587  0.41587  0.00000  0.16826
      14     C     3.24188  3.24188  0.00000 -0.48377
      15     H     0.41544  0.41544  0.00000  0.16912
      16     H     0.41860  0.41860  0.00000  0.16279
      17     H     0.41975  0.41975  0.00000  0.16049
      18     H     0.41674  0.41674  0.00000  0.16652
      19     H     0.42139  0.42139  0.00000  0.15721
      20     H     0.40744  0.40744  0.00000  0.18512
      21     H     0.39690  0.39690  0.00000  0.20619
      22     H     0.41000  0.41000  0.00000  0.18000

   Total alpha = 32.00000, Total beta = 32.00000, Total charge =  0.00000
