  ==> Input File <==

--------------------------------------------------------------------------
set {
	reference rhf
	basis 6-31G*
}

set_num_threads( 4 )
memory 2 gb

molecule MOL {
0 1

H	 3.041723	 -1.079364	 -1.138636
O	 2.128415	 -1.322809	 -1.195296
C	 1.343229	 -0.400008	 -0.598377
C	 1.860535	 0.739242	 0.004787
C	 -0.022930	 -0.621432	 -0.601732
H	 2.924016	 0.909660	 0.006287
C	 1.012244	 1.655463	 0.603630
H	 -0.423812	 -1.500999	 -1.067276
C	 -0.865228	 0.300799	 0.000000
H	 1.424235	 2.533369	 1.067227
C	 -0.354377	 1.442206	 0.604975
C	 -2.333960	 0.069074	 0.000000
H	 -1.015119	 2.152561	 1.069539
O	 -2.847347	 -1.003763	 0.000000
H	 -2.943845	 0.977528	 0.000000

	symmetry c1
}
set optking {
	frozen_dihedral = ("
		11 9 12 14
	")
}

ee = optimize('scf')
oeprop('DIPOLE', 'QUADRUPOLE', 'MULLIKEN_CHARGES')
f=open( 'psi4out.xyz', 'w' )
f.write( "15  " )
f.write( str(ee) + "\n" )
f.write( MOL.save_string_xyz() )
f.close()
--------------------------------------------------------------------------

    Molecular point group: c1
  Charge       = 0
  Multiplicity = 1
  Basis Set: 6-31G*
  Basis Set:
  @DF-RHF Final Energy:  -418.28317605971131
    Total Energy =                       -418.2831760597109678
    Molecular point group: c1
  Basis Set: 6-31G*
  Basis Set:
  Basis Set: 6-31G*
  Basis Set:
  @DF-RHF Final Energy:  -418.28144347084583
    Total Energy =                       -418.2814434708454883
  Basis Set: 6-31G*
  Basis Set:
  Basis Set: 6-31G*
  Basis Set:
  @DF-RHF Final Energy:  -418.28348383274761
    Total Energy =                       -418.2834838327478337
  Basis Set: 6-31G*
  Basis Set:
  Basis Set: 6-31G*
  Basis Set:
  @DF-RHF Final Energy:  -418.28358784455889
    Total Energy =                       -418.2835878445588378
  Basis Set: 6-31G*
  Basis Set:
  Charge       = 0
  Multiplicity = 1
  Basis Set: 6-31G*
  Basis Set:

    Orbital Energies (a.u.)
    -----------------------

    Doubly Occupied:

       1A    -20.601764     2A    -20.566183     3A    -11.333208
       4A    -11.312806     5A    -11.253026     6A    -11.252845
       7A    -11.248356     8A    -11.245217     9A    -11.239505
      10A     -1.421513    11A     -1.406321    12A     -1.169206
      13A     -1.048396    14A     -1.026562    15A     -0.899789
      16A     -0.845110    17A     -0.814086    18A     -0.736201
      19A     -0.701784    20A     -0.684721    21A     -0.641822
      22A     -0.637193    23A     -0.612390    24A     -0.601070
      25A     -0.576488    26A     -0.547303    27A     -0.540220
      28A     -0.513564    29A     -0.487025    30A     -0.423744
      31A     -0.353266    32A     -0.325259

  @DF-RHF Final Energy:  -418.28358877248866

   => Energetics <=

    Nuclear Repulsion Energy =            403.0944086815095488
    One-Electron Energy =               -1368.6241036591309239
    Two-Electron Energy =                 547.2461062051330600
    DFT Exchange-Correlation Energy =       0.0000000000000000
    Empirical Dispersion Energy =           0.0000000000000000
    PCM Polarization Energy =               0.0000000000000000
    EFP Energy =                            0.0000000000000000
    Total Energy =                       -418.2835887724883150
    Molecular point group: c1
  Basis Set: 6-31G*
  Basis Set:

  -Total Gradient:
     Atom            X                  Y                   Z
    ------   -----------------  -----------------  -----------------
       1       -0.000002188463     0.000020497515    -0.000033083671
       2       -0.000001342526    -0.000005129689     0.000024342734
       3       -0.000003098975    -0.000046067620     0.000056804871
       4       -0.000011277184     0.000076836063    -0.000114640629
       5        0.000012327790    -0.000029364294     0.000030762590
       6        0.000000617615    -0.000006251381     0.000014866916
       7        0.000020164862    -0.000070267460     0.000097562206
       8       -0.000007139489     0.000021172139    -0.000018942190
       9       -0.000645626887     0.003079947822    -0.002834541759
      10        0.000000216482     0.000010920660    -0.000017116080
      11        0.000461024988    -0.002162742713     0.003517378873
      12       -0.000029209709    -0.000741805464    -0.005826322566
      13        0.000000538571     0.000003623962    -0.000011781972
      14        0.000197409037    -0.000156324730     0.005129650048
      15        0.000007583894     0.000004955196    -0.000014939369

  **** Optimization is complete! (in 5 steps) ****
    Final optimized geometry and variables:
    Molecular point group: c1

    Geometry (in Angstrom), charge = 0, multiplicity = 1:

    H            3.047969426482    -1.135240319717    -0.954049021030
    O            2.133024873150    -1.367142407856    -1.029898875724
    C            1.348344156025    -0.440966200352    -0.437983730864
    C            1.866214652897     0.691691018847     0.175582112940
    C           -0.019427575952    -0.656882704495    -0.452201914772
    H            2.930741191305     0.854496153219     0.192068448202
    C            1.015669372203     1.609946862718     0.768621849213
    H           -0.415715203952    -1.544888774673    -0.905957872091
    C           -0.864102559727     0.279599275482     0.121681404080
    H            1.427780802219     2.478746221294     1.248924585784
    C           -0.353029576949     1.413713017744     0.740582312127
    C           -2.330450727988     0.024858449788     0.165004640688
    H           -1.014662245149     2.130915407983     1.193343160323
    O           -2.820920825342    -1.058246848619     0.153300134452
    H           -2.955526032050     0.917385070261     0.263233676568

  Mulliken Charges: (a.u.)
   Center  Symbol    Alpha    Beta     Spin     Total
       1     H     0.27055  0.27055  0.00000  0.45890
       2     O     4.37594  4.37594  0.00000 -0.75188
       3     C     2.79470  2.79470  0.00000  0.41060
       4     C     3.13585  3.13585  0.00000 -0.27169
       5     C     3.11409  3.11409  0.00000 -0.22818
       6     H     0.39932  0.39932  0.00000  0.20136
       7     C     3.09349  3.09349  0.00000 -0.18698
       8     H     0.37324  0.37324  0.00000  0.25351
       9     C     3.03907  3.03907  0.00000 -0.07815
      10     H     0.39319  0.39319  0.00000  0.21362
      11     C     3.11642  3.11642  0.00000 -0.23283
      12     C     2.83944  2.83944  0.00000  0.32112
      13     H     0.39384  0.39384  0.00000  0.21233
      14     O     4.23809  4.23809  0.00000 -0.47617
      15     H     0.42277  0.42277  0.00000  0.15446

   Total alpha = 32.00000, Total beta = 32.00000, Total charge = -0.00000
