  ==> Input File <==

--------------------------------------------------------------------------
set {
	reference rhf
	basis 6-31G*
}

set_num_threads( 4 )
memory 2 gb

molecule MOL {
0 1

O	 -2.631166	 1.049682	 1.150504
C	 -2.567594	 -0.007869	 0.609986
C	 -3.711718	 -0.986480	 0.542387
O	 -1.481751	 -0.454642	 0.000584
H	 -4.553035	 -0.505229	 0.058192
H	 -3.443024	 -1.884082	 0.005215
H	 -4.014518	 -1.237968	 1.551816
C	 -0.334255	 0.388708	 0.000906
C	 0.891947	 -0.504646	 0.000751
H	 -0.365390	 1.025305	 -0.873475
H	 -0.365484	 1.024911	 0.875569
C	 2.191998	 0.301789	 0.000897
H	 0.855148	 -1.151283	 -0.871571
H	 0.855132	 -1.151660	 0.872805
C	 3.441114	 -0.581407	 0.000108
H	 2.215074	 0.954890	 -0.869742
H	 2.215465	 0.953923	 0.872248
C	 4.739576	 0.224112	 -0.001102
H	 3.419457	 -1.233487	 -0.870178
H	 3.420834	 -1.233096	 0.870717
H	 4.804918	 0.861552	 -0.878265
H	 5.606527	 -0.429058	 -0.001824
H	 4.806469	 0.861674	 0.875853

	symmetry c1
}
set optking {
	frozen_dihedral = ("
		2 4 8 10
	")
}

ee = optimize('scf')
oeprop('DIPOLE', 'QUADRUPOLE', 'MULLIKEN_CHARGES')
f=open( 'psi4out.xyz', 'w' )
f.write( "23  " )
f.write( str(ee) + "\n" )
f.write( MOL.save_string_xyz() )
f.close()
--------------------------------------------------------------------------

    Molecular point group: c1
  Charge       = 0
  Multiplicity = 1
  Basis Set: 6-31G*
  Basis Set:
  @DF-RHF Final Energy:  -422.97804564416873
    Total Energy =                       -422.9780456441683327
    Molecular point group: c1
  Basis Set: 6-31G*
  Basis Set:
  Basis Set: 6-31G*
  Basis Set:
  @DF-RHF Final Energy:  -422.97815647500425
    Total Energy =                       -422.9781564750038569
  Basis Set: 6-31G*
  Basis Set:
  Basis Set: 6-31G*
  Basis Set:
  @DF-RHF Final Energy:  -422.97820552431875
    Total Energy =                       -422.9782055243182413
  Basis Set: 6-31G*
  Basis Set:
  Basis Set: 6-31G*
  Basis Set:
  @DF-RHF Final Energy:  -422.97836173267382
    Total Energy =                       -422.9783617326743297
  Basis Set: 6-31G*
  Basis Set:
  Basis Set: 6-31G*
  Basis Set:
  @DF-RHF Final Energy:  -422.97836435418839
    Total Energy =                       -422.9783643541881020
  Basis Set: 6-31G*
  Basis Set:
  Charge       = 0
  Multiplicity = 1
  Basis Set: 6-31G*
  Basis Set:

    Orbital Energies (a.u.)
    -----------------------

    Doubly Occupied:

       1A    -20.602663     2A    -20.540173     3A    -11.374912
       4A    -11.280849     5A    -11.232038     6A    -11.224380
       7A    -11.223785     8A    -11.221722     9A    -11.212985
      10A     -1.466491    11A     -1.361097    12A     -1.094147
      13A     -1.042266    14A     -1.003195    15A     -0.931384
      16A     -0.843132    17A     -0.801984    18A     -0.773910
      19A     -0.695463    20A     -0.681681    21A     -0.665567
      22A     -0.647117    23A     -0.606052    24A     -0.588271
      25A     -0.583238    26A     -0.568927    27A     -0.556229
      28A     -0.536937    29A     -0.523735    30A     -0.505459
      31A     -0.490897    32A     -0.478055    33A     -0.471655
      34A     -0.469224    35A     -0.446983    36A     -0.434000

  @DF-RHF Final Energy:  -422.97836524497558

   => Energetics <=

    Nuclear Repulsion Energy =            449.8485334324032578
    One-Electron Energy =               -1467.2925896565097901
    Two-Electron Energy =                 594.4656909791314092
    DFT Exchange-Correlation Energy =       0.0000000000000000
    Empirical Dispersion Energy =           0.0000000000000000
    PCM Polarization Energy =               0.0000000000000000
    EFP Energy =                            0.0000000000000000
    Total Energy =                       -422.9783652449751798
    Molecular point group: c1
  Basis Set: 6-31G*
  Basis Set:

  -Total Gradient:
     Atom            X                  Y                   Z
    ------   -----------------  -----------------  -----------------
       1       -0.000005452253     0.000006512374    -0.000014101326
       2        0.000393933029    -0.000566429491     0.001173175238
       3       -0.000013357972     0.000014256432    -0.000026675798
       4       -0.000359340273     0.000559249621    -0.001888960189
       5       -0.000000149037     0.000002289338     0.000017536471
       6        0.000005180793     0.000004553921     0.000003644972
       7        0.000002158926    -0.000016429819     0.000008634468
       8       -0.000812481705     0.001022415903     0.001472756636
       9       -0.000001543496     0.000005178978    -0.000005361192
      10        0.000772485792    -0.001052720663    -0.000761474362
      11        0.000009626433     0.000022988190     0.000008666942
      12        0.000002267970    -0.000004603175     0.000002449205
      13        0.000006787655    -0.000009415584     0.000002383698
      14       -0.000005841991     0.000011589310     0.000000006051
      15        0.000003896092     0.000002735990    -0.000000461871
      16       -0.000002031682     0.000004460917     0.000009240554
      17        0.000001991362    -0.000006374354     0.000008219209
      18        0.000002075926    -0.000001904178    -0.000012022193
      19       -0.000001509981    -0.000005834184     0.000002007744
      20        0.000000482637     0.000007008861     0.000002005731
      21        0.000001500358     0.000002823024     0.000000265411
      22        0.000000926389     0.000000461256    -0.000002730475
      23       -0.000001604970    -0.000002812662     0.000000795076

  **** Optimization is complete! (in 6 steps) ****
    Final optimized geometry and variables:
    Molecular point group: c1

    Geometry (in Angstrom), charge = 0, multiplicity = 1:

    O           -2.736949259975     1.120049811807     0.864318753881
    C           -2.628425457135     0.058739357012     0.338772910324
    C           -3.745130895088    -0.950272167345     0.256326937304
    O           -1.519775710768    -0.371959498890    -0.241938727817
    H           -4.583810309459    -0.498893706779    -0.260147585782
    H           -3.438891515159    -1.849939217998    -0.256620774890
    H           -4.070645110624    -1.191121950506     1.261285836620
    C           -0.361921418055     0.458485954488    -0.214614033572
    C            0.860022765820    -0.442893941774    -0.229629931494
    H           -0.383356888113     1.091857023810    -1.093484581751
    H           -0.389349539109     1.085619610016     0.662735275382
    C            2.164425659502     0.356160221856    -0.251401927646
    H            0.807852972162    -1.093751291446    -1.097931322781
    H            0.831364111730    -1.085181915289     0.646444251770
    C            3.408742253959    -0.533668083141    -0.265499958948
    H            2.178966212450     1.004741782697    -1.125717798105
    H            2.203548610599     1.012564772915     0.616173112289
    C            4.711261414688     0.264908794031    -0.290486434985
    H            3.370713932002    -1.190637531084    -1.131552335786
    H            3.397842783414    -1.180146739420     0.609125319148
    H            4.767157107508     0.896877109994    -1.172275246838
    H            5.574639483420    -0.392895617269    -0.300052016842
    H            4.794380521075     0.907180609916     0.581614480561

  Mulliken Charges: (a.u.)
   Center  Symbol    Alpha    Beta     Spin     Total
       1     O     4.28354  4.28354  0.00000 -0.56708
       2     C     2.61556  2.61556  0.00000  0.76889
       3     C     3.28814  3.28814  0.00000 -0.57627
       4     O     4.31319  4.31319  0.00000 -0.62638
       5     H     0.39748  0.39748  0.00000  0.20505
       6     H     0.39994  0.39994  0.00000  0.20012
       7     H     0.39773  0.39773  0.00000  0.20454
       8     C     3.00009  3.00009  0.00000 -0.00018
       9     C     3.16375  3.16375  0.00000 -0.32751
      10     H     0.41565  0.41565  0.00000  0.16870
      11     H     0.39967  0.39967  0.00000  0.20067
      12     C     3.16047  3.16047  0.00000 -0.32093
      13     H     0.41409  0.41409  0.00000  0.17182
      14     H     0.41547  0.41547  0.00000  0.16905
      15     C     3.15137  3.15137  0.00000 -0.30274
      16     H     0.42137  0.42137  0.00000  0.15727
      17     H     0.42024  0.42024  0.00000  0.15951
      18     C     3.23989  3.23989  0.00000 -0.47977
      19     H     0.42144  0.42144  0.00000  0.15713
      20     H     0.42126  0.42126  0.00000  0.15749
      21     H     0.42102  0.42102  0.00000  0.15796
      22     H     0.41798  0.41798  0.00000  0.16405
      23     H     0.42068  0.42068  0.00000  0.15864

   Total alpha = 36.00000, Total beta = 36.00000, Total charge = -0.00000
