  ==> Input File <==

--------------------------------------------------------------------------
set {
	reference rhf
	basis 6-31G*
}

set_num_threads( 4 )
memory 2 gb

molecule MOL {
0 1

O	 -1.276010	 1.052711	 -0.768302
C	 -1.204840	 0.067374	 -0.106123
C	 -2.388195	 -0.672128	 0.458071
O	 -0.067104	 -0.527208	 0.221609
H	 -2.388023	 -1.694060	 0.097175
H	 -3.300579	 -0.174919	 0.164318
H	 -2.315377	 -0.706351	 1.539059
C	 1.170111	 0.034140	 -0.238951
C	 1.376862	 1.304667	 0.566407
C	 1.094633	 0.284243	 -1.737082
H	 1.955977	 -0.675536	 -0.026155
H	 1.408833	 1.084516	 1.627424
H	 2.312633	 1.776877	 0.285904
H	 0.570481	 2.007733	 0.387234
H	 2.019725	 0.730463	 -2.087953
H	 0.942360	 -0.643385	 -2.274014
H	 0.279063	 0.962243	 -1.967668

	symmetry c1
}
set optking {
	frozen_dihedral = ("
		11 8 4 2
	")
}

ee = optimize('scf')
oeprop('DIPOLE', 'QUADRUPOLE', 'MULLIKEN_CHARGES')
f=open( 'psi4out.xyz', 'w' )
f.write( "17  " )
f.write( str(ee) + "\n" )
f.write( MOL.save_string_xyz() )
f.close()
--------------------------------------------------------------------------

    Molecular point group: c1
  Charge       = 0
  Multiplicity = 1
  Basis Set: 6-31G*
  Basis Set:
  @DF-RHF Final Energy:  -344.89956040318646
    Total Energy =                       -344.8995604031864559
    Molecular point group: c1
  Basis Set: 6-31G*
  Basis Set:
  Basis Set: 6-31G*
  Basis Set:
  @DF-RHF Final Energy:  -344.90836078844842
    Total Energy =                       -344.9083607884486469
  Basis Set: 6-31G*
  Basis Set:
  Basis Set: 6-31G*
  Basis Set:
  @DF-RHF Final Energy:  -344.90916366565085
    Total Energy =                       -344.9091636656505102
  Basis Set: 6-31G*
  Basis Set:
  Basis Set: 6-31G*
  Basis Set:
  @DF-RHF Final Energy:  -344.90746486767455
    Total Energy =                       -344.9074648676742072
  Basis Set: 6-31G*
  Basis Set:
  Basis Set: 6-31G*
  Basis Set:
  @DF-RHF Final Energy:  -344.90988861179761
    Total Energy =                       -344.9098886117976122
  Basis Set: 6-31G*
  Basis Set:
  Basis Set: 6-31G*
  Basis Set:
  @DF-RHF Final Energy:  -344.90993899512006
    Total Energy =                       -344.9099389951201147
  Basis Set: 6-31G*
  Basis Set:
  Basis Set: 6-31G*
  Basis Set:
  @DF-RHF Final Energy:  -344.90994411103622
    Total Energy =                       -344.9099441110361113
  Basis Set: 6-31G*
  Basis Set:
  Charge       = 0
  Multiplicity = 1
  Basis Set: 6-31G*
  Basis Set:

    Orbital Energies (a.u.)
    -----------------------

    Doubly Occupied:

       1A    -20.597557     2A    -20.541839     3A    -11.374793
       4A    -11.294072     5A    -11.231041     6A    -11.214961
       7A    -11.213440     8A     -1.462515     9A     -1.361071
      10A     -1.076069    11A     -1.003169    12A     -0.945847
      13A     -0.866826    14A     -0.731169    15A     -0.695307
      16A     -0.669916    17A     -0.659174    18A     -0.614511
      19A     -0.585771    20A     -0.580296    21A     -0.569127
      22A     -0.552133    23A     -0.528978    24A     -0.518963
      25A     -0.497519    26A     -0.483235    27A     -0.445100
      28A     -0.428502

  @DF-RHF Final Energy:  -344.90994475668515

   => Energetics <=

    Nuclear Repulsion Energy =            326.8678438751829844
    One-Electron Energy =               -1118.0697733279125714
    Two-Electron Energy =                 446.2919846960445511
    DFT Exchange-Correlation Energy =       0.0000000000000000
    Empirical Dispersion Energy =           0.0000000000000000
    PCM Polarization Energy =               0.0000000000000000
    EFP Energy =                            0.0000000000000000
    Total Energy =                       -344.9099447566850358
    Molecular point group: c1
  Basis Set: 6-31G*
  Basis Set:

  -Total Gradient:
     Atom            X                  Y                   Z
    ------   -----------------  -----------------  -----------------
       1        0.000001856950    -0.000016120699    -0.000008138118
       2       -0.000119256712    -0.001347543053    -0.002041160866
       3       -0.000001838401    -0.000035702598    -0.000061596585
       4        0.000163016790     0.001916435763     0.002738264291
       5        0.000001461576    -0.000004570556     0.000023414224
       6        0.000000398804     0.000001046759     0.000007490834
       7       -0.000003706361     0.000017966716     0.000008422079
       8        0.000391612935     0.000565226326     0.001690779500
       9       -0.000004526634    -0.000008659563     0.000018906470
      10       -0.000034327616     0.000030948127    -0.000007247986
      11       -0.000395339704    -0.001118011235    -0.002375349308
      12       -0.000004499254     0.000008365871     0.000002185190
      13       -0.000006953524    -0.000003414659    -0.000004431828
      14       -0.000000255290     0.000011355830     0.000001654461
      15       -0.000003958078     0.000000432515     0.000002238958
      16       -0.000001149269    -0.000004827584     0.000004068820
      17        0.000017463787    -0.000012927960     0.000000499864

  **** Optimization is complete! (in 8 steps) ****
    Final optimized geometry and variables:
    Molecular point group: c1

    Geometry (in Angstrom), charge = 0, multiplicity = 1:

    O           -1.230278105159     0.854728520102    -0.424060317741
    C           -1.071184292473    -0.172624678673     0.153764604845
    C           -2.190668890381    -1.030917739343     0.682096683718
    O            0.105559410640    -0.711227958844     0.431012003700
    H           -2.140077958743    -2.016277480173     0.233467227724
    H           -3.139737730787    -0.568472855829     0.455336086764
    H           -2.083259978179    -1.152968651617     1.753715129121
    C            1.342263686737    -0.140136328389    -0.030251030267
    C            1.681272081302     1.120384396349     0.750306372696
    C            1.381959349973     0.043000566924    -1.543173061851
    H            2.047446498312    -0.921499705443     0.218419182307
    H            1.643160531005     0.925952329070     1.816678599959
    H            2.686773068487     1.445125347662     0.501579576569
    H            0.992857275280     1.921467871834     0.515520444006
    H            2.407485992903     0.235754449339    -1.843351067389
    H            1.055090889614    -0.864000584592    -2.041246239327
    H            0.763214684962     0.864188425283    -1.872182735209

  Mulliken Charges: (a.u.)
   Center  Symbol    Alpha    Beta     Spin     Total
       1     O     4.28699  4.28699  0.00000 -0.57398
       2     C     2.61479  2.61479  0.00000  0.77043
       3     C     3.28066  3.28066  0.00000 -0.56131
       4     O     4.32025  4.32025  0.00000 -0.64050
       5     H     0.40155  0.40155  0.00000  0.19690
       6     H     0.39790  0.39790  0.00000  0.20419
       7     H     0.40092  0.40092  0.00000  0.19815
       8     C     2.91417  2.91417  0.00000  0.17165
       9     C     3.25431  3.25431  0.00000 -0.50862
      10     C     3.25871  3.25871  0.00000 -0.51742
      11     H     0.40964  0.40964  0.00000  0.18073
      12     H     0.41389  0.41389  0.00000  0.17221
      13     H     0.41885  0.41885  0.00000  0.16231
      14     H     0.39895  0.39895  0.00000  0.20209
      15     H     0.41921  0.41921  0.00000  0.16158
      16     H     0.41532  0.41532  0.00000  0.16935
      17     H     0.39389  0.39389  0.00000  0.21222

   Total alpha = 28.00000, Total beta = 28.00000, Total charge = -0.00000
