                              Psi4 1.0.54 Driver

  ==> Input File <==

--------------------------------------------------------------------------
set {
	reference rhf
	basis cc-pvtz
}

set_num_threads( 4 )
memory 2 gb

molecule MOL {
0 1

H	 -3.436473	 1.252944	 -1.023892
O	 -3.458596	 0.315260	 -0.960865
C	 -3.176635	 -0.080824	 0.355601
C	 -1.763371	 0.265266	 0.799691
H	 -3.321825	 -1.153438	 0.379502
H	 -3.895468	 0.357385	 1.043382
C	 -0.673390	 -0.426948	 -0.013392
H	 -1.631049	 1.344913	 0.747560
H	 -1.664587	 -0.001624	 1.849167
C	 0.340927	 -1.170617	 0.851529
H	 -0.161279	 0.308588	 -0.623835
H	 -1.138243	 -1.125825	 -0.704759
C	 1.426195	 -1.865359	 0.031422
H	 0.792980	 -0.469053	 1.546040
H	 -0.176057	 -1.910774	 1.458778
C	 2.421002	 -2.691421	 0.848629
H	 1.969367	 -1.121715	 -0.547204
H	 0.948167	 -2.520170	 -0.691994
C	 3.313785	 -1.876011	 1.780932
H	 3.052189	 -3.246196	 0.161168
H	 1.879188	 -3.434609	 1.427877
H	 3.864088	 -1.119992	 1.229862
H	 4.036981	 -2.514103	 2.275976
H	 2.743128	 -1.372924	 2.552203

	symmetry c1
}
set optking {
	frozen_dihedral = ("
		11 7 4 3
	")
}

ee,wfn = optimize('scf', return_wfn=True)
oeprop( wfn, 'DIPOLE', 'QUADRUPOLE', 'MULLIKEN_CHARGES')
f=open( 'psi4out.xyz', 'w' )
f.write( "24  " )
f.write( str(ee) + "\n" )
f.write( MOL.save_string_xyz() )
f.close()
--------------------------------------------------------------------------

    Molecular point group: c1
  Charge       = 0
  Multiplicity = 1
  Basis Set: CC-PVTZ
  Basis Set:
  @DF-RHF Final Energy:  -349.37540668142566
    Total Energy =                       -349.3754066814254884
    Molecular point group: c1
  Basis Set: CC-PVTZ
  Basis Set:
  Basis Set: CC-PVTZ
  Basis Set:
  @DF-RHF Final Energy:  -349.37563944623537
    Total Energy =                       -349.3756394462351409
  Basis Set: CC-PVTZ
  Basis Set:
  Basis Set: CC-PVTZ
  Basis Set:
  @DF-RHF Final Energy:  -349.37573666635421
    Total Energy =                       -349.3757366663543849
  Basis Set: CC-PVTZ
  Basis Set:
  Basis Set: CC-PVTZ
  Basis Set:
  @DF-RHF Final Energy:  -349.37573809143998
    Total Energy =                       -349.3757380914397004
  Basis Set: CC-PVTZ
  Basis Set:
  Basis Set: CC-PVTZ
  Basis Set:
  @DF-RHF Final Energy:  -349.37573914328516
    Total Energy =                       -349.3757391432852728
  Basis Set: CC-PVTZ
  Basis Set:
  Charge       = 0
  Multiplicity = 1
  Basis Set: CC-PVTZ
  Basis Set:

    Orbital Energies (a.u.)
    -----------------------

    Doubly Occupied:

       1A    -20.545909     2A    -11.265523     3A    -11.215030
       4A    -11.212071     5A    -11.210506     6A    -11.209584
       7A    -11.209229     8A    -11.205293     9A     -1.363869
      10A     -1.089003    11A     -1.048004    12A     -0.986490
      13A     -0.915760    14A     -0.852470    15A     -0.801514
      16A     -0.777091    17A     -0.680124    18A     -0.650120
      19A     -0.632977    20A     -0.615700    21A     -0.606074
      22A     -0.579613    23A     -0.551863    24A     -0.549476
      25A     -0.519838    26A     -0.507300    27A     -0.496190
      28A     -0.476365    29A     -0.469674    30A     -0.460890
      31A     -0.452932    32A     -0.447352    33A     -0.422271

  @DF-RHF Final Energy:  -349.37573918268885

   => Energetics <=

    Nuclear Repulsion Energy =            385.0304600468163585
    One-Electron Energy =               -1236.7601907151929481
    Two-Electron Energy =                 502.3539914856877431
    DFT Exchange-Correlation Energy =       0.0000000000000000
    Empirical Dispersion Energy =           0.0000000000000000
    PCM Polarization Energy =               0.0000000000000000
    EFP Energy =                            0.0000000000000000
    Total Energy =                       -349.3757391826887897
    Molecular point group: c1
  Basis Set: CC-PVTZ
  Basis Set:

  -Total Gradient:
     Atom            X                  Y                   Z
    ------   -----------------  -----------------  -----------------
       1       -0.000001542476     0.000039629617    -0.000037241655
       2       -0.000000656507     0.000008731277     0.000023466630
       3       -0.000022203450    -0.000926356177     0.000743943314
       4        0.000264467321     0.001313797193    -0.000778904844
       5        0.000028798338    -0.000013597164     0.000013071456
       6       -0.000022291059     0.000005517157     0.000019529303
       7       -0.001315073945    -0.000681459189    -0.001166747603
       8        0.000016457358    -0.000006966292    -0.000017591772
       9       -0.000009688267    -0.000005929952    -0.000002010570
      10        0.000004117487     0.000010668990    -0.000008203905
      11        0.001055022684     0.000254521261     0.001197217434
      12       -0.000006182707     0.000002501048     0.000019838563
      13        0.000012328981     0.000008928258     0.000008882670
      14       -0.000021821257     0.000004943341    -0.000023914137
      15       -0.000003506662     0.000003228955    -0.000000272444
      16       -0.000009751328    -0.000011368039     0.000008843783
      17        0.000000541038     0.000007156656     0.000004680162
      18        0.000008200754     0.000000282272    -0.000004285639
      19        0.000008938825    -0.000001267833    -0.000001131362
      20       -0.000002653938    -0.000007075836    -0.000000046700
      21       -0.000002885326    -0.000000009440     0.000007051291
      22        0.000003235610     0.000006798124     0.000000478467
      23        0.000002521514     0.000000292511    -0.000005219233
      24        0.000013627013    -0.000012966736    -0.000001433207

  **** Optimization is complete! (in 6 steps) ****
    Final optimized geometry and variables:
    Molecular point group: c1

    Geometry (in Angstrom), charge = 0, multiplicity = 1:

    H           -3.133318099909     2.126383388000    -1.522386349414
    O           -3.208326263041     1.195524644434    -1.414224970597
    C           -2.943905296592     0.847211868530    -0.081002524183
    C           -1.526966988506     1.181647306419     0.357239705109
    H           -3.106870346484    -0.221333613937    -0.017616646911
    H           -3.659800349696     1.324030077615     0.584232740864
    C           -0.434695799357     0.468838771377    -0.462607587161
    H           -1.388203808139     2.259104438506     0.317598704892
    H           -1.440501834070     0.910704123629     1.405887159606
    C            0.591330074431    -0.259262833013     0.404586025924
    H            0.089343466562     1.189054811654    -1.081959055325
    H           -0.894642981689    -0.236763514672    -1.145320328008
    C            1.682663418883    -0.946230896944    -0.413120318619
    H            1.035056135095     0.450243722932     1.096619207399
    H            0.080874647116    -1.001667535385     1.014854205067
    C            2.680861759129    -1.766842054618     0.405678411283
    H            2.223027968705    -0.198899949743    -0.989960145207
    H            1.210203984215    -1.603039960178    -1.138358084958
    C            3.566129544382    -0.946815404615     1.341125099314
    H            3.317214444205    -2.316912915659    -0.280784405501
    H            2.142356306789    -2.514142662613     0.982663640919
    H            4.111780390570    -0.185534823080     0.792622162084
    H            4.293256844812    -1.580538072449     1.836007656117
    H            2.990541837023    -0.449530947970     2.112482814578

  Mulliken Charges: (a.u.)
   Center  Symbol    Alpha    Beta     Spin     Total
       1     H     0.39564  0.39564  0.00000  0.20873
       2     O     4.20334  4.20334  0.00000 -0.40667
       3     C     2.97456  2.97456  0.00000  0.05089
       4     C     3.11159  3.11159  0.00000 -0.22317
       5     H     0.45931  0.45931  0.00000  0.08138
       6     H     0.46132  0.46132  0.00000  0.07737
       7     C     3.09008  3.09008  0.00000 -0.18015
       8     H     0.45253  0.45253  0.00000  0.09493
       9     H     0.45324  0.45324  0.00000  0.09351
      10     C     3.09346  3.09346  0.00000 -0.18692
      11     H     0.45258  0.45258  0.00000  0.09484
      12     H     0.44396  0.44396  0.00000  0.11208
      13     C     3.09580  3.09580  0.00000 -0.19161
      14     H     0.45229  0.45229  0.00000  0.09542
      15     H     0.45561  0.45561  0.00000  0.08878
      16     C     3.09003  3.09003  0.00000 -0.18005
      17     H     0.45431  0.45431  0.00000  0.09137
      18     H     0.44857  0.44857  0.00000  0.10287
      19     C     3.15221  3.15221  0.00000 -0.30442
      20     H     0.44862  0.44862  0.00000  0.10276
      21     H     0.45503  0.45503  0.00000  0.08993
      22     H     0.45513  0.45513  0.00000  0.08974
      23     H     0.44667  0.44667  0.00000  0.10665
      24     H     0.45414  0.45414  0.00000  0.09173

   Total alpha = 33.00000, Total beta = 33.00000, Total charge =  0.00000

*** Psi4 exiting successfully. Buy a developer a beer!
