                              Psi4 1.0.54 Driver

  ==> Input File <==

--------------------------------------------------------------------------
set {
	reference rhf
	basis cc-pvtz
}

set_num_threads( 4 )
memory 2 gb

molecule MOL {
0 1

H	 2.604515	 -0.626695	 -1.026921
N	 2.433987	 -0.362316	 -0.080024
C	 1.263552	 0.494993	 0.021953
H	 3.251299	 0.110208	 0.245643
C	 -0.016533	 -0.325589	 -0.026925
H	 1.280915	 1.180773	 -0.818522
H	 1.263064	 1.106893	 0.925038
C	 -1.280353	 0.525521	 0.047747
H	 -0.016686	 -0.912532	 -0.939714
H	 -0.014099	 -1.037598	 0.796369
C	 -2.560681	 -0.301323	 -0.007747
H	 -1.279957	 1.241025	 -0.770189
H	 -1.270445	 1.110526	 0.963468
H	 -2.617064	 -0.872870	 -0.928010
H	 -3.439525	 0.331102	 0.043462
H	 -2.609427	 -1.002736	 0.818585

	symmetry c1
}
set optking {
	frozen_dihedral = ("
		1 2 3 6
	")
}

ee,wfn = optimize('scf', return_wfn=True)
oeprop( wfn, 'DIPOLE', 'QUADRUPOLE', 'MULLIKEN_CHARGES')
f=open( 'psi4out.xyz', 'w' )
f.write( "16  " )
f.write( str(ee) + "\n" )
f.write( MOL.save_string_xyz() )
f.close()
--------------------------------------------------------------------------

    Molecular point group: c1
  Charge       = 0
  Multiplicity = 1
  Basis Set: CC-PVTZ
  Basis Set:
  @DF-RHF Final Energy:  -212.39790229297336
    Total Energy =                       -212.3979022929734128
    Molecular point group: c1
  Basis Set: CC-PVTZ
  Basis Set:
  Basis Set: CC-PVTZ
  Basis Set:
  @DF-RHF Final Energy:  -212.39938190628061
    Total Energy =                       -212.3993819062806097
  Basis Set: CC-PVTZ
  Basis Set:
  Basis Set: CC-PVTZ
  Basis Set:
  @DF-RHF Final Energy:  -212.39962477728153
    Total Energy =                       -212.3996247772814741
  Basis Set: CC-PVTZ
  Basis Set:
  Basis Set: CC-PVTZ
  Basis Set:
  @DF-RHF Final Energy:  -212.39962970752219
    Total Energy =                       -212.3996297075221946
  Basis Set: CC-PVTZ
  Basis Set:
  Charge       = 0
  Multiplicity = 1
  Basis Set: CC-PVTZ
  Basis Set:

    Orbital Energies (a.u.)
    -----------------------

    Doubly Occupied:

       1A    -15.527243     2A    -11.238622     3A    -11.211676
       4A    -11.205035     5A    -11.204901     6A     -1.177985
       7A     -1.059755     8A     -0.959402     9A     -0.843430
      10A     -0.789812    11A     -0.671076    12A     -0.631078
      13A     -0.609051    14A     -0.576799    15A     -0.559547
      16A     -0.528523    17A     -0.495888    18A     -0.470684
      19A     -0.466099    20A     -0.461391    21A     -0.384434

  @DF-RHF Final Energy:  -212.39963061668351

   => Energetics <=

    Nuclear Repulsion Energy =            186.3742737769666746
    One-Electron Energy =                -655.4029414939791423
    Two-Electron Energy =                 256.6290371003287873
    DFT Exchange-Correlation Energy =       0.0000000000000000
    Empirical Dispersion Energy =           0.0000000000000000
    PCM Polarization Energy =               0.0000000000000000
    EFP Energy =                            0.0000000000000000
    Total Energy =                       -212.3996306166836803
    Molecular point group: c1
  Basis Set: CC-PVTZ
  Basis Set:

  -Total Gradient:
     Atom            X                  Y                   Z
    ------   -----------------  -----------------  -----------------
       1        0.001264840366     0.001822079082    -0.000307852716
       2       -0.001902035451    -0.002654141869     0.000062325429
       3        0.001706800287     0.002159516528     0.001289414838
       4        0.000023187297     0.000009731333     0.000005548499
       5        0.000040070138     0.000038417684     0.000019749262
       6       -0.001107576193    -0.001372255635    -0.001095354424
       7       -0.000020619580    -0.000021580859     0.000002157309
       8       -0.000006226907    -0.000001234622     0.000012287299
       9        0.000022747640     0.000021287794     0.000010693935
      10       -0.000000402274     0.000003516826     0.000004361119
      11       -0.000020553961     0.000009838581    -0.000003086270
      12        0.000008283458    -0.000006546637     0.000009257027
      13       -0.000002124427    -0.000006686329    -0.000003623330
      14        0.000001906181    -0.000001143734     0.000003127364
      15       -0.000009230550    -0.000008171555    -0.000005389358
      16        0.000000933976     0.000007373412    -0.000003615984

  **** Optimization is complete! (in 5 steps) ****
    Final optimized geometry and variables:
    Molecular point group: c1

    Geometry (in Angstrom), charge = 0, multiplicity = 1:

    H            2.563705814112    -0.615747103418    -1.169310353251
    N            2.429520014874    -0.354924157460    -0.214911530400
    C            1.257699623577     0.498986138109    -0.068818220381
    H            3.256518627845     0.129755612631     0.062493036218
    C           -0.018384214804    -0.329621128181    -0.009325819801
    H            1.165609672313     1.223961381975    -0.877537110241
    H            1.362400145115     1.061384520508     0.852229752518
    C           -1.279000296390     0.515746546515     0.143133293204
    H           -0.092237914055    -0.929086056101    -0.914208766597
    H            0.062959779328    -1.030640997140     0.814924255734
    C           -2.554093251110    -0.318842771381     0.203757791384
    H           -1.348486932646     1.216697410077    -0.684553545541
    H           -1.201613955683     1.117669735591     1.044923411647
    H           -2.679221441232    -0.907275562203    -0.699128319969
    H           -3.430847187821     0.309222354944     0.313149040003
    H           -2.531716736529    -1.005600410336     1.043149662568

  Mulliken Charges: (a.u.)
   Center  Symbol    Alpha    Beta     Spin     Total
       1     H     0.43100  0.43100  0.00000  0.13799
       2     N     3.68933  3.68933  0.00000 -0.37865
       3     C     3.03487  3.03487  0.00000 -0.06975
       4     H     0.42885  0.42885  0.00000  0.14230
       5     C     3.07216  3.07216  0.00000 -0.14431
       6     H     0.46618  0.46618  0.00000  0.06764
       7     H     0.45630  0.45630  0.00000  0.08741
       8     C     3.08937  3.08937  0.00000 -0.17874
       9     H     0.46009  0.46009  0.00000  0.07982
      10     H     0.45139  0.45139  0.00000  0.09723
      11     C     3.14931  3.14931  0.00000 -0.29862
      12     H     0.45685  0.45685  0.00000  0.08630
      13     H     0.45575  0.45575  0.00000  0.08850
      14     H     0.45531  0.45531  0.00000  0.08938
      15     H     0.44901  0.44901  0.00000  0.10197
      16     H     0.45424  0.45424  0.00000  0.09152

   Total alpha = 21.00000, Total beta = 21.00000, Total charge = -0.00000

*** Psi4 exiting successfully. Buy a developer a beer!
