  ==> Input File <==

--------------------------------------------------------------------------
set {
	reference rhf
	basis 6-31G*
}

set_num_threads( 4 )
memory 2 gb

molecule MOL {
0 1

H	 2.551007	 0.264138	 1.932259
O	 1.851087	 0.810585	 1.604848
C	 1.135793	 0.118896	 0.612333
C	 0.031547	 1.023609	 0.088541
H	 0.692614	 -0.786333	 1.023480
H	 1.798947	 -0.183786	 -0.194954
C	 -1.134819	 0.293262	 -0.585751
H	 0.474374	 1.714721	 -0.623187
H	 -0.338529	 1.620940	 0.920081
C	 -1.917817	 -0.639439	 0.339494
H	 -0.758119	 -0.268455	 -1.433105
H	 -1.813832	 1.041889	 -0.986690
H	 -2.777680	 -1.057197	 -0.174994
H	 -1.310268	 -1.471279	 0.680599
H	 -2.283753	 -0.111424	 1.216626

	symmetry c1
}
set optking {
	frozen_dihedral = ("
		2 3 4 8
	")
}

ee = optimize('scf')
oeprop('DIPOLE', 'QUADRUPOLE', 'MULLIKEN_CHARGES')
f=open( 'psi4out.xyz', 'w' )
f.write( "15  " )
f.write( str(ee) + "\n" )
f.write( MOL.save_string_xyz() )
f.close()
--------------------------------------------------------------------------

    Molecular point group: c1
  Charge       = 0
  Multiplicity = 1
  Basis Set: 6-31G*
  Basis Set:
  @DF-RHF Final Energy:  -232.14064395356863
    Total Energy =                       -232.1406439535686559
    Molecular point group: c1
  Basis Set: 6-31G*
  Basis Set:
  Basis Set: 6-31G*
  Basis Set:
  @DF-RHF Final Energy:  -232.14111383765868
    Total Energy =                       -232.1411138376585654
  Basis Set: 6-31G*
  Basis Set:
  Basis Set: 6-31G*
  Basis Set:
  @DF-RHF Final Energy:  -232.14140699677441
    Total Energy =                       -232.1414069967745490
  Basis Set: 6-31G*
  Basis Set:
  Basis Set: 6-31G*
  Basis Set:
  @DF-RHF Final Energy:  -232.14144309408479
    Total Energy =                       -232.1414430940848206
  Basis Set: 6-31G*
  Basis Set:
  Basis Set: 6-31G*
  Basis Set:
  @DF-RHF Final Energy:  -232.14144860991291
    Total Energy =                       -232.1414486099128567
  Basis Set: 6-31G*
  Basis Set:
  Basis Set: 6-31G*
  Basis Set:
  @DF-RHF Final Energy:  -232.14145421280770
    Total Energy =                       -232.1414542128077301
  Basis Set: 6-31G*
  Basis Set:
  Charge       = 0
  Multiplicity = 1
  Basis Set: 6-31G*
  Basis Set:

    Orbital Energies (a.u.)
    -----------------------

    Doubly Occupied:

       1A    -20.551744     2A    -11.267071     3A    -11.218519
       4A    -11.211417     5A    -11.209620     6A     -1.358239
       7A     -1.068752     8A     -0.970384     9A     -0.867151
      10A     -0.786250    11A     -0.694018    12A     -0.651575
      13A     -0.619327    14A     -0.576600    15A     -0.554903
      16A     -0.542686    17A     -0.503089    18A     -0.475344
      19A     -0.472093    20A     -0.457474    21A     -0.431042

  @DF-RHF Final Energy:  -232.14145446120645

   => Energetics <=

    Nuclear Repulsion Energy =            188.1117627663818155
    One-Electron Energy =                -687.5318369134704426
    Two-Electron Energy =                 267.2786196858821199
    DFT Exchange-Correlation Energy =       0.0000000000000000
    Empirical Dispersion Energy =           0.0000000000000000
    PCM Polarization Energy =               0.0000000000000000
    EFP Energy =                            0.0000000000000000
    Total Energy =                       -232.1414544612064788
    Molecular point group: c1
  Basis Set: 6-31G*
  Basis Set:

  -Total Gradient:
     Atom            X                  Y                   Z
    ------   -----------------  -----------------  -----------------
       1        0.000008871998     0.000002575322     0.000011043866
       2       -0.001690919380    -0.001294171457     0.001998962147
       3        0.002047200612     0.001161481266    -0.003258058861
       4        0.000292028939     0.002387283567     0.004213854237
       5       -0.000002270427     0.000002145491     0.000000301718
       6        0.000004221898    -0.000002546477     0.000004279027
       7       -0.000012148437     0.000004273768    -0.000004873084
       8       -0.000644925462    -0.002255175952    -0.002964469312
       9        0.000001588976    -0.000005007626     0.000004849835
      10       -0.000003506583     0.000009226481    -0.000004096826
      11       -0.000003480900    -0.000004786545     0.000002182558
      12       -0.000001907788    -0.000003415239    -0.000006130683
      13        0.000001929011    -0.000005379304    -0.000001786822
      14        0.000006221315     0.000004516545     0.000007383516
      15       -0.000002903778    -0.000001019839    -0.000003441316

  **** Optimization is complete! (in 7 steps) ****
    Final optimized geometry and variables:
    Molecular point group: c1

    Geometry (in Angstrom), charge = 0, multiplicity = 1:

    H            2.593743491812    -0.040024840639     1.385681815936
    O            1.833070572704     0.470175940898     1.146593499373
    C            1.129688928773    -0.183348337206     0.120236374237
    C           -0.032395757584     0.706511779528    -0.304698326220
    H            0.764699780805    -1.143616362079     0.477549452554
    H            1.777726698696    -0.381040401092    -0.731762975637
    C           -1.151943280337    -0.051323274681    -1.032299760964
    H            0.348426687453     1.475304677501    -0.970481397195
    H           -0.425831550693     1.201182204599     0.577345104373
    C           -2.032650061095    -0.907969288234    -0.120115305903
    H           -0.721393425653    -0.674787277570    -1.814403945216
    H           -1.783164776187     0.671421080184    -1.541769798947
    H           -2.815420648725    -1.398993089073    -0.690151315063
    H           -1.467180755890    -1.681773349725     0.388733533248
    H           -2.510640178449    -0.296791299560     0.639954263117

  Mulliken Charges: (a.u.)
   Center  Symbol    Alpha    Beta     Spin     Total
       1     H     0.28159  0.28159  0.00000  0.43683
       2     O     4.37130  4.37130  0.00000 -0.74260
       3     C     2.99287  2.99287  0.00000  0.01425
       4     C     3.16096  3.16096  0.00000 -0.32192
       5     H     0.43117  0.43117  0.00000  0.13765
       6     H     0.43175  0.43175  0.00000  0.13650
       7     C     3.16200  3.16200  0.00000 -0.32401
       8     H     0.41635  0.41635  0.00000  0.16729
       9     H     0.40989  0.40989  0.00000  0.18022
      10     C     3.23976  3.23976  0.00000 -0.47953
      11     H     0.42422  0.42422  0.00000  0.15155
      12     H     0.41812  0.41812  0.00000  0.16376
      13     H     0.41907  0.41907  0.00000  0.16186
      14     H     0.42146  0.42146  0.00000  0.15709
      15     H     0.41948  0.41948  0.00000  0.16105

   Total alpha = 21.00000, Total beta = 21.00000, Total charge = -0.00000
