  ==> Input File <==

--------------------------------------------------------------------------
set {
	reference rhf
	basis cc-pvtz
}

set_num_threads( 4 )
memory 2 gb

molecule MOL {
0 1

H	 3.889604	 0.356866	 -0.089510
N	 3.091268	 -0.241216	 -0.065538
C	 1.860978	 0.530248	 0.016256
H	 3.192566	 -0.835836	 0.730398
C	 0.644130	 -0.381765	 -0.031064
H	 1.835721	 1.204666	 -0.833114
H	 1.808789	 1.151975	 0.911067
C	 -0.678115	 0.376691	 0.025731
H	 0.693998	 -0.977147	 -0.936845
H	 0.693309	 -1.082142	 0.800523
C	 -0.506500	 1.872936	 0.272717
H	 -1.300883	 -0.044823	 0.811505
H	 -1.222140	 0.229204	 -0.904407
C	 -1.830848	 2.626508	 0.335204
H	 0.037238	 2.022443	 1.201313
H	 0.112327	 2.297322	 -0.513235
H	 -2.459023	 2.248271	 1.134937
H	 -1.673284	 3.684378	 0.511530
H	 -2.383475	 2.524911	 -0.593030

	symmetry c1
}
set optking {
	frozen_dihedral = ("
		12 8 5 9
	")
}

ee = optimize('scf')
oeprop('DIPOLE', 'QUADRUPOLE', 'MULLIKEN_CHARGES')
f=open( 'psi4out.xyz', 'w' )
f.write( "19  " )
f.write( str(ee) + "\n" )
f.write( MOL.save_string_xyz() )
f.close()
--------------------------------------------------------------------------

    Molecular point group: c1
  Charge       = 0
  Multiplicity = 1
  Basis Set: CC-PVTZ
  Basis Set:
  @DF-RHF Final Energy:  -251.43338424906389
    Total Energy =                       -251.4333842490635220
    Molecular point group: c1
  Basis Set: CC-PVTZ
  Basis Set:
  Basis Set: CC-PVTZ
  Basis Set:
  @DF-RHF Final Energy:  -251.43377213657476
    Total Energy =                       -251.4337721365744756
  Basis Set: CC-PVTZ
  Basis Set:
  Basis Set: CC-PVTZ
  Basis Set:
  @DF-RHF Final Energy:  -251.43745039031907
    Total Energy =                       -251.4374503903190998
  Basis Set: CC-PVTZ
  Basis Set:
  Basis Set: CC-PVTZ
  Basis Set:
  @DF-RHF Final Energy:  -251.43800426754217
    Total Energy =                       -251.4380042675421123
  Basis Set: CC-PVTZ
  Basis Set:
  Basis Set: CC-PVTZ
  Basis Set:
  @DF-RHF Final Energy:  -251.43804246068069
    Total Energy =                       -251.4380424606808901
  Basis Set: CC-PVTZ
  Basis Set:
  Basis Set: CC-PVTZ
  Basis Set:
  @DF-RHF Final Energy:  -251.43806804424315
    Total Energy =                       -251.4380680442432663
  Basis Set: CC-PVTZ
  Basis Set:
  Basis Set: CC-PVTZ
  Basis Set:
  @DF-RHF Final Energy:  -251.43809010026010
    Total Energy =                       -251.4380901002601263
  Basis Set: CC-PVTZ
  Basis Set:
  Charge       = 0
  Multiplicity = 1
  Basis Set: CC-PVTZ
  Basis Set:

    Orbital Energies (a.u.)
    -----------------------

    Doubly Occupied:

       1A    -15.525868     2A    -11.237202     3A    -11.212548
       4A    -11.211185     5A    -11.208315     6A    -11.205834
       7A     -1.177773     8A     -1.070586     9A     -0.995168
      10A     -0.900139    11A     -0.836230    12A     -0.767961
      13A     -0.662575    14A     -0.642836    15A     -0.621022
      16A     -0.585412    17A     -0.573097    18A     -0.547579
      19A     -0.525660    20A     -0.503563    21A     -0.492313
      22A     -0.460447    23A     -0.451512    24A     -0.446145
      25A     -0.382985

  @DF-RHF Final Energy:  -251.43809013366914

   => Energetics <=

    Nuclear Repulsion Energy =            249.7154366951912436
    One-Electron Energy =                -833.8191429052764079
    Two-Electron Energy =                 332.6656160764161996
    DFT Exchange-Correlation Energy =       0.0000000000000000
    Empirical Dispersion Energy =           0.0000000000000000
    PCM Polarization Energy =               0.0000000000000000
    EFP Energy =                            0.0000000000000000
    Total Energy =                       -251.4380901336689931
    Molecular point group: c1
  Basis Set: CC-PVTZ
  Basis Set:

  -Total Gradient:
     Atom            X                  Y                   Z
    ------   -----------------  -----------------  -----------------
       1       -0.000002738144     0.000002763798     0.000000898903
       2       -0.000003214186    -0.000006218507     0.000008547767
       3       -0.000004212789     0.000001651446    -0.000029250342
       4        0.000002664092    -0.000000340088     0.000001224229
       5       -0.000912287833    -0.001698556724     0.001582917114
       6        0.000006236294    -0.000000161508     0.000002044621
       7       -0.000002771257    -0.000001928777     0.000005223833
       8       -0.000831086175    -0.001269438539    -0.001931150095
       9        0.000909155789     0.001629864643    -0.001032971371
      10       -0.000001772284    -0.000005243820    -0.000001585712
      11       -0.000002940578    -0.000009995267     0.000024922150
      12        0.000848398146     0.001363361652     0.001380364796
      13       -0.000005353969    -0.000002802723     0.000000871174
      14       -0.000002752188    -0.000001394951    -0.000013220842
      15        0.000003646553     0.000002052224     0.000004342840
      16       -0.000004284687    -0.000002804660    -0.000001093514
      17        0.000004915463     0.000000334535     0.000000490345
      18        0.000003144947     0.000000125379    -0.000003251316
      19       -0.000004747196    -0.000001268114     0.000000675421

  **** Optimization is complete! (in 8 steps) ****
    Final optimized geometry and variables:
    Molecular point group: c1

    Geometry (in Angstrom), charge = 0, multiplicity = 1:

    H            3.510171594665    -0.670187247272    -0.234003972699
    N            2.658370094423    -1.189420955677    -0.209392542628
    C            1.510168818268    -0.303297355403    -0.086236207321
    H            2.714752542935    -1.810012969948     0.571167930780
    C            0.224166425119    -1.124324592545    -0.107528042746
    H            1.530394799469     0.374807287321    -0.931223685350
    H            1.550617063210     0.309728805888     0.811978948906
    C           -1.114734454201    -0.344803112941    -0.049195513342
    H            0.256043996288    -1.717981445981    -1.012794536811
    H            0.265545094313    -1.827405194598     0.719216617222
    C           -1.045296402483     1.165144730807     0.193753700363
    H           -1.727864286315    -0.766639331881     0.740734735279
    H           -1.658957448802    -0.510399149595    -0.972977088696
    C           -2.431106784331     1.802813582433     0.216428690871
    H           -0.548573480046     1.368358119327     1.136919687598
    H           -0.450387878847     1.643733337755    -0.576794625605
    H           -3.046887410080     1.374622556059     1.000477377847
    H           -2.368605270727     2.870810727837     0.391541567230
    H           -2.947117819117     1.651786258358    -0.725960806394

  Mulliken Charges: (a.u.)
   Center  Symbol    Alpha    Beta     Spin     Total
       1     H     0.43030  0.43030  0.00000  0.13939
       2     N     3.69101  3.69101  0.00000 -0.38201
       3     C     3.02823  3.02823  0.00000 -0.05646
       4     H     0.43099  0.43099  0.00000  0.13801
       5     C     3.09116  3.09116  0.00000 -0.18232
       6     H     0.45468  0.45468  0.00000  0.09064
       7     H     0.46456  0.46456  0.00000  0.07088
       8     C     3.09621  3.09621  0.00000 -0.19242
       9     H     0.44604  0.44604  0.00000  0.10793
      10     H     0.45743  0.45743  0.00000  0.08514
      11     C     3.09266  3.09266  0.00000 -0.18532
      12     H     0.45230  0.45230  0.00000  0.09540
      13     H     0.45069  0.45069  0.00000  0.09861
      14     C     3.15002  3.15002  0.00000 -0.30003
      15     H     0.45306  0.45306  0.00000  0.09388
      16     H     0.45209  0.45209  0.00000  0.09582
      17     H     0.45521  0.45521  0.00000  0.08958
      18     H     0.44841  0.44841  0.00000  0.10319
      19     H     0.45495  0.45495  0.00000  0.09011

   Total alpha = 25.00000, Total beta = 25.00000, Total charge = -0.00000
