  ==> Input File <==

--------------------------------------------------------------------------
set {
	reference rhf
	basis 6-31G*
}

set_num_threads( 1 )
memory 2 gb

molecule MOL {
0 1

H	 3.777811	 0.447193	 1.052589
N	 2.961508	 -0.132830	 1.080295
C	 1.795035	 0.594733	 0.601213
H	 2.835051	 -0.409031	 2.035570
C	 0.575034	 -0.319049	 0.552695
H	 2.016802	 0.950180	 -0.400454
H	 1.563079	 1.477449	 1.202384
C	 -0.679275	 0.379305	 0.025956
H	 0.814600	 -1.178367	 -0.066996
H	 0.379515	 -0.704958	 1.552786
C	 -1.903357	 -0.536963	 -0.023547
H	 -0.483568	 0.767806	 -0.972350
H	 -0.904666	 1.243044	 0.649655
C	 -3.225172	 0.228290	 0.028445
H	 -1.867824	 -1.134999	 -0.931459
H	 -1.860449	 -1.239604	 0.805977
H	 -3.313397	 0.915643	 -0.808262
H	 -4.073500	 -0.448134	 -0.008893
H	 -3.306061	 0.809945	 0.942516

	symmetry c1
}
set optking {
	frozen_dihedral = ("
		6 3 5 9,
		12 8 5 9,
		1 2 3 6
	")
}

ee = energy('scf')
oeprop('DIPOLE', 'QUADRUPOLE', 'MULLIKEN_CHARGES')
f=open( 'psi4out.xyz', 'w' )
f.write( "19  " )
f.write( str(ee) + "\n" )
f.write( MOL.save_string_xyz() )
f.close()
--------------------------------------------------------------------------

    Molecular point group: c1

    Geometry (in Angstrom), charge = 0, multiplicity = 1:

       Center              X                  Y                   Z               Mass
    ------------   -----------------  -----------------  -----------------  -----------------
           H          3.826485910912     0.403525621624     0.657235374934     1.007825032070
           N          3.010182910912    -0.176497378376     0.684941374934    14.003074004780
           C          1.843709910912     0.551065621624     0.205859374934    12.000000000000
           H          2.883725910912    -0.452698378376     1.640216374934     1.007825032070
           C          0.623708910912    -0.362716378376     0.157341374934    12.000000000000
           H          2.065476910912     0.906512621624    -0.795807625066     1.007825032070
           H          1.611753910912     1.433781621624     0.807030374934     1.007825032070
           C         -0.630600089088     0.335637621624    -0.369397625066    12.000000000000
           H          0.863274910912    -1.222034378376    -0.462349625066     1.007825032070
           H          0.428189910912    -0.748625378376     1.157432374934     1.007825032070
           C         -1.854682089088    -0.580630378376    -0.418900625066    12.000000000000
           H         -0.434893089088     0.724138621624    -1.367703625066     1.007825032070
           H         -0.855991089088     1.199376621624     0.254301374934     1.007825032070
           C         -3.176497089088     0.184622621624    -0.366908625066    12.000000000000
           H         -1.819149089088    -1.178666378376    -1.326812625066     1.007825032070
           H         -1.811774089088    -1.283271378376     0.410623374934     1.007825032070
           H         -3.264722089088     0.871975621624    -1.203615625066     1.007825032070
           H         -4.024825089088    -0.491801378376    -0.404246625066     1.007825032070
           H         -3.257386089088     0.766277621624     0.547162374934     1.007825032070

  Charge       = 0
  Multiplicity = 1
  Basis Set: 6-31G*
  Basis Set:

    Orbital Energies (a.u.)
    -----------------------

    Doubly Occupied:

       1A    -15.532439     2A    -11.239556     3A    -11.213368
       4A    -11.212157     5A    -11.209577     6A    -11.207674
       7A     -1.176550     8A     -1.072970     9A     -0.998204
      10A     -0.900211    11A     -0.813364    12A     -0.789120
      13A     -0.663444    14A     -0.643194    15A     -0.615657
      16A     -0.588865    17A     -0.562785    18A     -0.554021
      19A     -0.526048    20A     -0.500247    21A     -0.481835
      22A     -0.464674    23A     -0.458905    24A     -0.448902
      25A     -0.380941

  @DF-RHF Final Energy:  -251.34968930805246

   => Energetics <=

    Nuclear Repulsion Energy =            245.8476095372652139
    One-Electron Energy =                -825.8852060613326103
    Two-Electron Energy =                 328.6879072160153328
    DFT Exchange-Correlation Energy =       0.0000000000000000
    Empirical Dispersion Energy =           0.0000000000000000
    PCM Polarization Energy =               0.0000000000000000
    EFP Energy =                            0.0000000000000000
    Total Energy =                       -251.3496893080520067

  Mulliken Charges: (a.u.)
   Center  Symbol    Alpha    Beta     Spin     Total
       1     H     0.33250  0.33250  0.00000  0.33501
       2     N     3.92191  3.92191  0.00000 -0.84381
       3     C     3.06044  3.06044  0.00000 -0.12087
       4     H     0.33540  0.33540  0.00000  0.32920
       5     C     3.15241  3.15241  0.00000 -0.30482
       6     H     0.42090  0.42090  0.00000  0.15821
       7     H     0.43471  0.43471  0.00000  0.13058
       8     C     3.15603  3.15603  0.00000 -0.31205
       9     H     0.41303  0.41303  0.00000  0.17395
      10     H     0.42751  0.42751  0.00000  0.14497
      11     C     3.15158  3.15158  0.00000 -0.30315
      12     H     0.42222  0.42222  0.00000  0.15556
      13     H     0.42443  0.42443  0.00000  0.15115
      14     C     3.23974  3.23974  0.00000 -0.47949
      15     H     0.42093  0.42093  0.00000  0.15815
      16     H     0.42238  0.42238  0.00000  0.15524
      17     H     0.42188  0.42188  0.00000  0.15624
      18     H     0.41983  0.41983  0.00000  0.16034
      19     H     0.42219  0.42219  0.00000  0.15562

   Total alpha = 25.00000, Total beta = 25.00000, Total charge = -0.00000
