  ==> Input File <==

--------------------------------------------------------------------------
set {
	reference rhf
	basis 6-31G*
}

set_num_threads( 4 )
memory 2 gb

molecule MOL {
0 1

O	 -2.439739	 -0.935931	 -0.423848
C	 -1.921153	 0.064240	 -0.045697
C	 -2.624470	 1.379923	 0.150949
O	 -0.632575	 0.154573	 0.251549
H	 -2.168117	 2.136577	 -0.476876
H	 -3.669540	 1.273223	 -0.098610
H	 -2.519365	 1.700893	 1.180846
C	 0.160891	 -1.019931	 0.106212
C	 1.589627	 -0.672828	 0.480843
H	 0.089836	 -1.367806	 -0.916050
H	 -0.238459	 -1.792301	 0.749618
C	 2.208105	 0.428407	 -0.382386
H	 2.180832	 -1.581931	 0.391725
H	 1.617486	 -0.382787	 1.527914
C	 3.654567	 0.733549	 0.004443
H	 2.168814	 0.128840	 -1.427764
H	 1.610655	 1.330069	 -0.296252
H	 4.069889	 1.517496	 -0.620831
H	 4.285002	 -0.144587	 -0.103754
H	 3.722734	 1.063662	 1.037137

	symmetry c1
}
set optking {
	frozen_dihedral = ("
		12 9 8 10
	")
}

ee = optimize('scf')
oeprop('DIPOLE', 'QUADRUPOLE', 'MULLIKEN_CHARGES')
f=open( 'psi4out.xyz', 'w' )
f.write( "20  " )
f.write( str(ee) + "\n" )
f.write( MOL.save_string_xyz() )
f.close()
--------------------------------------------------------------------------

    Molecular point group: c1
  Charge       = 0
  Multiplicity = 1
  Basis Set: 6-31G*
  Basis Set:
  @DF-RHF Final Energy:  -383.94557274689544
    Total Energy =                       -383.9455727468954365
    Molecular point group: c1
  Basis Set: 6-31G*
  Basis Set:
  Basis Set: 6-31G*
  Basis Set:
  @DF-RHF Final Energy:  -383.94547319350619
    Total Energy =                       -383.9454731935059044
  Basis Set: 6-31G*
  Basis Set:
  Basis Set: 6-31G*
  Basis Set:
  @DF-RHF Final Energy:  -383.94552402282949
    Total Energy =                       -383.9455240228297725
  Basis Set: 6-31G*
  Basis Set:
  Basis Set: 6-31G*
  Basis Set:
  @DF-RHF Final Energy:  -383.94559681892713
    Total Energy =                       -383.9455968189270152
  Basis Set: 6-31G*
  Basis Set:
  Charge       = 0
  Multiplicity = 1
  Basis Set: 6-31G*
  Basis Set:

    Orbital Energies (a.u.)
    -----------------------

    Doubly Occupied:

       1A    -20.602123     2A    -20.544314     3A    -11.374769
       4A    -11.282352     5A    -11.233590     6A    -11.225576
       7A    -11.220257     8A    -11.213277     9A     -1.468341
      10A     -1.362552    11A     -1.085873    12A     -1.028309
      13A     -0.981482    14A     -0.880205    15A     -0.812299
      16A     -0.774034    17A     -0.689825    18A     -0.684081
      19A     -0.667237    20A     -0.631856    21A     -0.600275
      22A     -0.592692    23A     -0.572486    24A     -0.550382
      25A     -0.544992    26A     -0.532133    27A     -0.511395
      28A     -0.483668    29A     -0.474063    30A     -0.471797
      31A     -0.449010    32A     -0.439023

  @DF-RHF Final Energy:  -383.94559716202048

   => Energetics <=

    Nuclear Repulsion Energy =            385.4147390658509948
    One-Electron Energy =               -1286.7521336540676202
    Two-Electron Energy =                 517.3917974261962627
    DFT Exchange-Correlation Energy =       0.0000000000000000
    Empirical Dispersion Energy =           0.0000000000000000
    PCM Polarization Energy =               0.0000000000000000
    EFP Energy =                            0.0000000000000000
    Total Energy =                       -383.9455971620203627
    Molecular point group: c1
  Basis Set: 6-31G*
  Basis Set:

  -Total Gradient:
     Atom            X                  Y                   Z
    ------   -----------------  -----------------  -----------------
       1       -0.000016922837    -0.000003218959    -0.000008573789
       2        0.000029175926    -0.000031547301     0.000068432814
       3        0.000006221433     0.000004357447    -0.000029139678
       4        0.000039893621     0.000037590264    -0.000017504011
       5       -0.000002532981     0.000008701773     0.000001347731
       6        0.000001138253    -0.000000614691    -0.000002415957
       7        0.000003379994    -0.000007479607    -0.000002978745
       8       -0.000263291633     0.001595474900    -0.000369538311
       9        0.000428089351    -0.001106187792    -0.000644497309
      10        0.000154460309    -0.001096837533     0.000410410070
      11       -0.000037539629    -0.000000442058     0.000040429495
      12       -0.000305880513     0.000593584384     0.000555895155
      13       -0.000017490129     0.000005147557    -0.000017688276
      14        0.000002563249    -0.000008615030     0.000010326004
      15        0.000002919264    -0.000011916000    -0.000010286551
      16        0.000004972903     0.000011892655    -0.000005045735
      17       -0.000020109037     0.000008573939     0.000020758312
      18        0.000002319235    -0.000008630113    -0.000009400845
      19       -0.000005950842    -0.000001866355     0.000013099023
      20       -0.000005415935     0.000012032522    -0.000003629395

  **** Optimization is complete! (in 5 steps) ****
    Final optimized geometry and variables:
    Molecular point group: c1

    Geometry (in Angstrom), charge = 0, multiplicity = 1:

    O           -2.432534167367    -0.964109071464    -0.431870031837
    C           -1.917188295418     0.040942262879    -0.062398366853
    C           -2.627648494175     1.352516922907     0.136391356602
    O           -0.627623631193     0.139880503854     0.227815602513
    H           -2.181194581500     2.110330037004    -0.497109017476
    H           -3.673844277025     1.238105027655    -0.104903800400
    H           -2.516702341288     1.676910428876     1.164624772300
    C            0.171523762700    -1.029525213211     0.082121486794
    C            1.598814953661    -0.683328254249     0.463773273550
    H            0.105887049831    -1.381756972183    -0.939098016639
    H           -0.226259829496    -1.805412158119     0.722653394991
    C            2.227578749781     0.412738548291    -0.398569928297
    H            2.186425655361    -1.595736305612     0.386611582461
    H            1.621036597980    -0.384669125022     1.508751903585
    C            3.677687806285     0.701162933389    -0.012248513187
    H            2.184394599315     0.116157417301    -1.444742716694
    H            1.639666390833     1.319977130173    -0.309981219319
    H            4.101535703273     1.480689981128    -0.637358020642
    H            4.298423661646    -0.183826134512    -0.120832483895
    H            3.750032362576     1.030275050783     1.020523053125

  Mulliken Charges: (a.u.)
   Center  Symbol    Alpha    Beta     Spin     Total
       1     O     4.28318  4.28318  0.00000 -0.56635
       2     C     2.61913  2.61913  0.00000  0.76174
       3     C     3.28171  3.28171  0.00000 -0.56343
       4     O     4.30831  4.30831  0.00000 -0.61662
       5     H     0.40071  0.40071  0.00000  0.19859
       6     H     0.39681  0.39681  0.00000  0.20637
       7     H     0.40058  0.40058  0.00000  0.19884
       8     C     3.00253  3.00253  0.00000 -0.00505
       9     C     3.16505  3.16505  0.00000 -0.33010
      10     H     0.41076  0.41076  0.00000  0.17848
      11     H     0.40842  0.40842  0.00000  0.18315
      12     C     3.15472  3.15472  0.00000 -0.30944
      13     H     0.41814  0.41814  0.00000  0.16373
      14     H     0.41525  0.41525  0.00000  0.16949
      15     C     3.24044  3.24044  0.00000 -0.48088
      16     H     0.42298  0.42298  0.00000  0.15405
      17     H     0.41126  0.41126  0.00000  0.17748
      18     H     0.41760  0.41760  0.00000  0.16480
      19     H     0.42171  0.42171  0.00000  0.15657
      20     H     0.42071  0.42071  0.00000  0.15858

   Total alpha = 32.00000, Total beta = 32.00000, Total charge =  0.00000
