                              Psi4 1.0.54 Driver

  ==> Input File <==

--------------------------------------------------------------------------
set {
	reference rhf
	basis cc-pvtz
}

set_num_threads( 4 )
memory 2 gb

molecule MOL {
0 1

H	 1.406810	 1.291171	 -3.074091
O	 1.978124	 1.325648	 -2.327677
C	 1.348791	 0.929911	 -1.207001
C	 2.079506	 0.932611	 -0.027523
C	 0.029104	 0.531497	 -1.199974
H	 3.104253	 1.246102	 -0.055351
C	 1.487975	 0.537709	 1.150397
H	 -0.557981	 0.519580	 -2.094673
C	 -0.532034	 0.141680	 0.000000
H	 2.060461	 0.543036	 2.057028
C	 0.163839	 0.133287	 1.182782
N	 -1.937041	 -0.281114	 0.000000
H	 -0.308488	 -0.175801	 2.089476
O	 -2.159542	 -1.446261	 0.000000
O	 -2.764978	 0.565773	 0.000000

	symmetry c1
}
set optking {
	frozen_dihedral = ("
		11 9 12 14
	")
}

ee,wfn = optimize('scf', return_wfn=True)
oeprop( wfn, 'DIPOLE', 'QUADRUPOLE', 'MULLIKEN_CHARGES')
f=open( 'psi4out.xyz', 'w' )
f.write( "15  " )
f.write( str(ee) + "\n" )
f.write( MOL.save_string_xyz() )
f.close()
--------------------------------------------------------------------------

    Molecular point group: c1
  Charge       = 0
  Multiplicity = 1
  Basis Set: CC-PVTZ
  Basis Set:
  @DF-RHF Final Energy:  -509.20967219434755
    Total Energy =                       -509.2096721943474904
    Molecular point group: c1
  Basis Set: CC-PVTZ
  Basis Set:
  Basis Set: CC-PVTZ
  Basis Set:
  @DF-RHF Final Energy:  -509.20449505630017
    Total Energy =                       -509.2044950562999475
  Basis Set: CC-PVTZ
  Basis Set:
  Basis Set: CC-PVTZ
  Basis Set:
  @DF-RHF Final Energy:  -509.20885195902952
    Total Energy =                       -509.2088519590294027
  Basis Set: CC-PVTZ
  Basis Set:
  Basis Set: CC-PVTZ
  Basis Set:
  @DF-RHF Final Energy:  -509.20988587010504
    Total Energy =                       -509.2098858701049267
  Basis Set: CC-PVTZ
  Basis Set:
  Basis Set: CC-PVTZ
  Basis Set:
  @DF-RHF Final Energy:  -509.20991046401400
    Total Energy =                       -509.2099104640133191
  Basis Set: CC-PVTZ
  Basis Set:
  Basis Set: CC-PVTZ
  Basis Set:
  @DF-RHF Final Energy:  -509.20996978476524
    Total Energy =                       -509.2099697847650077
  Basis Set: CC-PVTZ
  Basis Set:
  Charge       = 0
  Multiplicity = 1
  Basis Set: CC-PVTZ
  Basis Set:

    Orbital Energies (a.u.)
    -----------------------

    Doubly Occupied:

       1A    -20.610638     2A    -20.601099     3A    -20.600768
       4A    -15.851023     5A    -11.330834     6A    -11.314916
       7A    -11.265282     8A    -11.263922     9A    -11.257749
      10A    -11.250089    11A     -1.648536    12A     -1.443637
      13A     -1.431802    14A     -1.204622    15A     -1.096620
      16A     -1.050010    17A     -0.966818    18A     -0.887183
      19A     -0.834148    20A     -0.794030    21A     -0.768666
      22A     -0.741262    23A     -0.724687    24A     -0.712838
      25A     -0.672552    26A     -0.636133    27A     -0.623950
      28A     -0.596298    29A     -0.565775    30A     -0.550382
      31A     -0.538362    32A     -0.495745    33A     -0.487362
      34A     -0.461853    35A     -0.376439    36A     -0.346387

  @DF-RHF Final Energy:  -509.20996993656996

   => Energetics <=

    Nuclear Repulsion Energy =            503.8486372764902512
    One-Electron Energy =               -1694.1123740304929015
    Two-Electron Energy =                 681.0537668174324608
    DFT Exchange-Correlation Energy =       0.0000000000000000
    Empirical Dispersion Energy =           0.0000000000000000
    PCM Polarization Energy =               0.0000000000000000
    EFP Energy =                            0.0000000000000000
    Total Energy =                       -509.2099699365701326
    Molecular point group: c1
  Basis Set: CC-PVTZ
  Basis Set:

  -Total Gradient:
     Atom            X                  Y                   Z
    ------   -----------------  -----------------  -----------------
       1       -0.000001510275    -0.000001709441     0.000001301279
       2        0.000020210940     0.000001461271    -0.000021084344
       3       -0.000054324404     0.000025145194     0.000027404908
       4        0.000010719333    -0.000013117421     0.000009651482
       5        0.000031727489    -0.000010333902    -0.000023043819
       6       -0.000001547868     0.000000164066    -0.000002370743
       7        0.000014716558     0.000001913670    -0.000003542382
       8       -0.000001493691    -0.000000166554     0.000001823252
       9        0.000836857526    -0.003032118778    -0.001350296695
      10       -0.000003171214     0.000005326451     0.000001742886
      11       -0.000593158144     0.002050119344     0.000308509824
      12       -0.000259194533     0.001022556482     0.003507219511
      13       -0.000001238805     0.000001600134     0.000000487884
      14        0.000022027582    -0.000068641226    -0.002458906789
      15       -0.000020620490     0.000017800707     0.000001103745

  **** Optimization is complete! (in 7 steps) ****
    Final optimized geometry and variables:
    Molecular point group: c1

    Geometry (in Angstrom), charge = 0, multiplicity = 1:

    H            1.505729238700     0.928487070854    -2.793987088567
    O            2.074704003048     0.969624352556    -2.046214329955
    C            1.445370068886     0.588318432202    -0.923108517751
    C            2.172738589043     0.608970624806     0.258230568730
    C            0.122452565404     0.190919363188    -0.914211559488
    H            3.196098627458     0.925643035012     0.229524760960
    C            1.576891417274     0.229843797061     1.438521608278
    H           -0.465185956502     0.181805397237    -1.812000408033
    C           -0.428677614944    -0.193843477452     0.286714283596
    H            2.145110795407     0.253843889829     2.347780182596
    C            0.254094656014    -0.183216368302     1.472449185106
    N           -1.838444545746    -0.597597011022     0.288194616789
    H           -0.217765885353    -0.487141288782     2.384495001717
    O           -2.066680121264    -1.758798063360     0.315924472391
    O           -2.645285934752     0.267729408588     0.241231952141

  Mulliken Charges: (a.u.)
   Center  Symbol    Alpha    Beta     Spin     Total
       1     H     0.38450  0.38450  0.00000  0.23099
       2     O     4.16724  4.16724  0.00000 -0.33448
       3     C     2.84108  2.84108  0.00000  0.31784
       4     C     3.10952  3.10952  0.00000 -0.21904
       5     C     3.13795  3.13795  0.00000 -0.27590
       6     H     0.41434  0.41434  0.00000  0.17133
       7     C     3.04830  3.04830  0.00000 -0.09659
       8     H     0.42349  0.42349  0.00000  0.15301
       9     C     2.91933  2.91933  0.00000  0.16135
      10     H     0.41630  0.41630  0.00000  0.16741
      11     C     3.10627  3.10627  0.00000 -0.21254
      12     N     3.29187  3.29187  0.00000  0.41626
      13     H     0.41496  0.41496  0.00000  0.17009
      14     O     4.16198  4.16198  0.00000 -0.32396
      15     O     4.16289  4.16289  0.00000 -0.32577

   Total alpha = 36.00000, Total beta = 36.00000, Total charge = -0.00000

*** Psi4 exiting successfully. Buy a developer a beer!
