  ==> Input File <==

--------------------------------------------------------------------------
set {
	reference rhf
	basis cc-pvtz
}

set_num_threads( 4 )
memory 2 gb

molecule MOL {
0 1

H	 2.772440	 0.687662	 -0.469216
N	 2.326826	 -0.066186	 0.000000
C	 0.934676	 -0.005420	 0.000000
H	 2.701367	 -0.940621	 -0.286541
C	 0.226436	 -0.001077	 -1.195129
C	 0.226436	 -0.001077	 1.195129
H	 0.759091	 -0.011439	 -2.128123
C	 -1.153391	 0.009141	 -1.189028
H	 0.759091	 -0.011439	 2.128123
C	 -1.153391	 0.009141	 1.189028
H	 -1.680905	 0.012964	 -2.124348
C	 -1.857876	 0.014675	 0.000000
H	 -1.680905	 0.012964	 2.124348
H	 -2.930222	 0.022904	 0.000000

	symmetry c1
}
set optking {
	frozen_dihedral = ("
		1 2 3 5
	")
}

ee = optimize('scf')
oeprop('DIPOLE', 'QUADRUPOLE', 'MULLIKEN_CHARGES')
f=open( 'psi4out.xyz', 'w' )
f.write( "14  " )
f.write( str(ee) + "\n" )
f.write( MOL.save_string_xyz() )
f.close()
--------------------------------------------------------------------------

    Molecular point group: c1
  Charge       = 0
  Multiplicity = 1
  Basis Set: CC-PVTZ
  Basis Set:
  @DF-RHF Final Energy:  -285.82515544834342
    Total Energy =                       -285.8251554483431960
    Molecular point group: c1
  Basis Set: CC-PVTZ
  Basis Set:
  Basis Set: CC-PVTZ
  Basis Set:
  @DF-RHF Final Energy:  -285.82669275147595
    Total Energy =                       -285.8266927514759459
  Basis Set: CC-PVTZ
  Basis Set:
  Basis Set: CC-PVTZ
  Basis Set:
  @DF-RHF Final Energy:  -285.82707410014393
    Total Energy =                       -285.8270741001438182
  Basis Set: CC-PVTZ
  Basis Set:
  Basis Set: CC-PVTZ
  Basis Set:
  @DF-RHF Final Energy:  -285.82710847907845
    Total Energy =                       -285.8271084790783902
  Basis Set: CC-PVTZ
  Basis Set:
  Basis Set: CC-PVTZ
  Basis Set:
  @DF-RHF Final Energy:  -285.82710999557827
    Total Energy =                       -285.8271099955785530
  Basis Set: CC-PVTZ
  Basis Set:
  Charge       = 0
  Multiplicity = 1
  Basis Set: CC-PVTZ
  Basis Set:

    Orbital Energies (a.u.)
    -----------------------

    Doubly Occupied:

       1A    -15.541905     2A    -11.259259     3A    -11.228600
       4A    -11.226944     5A    -11.224340     6A    -11.224140
       7A    -11.219707     8A     -1.209189     9A     -1.131783
      10A     -1.016046    11A     -0.990377    12A     -0.830641
      13A     -0.810813    14A     -0.705921    15A     -0.663108
      16A     -0.648899    17A     -0.631789    18A     -0.593953
      19A     -0.585894    20A     -0.508931    21A     -0.499176
      22A     -0.497395    23A     -0.411118    24A     -0.336386
      25A     -0.329968

  @DF-RHF Final Energy:  -285.82711014427730

   => Energetics <=

    Nuclear Repulsion Energy =            272.9238063252770417
    One-Electron Energy =                -926.8492728430718444
    Two-Electron Energy =                 368.0983563735172197
    DFT Exchange-Correlation Energy =       0.0000000000000000
    Empirical Dispersion Energy =           0.0000000000000000
    PCM Polarization Energy =               0.0000000000000000
    EFP Energy =                            0.0000000000000000
    Total Energy =                       -285.8271101442775830
    Molecular point group: c1
  Basis Set: CC-PVTZ
  Basis Set:

  -Total Gradient:
     Atom            X                  Y                   Z
    ------   -----------------  -----------------  -----------------
       1       -0.000000118440     0.000003024466    -0.000001103806
       2       -0.000012851184    -0.000004281284    -0.000005595660
       3       -0.000013626936     0.000013213408     0.000029949587
       4        0.000002211174    -0.000001773322     0.000001094009
       5        0.000010786872    -0.000019620966    -0.000026432589
       6        0.000009264904     0.000002444143     0.000000640502
       7       -0.000006046567    -0.000001864668     0.000009758038
       8        0.000013642112     0.000033743572     0.000003627631
       9       -0.000004827585    -0.000004912315    -0.000001443313
      10        0.000022065990     0.000006628122    -0.000014656697
      11       -0.000008245167    -0.000002562826    -0.000005839591
      12       -0.000017571706    -0.000026342737     0.000004362183
      13       -0.000002237657     0.000002651798     0.000007195506
      14        0.000007554191    -0.000000347391    -0.000001555798

  **** Optimization is complete! (in 6 steps) ****
    Final optimized geometry and variables:
    Molecular point group: c1

    Geometry (in Angstrom), charge = 0, multiplicity = 1:

    H            2.752636658544     0.736123543546    -0.404181714323
    N            2.355021831850    -0.056635711330     0.053615005761
    C            0.925177063907    -0.022332880731     0.003618755616
    H            2.713648950210    -0.873924754336    -0.393109740535
    C            0.221797422597    -0.013813337197    -1.191663563825
    C            0.222432814587     0.003105046404     1.194282729529
    H            0.759810315886    -0.033447974471    -2.121472144274
    C           -1.159068184315     0.019677957037    -1.194235859968
    H            0.771255610530    -0.003713689877     2.115424864590
    C           -1.160457956152     0.036517318635     1.193204789825
    H           -1.690116115398     0.025898032653    -2.127185951413
    C           -1.855645333929     0.044814583292    -0.000047862613
    H           -1.692520771774     0.055977328379     2.125337504493
    H           -2.928459530907     0.070712407825    -0.001185681219

  Mulliken Charges: (a.u.)
   Center  Symbol    Alpha    Beta     Spin     Total
       1     H     0.42272  0.42272  0.00000  0.15455
       2     N     3.70089  3.70089  0.00000 -0.40178
       3     C     2.90899  2.90899  0.00000  0.18202
       4     H     0.42272  0.42272  0.00000  0.15456
       5     C     3.11442  3.11442  0.00000 -0.22883
       6     C     3.09418  3.09418  0.00000 -0.18837
       7     H     0.42563  0.42563  0.00000  0.14873
       8     C     3.07326  3.07326  0.00000 -0.14651
       9     H     0.41653  0.41653  0.00000  0.16695
      10     C     3.06628  3.06628  0.00000 -0.13257
      11     H     0.42359  0.42359  0.00000  0.15283
      12     C     3.08411  3.08411  0.00000 -0.16821
      13     H     0.42305  0.42305  0.00000  0.15389
      14     H     0.42363  0.42363  0.00000  0.15274

   Total alpha = 25.00000, Total beta = 25.00000, Total charge = -0.00000
