                              Psi4 1.0.54 Driver

  ==> Input File <==

--------------------------------------------------------------------------
set {
	reference rhf
	basis cc-pvtz
}

set_num_threads( 4 )
memory 2 gb

molecule MOL {
0 1

H	 2.614283	 2.028610	 0.296620
O	 3.358864	 1.662087	 -0.142800
C	 3.565468	 0.338079	 0.273842
C	 2.533667	 -0.637565	 -0.272227
H	 4.548038	 0.064914	 -0.086598
H	 3.593945	 0.282242	 1.360360
C	 2.126614	 -1.734425	 0.709128
H	 1.655842	 -0.076454	 -0.578389
H	 2.946273	 -1.092707	 -1.169445
C	 1.114952	 -2.713431	 0.115055
H	 1.708856	 -1.280278	 1.601446
H	 3.012591	 -2.283825	 1.022960
C	 0.727219	 -3.876627	 1.029873
H	 0.218697	 -2.169457	 -0.173123
H	 1.528266	 -3.121892	 -0.802986
C	 -0.061924	 -3.482908	 2.277263
H	 0.133173	 -4.580333	 0.453301
H	 1.625226	 -4.413631	 1.327134
C	 -0.510337	 -4.684982	 3.104520
H	 -0.936014	 -2.907123	 1.980773
H	 0.534581	 -2.828542	 2.905744
C	 -1.295286	 -4.295283	 4.352672
H	 -1.119179	 -5.338895	 2.486227
H	 0.361143	 -5.265975	 3.394402
H	 -2.190908	 -3.740023	 4.094242
H	 -1.600146	 -5.170735	 4.914589
H	 -0.699912	 -3.671151	 5.010959

	symmetry c1
}
set optking {
	frozen_dihedral = ("
		8 4 3 2
	")
}

ee,wfn = optimize('scf', return_wfn=True)
oeprop( wfn, 'DIPOLE', 'QUADRUPOLE', 'MULLIKEN_CHARGES')
f=open( 'psi4out.xyz', 'w' )
f.write( "27  " )
f.write( str(ee) + "\n" )
f.write( MOL.save_string_xyz() )
f.close()
--------------------------------------------------------------------------

    Molecular point group: c1
  Charge       = 0
  Multiplicity = 1
  Basis Set: CC-PVTZ
  Basis Set:
  @DF-RHF Final Energy:  -388.42318556964710
    Total Energy =                       -388.4231855696469893
    Molecular point group: c1
  Basis Set: CC-PVTZ
  Basis Set:
  Basis Set: CC-PVTZ
  Basis Set:
  @DF-RHF Final Energy:  -388.42364348005179
    Total Energy =                       -388.4236434800517372
  Basis Set: CC-PVTZ
  Basis Set:
  Basis Set: CC-PVTZ
  Basis Set:
  @DF-RHF Final Energy:  -388.42371958279108
    Total Energy =                       -388.4237195827913638
  Basis Set: CC-PVTZ
  Basis Set:
  Basis Set: CC-PVTZ
  Basis Set:
  @DF-RHF Final Energy:  -388.42372605473037
    Total Energy =                       -388.4237260547308779
  Basis Set: CC-PVTZ
  Basis Set:
  Charge       = 0
  Multiplicity = 1
  Basis Set: CC-PVTZ
  Basis Set:

    Orbital Energies (a.u.)
    -----------------------

    Doubly Occupied:

       1A    -20.544568     2A    -11.264973     3A    -11.216935
       4A    -11.214611     5A    -11.214143     6A    -11.213945
       7A    -11.213171     8A    -11.211919     9A    -11.207492
      10A     -1.362706    11A     -1.096491    12A     -1.062952
      13A     -1.011723    14A     -0.946171    15A     -0.885363
      16A     -0.824887    17A     -0.805298    18A     -0.779237
      19A     -0.690226    20A     -0.651359    21A     -0.644623
      22A     -0.608647    23A     -0.605762    24A     -0.586860
      25A     -0.573971    26A     -0.555112    27A     -0.546161
      28A     -0.523760    29A     -0.511187    30A     -0.501841
      31A     -0.482634    32A     -0.475998    33A     -0.464181
      34A     -0.460388    35A     -0.451370    36A     -0.443685
      37A     -0.424580

  @DF-RHF Final Energy:  -388.42372628057467

   => Energetics <=

    Nuclear Repulsion Energy =            454.3911963264539509
    One-Electron Energy =               -1427.0720013810357614
    Two-Electron Energy =                 584.2570787740073683
    DFT Exchange-Correlation Energy =       0.0000000000000000
    Empirical Dispersion Energy =           0.0000000000000000
    PCM Polarization Energy =               0.0000000000000000
    EFP Energy =                            0.0000000000000000
    Total Energy =                       -388.4237262805744422
    Molecular point group: c1
  Basis Set: CC-PVTZ
  Basis Set:

  -Total Gradient:
     Atom            X                  Y                   Z
    ------   -----------------  -----------------  -----------------
       1       -0.000001662827     0.000014220515    -0.000006141354
       2       -0.002026448917     0.000622672995     0.002799927946
       3        0.003173818916    -0.000786408417    -0.004666797600
       4       -0.002913861527    -0.000323263009     0.005945750300
       5       -0.000010374513     0.000011138585    -0.000007473107
       6        0.000003834377     0.000037262076     0.000009069232
       7        0.000020004677     0.000007851937    -0.000063267916
       8        0.001739280325     0.000409663230    -0.004018335839
       9        0.000006036462    -0.000006344108    -0.000012828906
      10       -0.000035286494     0.000004071806     0.000029020071
      11        0.000020138862     0.000006970464    -0.000016222196
      12        0.000022319359    -0.000004930135    -0.000006118467
      13       -0.000000175557     0.000012788470     0.000009850309
      14       -0.000003426405     0.000005997375    -0.000003405344
      15       -0.000001775053     0.000000718506     0.000007002540
      16        0.000010144095    -0.000007015628     0.000007825220
      17        0.000006410282    -0.000001224248    -0.000003972625
      18        0.000004962520     0.000005114067     0.000007480965
      19       -0.000006530184     0.000000229439    -0.000006448938
      20        0.000002591974     0.000004629078     0.000000742170
      21       -0.000002832777    -0.000012513073    -0.000001597168
      22       -0.000005847049    -0.000000808422    -0.000003606718
      23       -0.000000056206    -0.000006026393     0.000000174293
      24       -0.000000412838     0.000005337828     0.000000046270
      25       -0.000001026767     0.000000754410     0.000001308609
      26       -0.000000995240    -0.000000166607    -0.000000316915
      27        0.000001170508    -0.000000720741    -0.000001664830

  **** Optimization is complete! (in 5 steps) ****
    Final optimized geometry and variables:
    Molecular point group: c1

    Geometry (in Angstrom), charge = 0, multiplicity = 1:

    H            1.263046959396     4.081556639835    -1.090147105415
    O            2.085432603591     3.754463491744    -1.405725453758
    C            2.261929880833     2.429168730249    -0.981635527065
    C            1.209649198698     1.464037398503    -1.540853174508
    H            3.253754975648     2.142067136887    -1.301264709853
    H            2.254401135084     2.389852907986     0.105598343137
    C            0.802737241753     0.367240069543    -0.562421780819
    H            0.345443942458     2.039896386888    -1.860078191278
    H            1.589776451020     1.010769748327    -2.451800299646
    C           -0.199611985434    -0.620156653932    -1.156431953881
    H            0.390600046935     0.826881600369     0.330425104168
    H            1.690307570983    -0.175262262886    -0.242820183894
    C           -0.580638661164    -1.783865070089    -0.239413190552
    H           -1.099721932217    -0.084219363474    -1.448897085206
    H            0.218761853848    -1.027798498034    -2.072311098202
    C           -1.372805559087    -1.392625785427     1.006753864000
    H           -1.169759595264    -2.492707652878    -0.814648071746
    H            0.320717006284    -2.314066132150     0.059497342655
    C           -1.814673616194    -2.595667505219     1.836003824182
    H           -2.250479927136    -0.823089536706     0.708401202403
    H           -0.780514866752    -0.733532639283     1.634097948803
    C           -2.603341920913    -2.208353902949     3.082487184163
    H           -2.418638284597    -3.254826866779     1.218521956534
    H           -0.939836049971    -3.170291753111     2.128098762977
    H           -3.502673803416    -1.660078689228     2.821942586536
    H           -2.902617846280    -3.084425794133     3.646353374148
    H           -2.012823083913    -1.578497024580     3.739627202997

  Mulliken Charges: (a.u.)
   Center  Symbol    Alpha    Beta     Spin     Total
       1     H     0.39488  0.39488  0.00000  0.21024
       2     O     4.20233  4.20233  0.00000 -0.40466
       3     C     2.96955  2.96955  0.00000  0.06089
       4     C     3.09971  3.09971  0.00000 -0.19942
       5     H     0.45250  0.45250  0.00000  0.09500
       6     H     0.47196  0.47196  0.00000  0.05608
       7     C     3.09945  3.09945  0.00000 -0.19889
       8     H     0.45406  0.45406  0.00000  0.09189
       9     H     0.45178  0.45178  0.00000  0.09645
      10     C     3.10023  3.10023  0.00000 -0.20046
      11     H     0.45329  0.45329  0.00000  0.09343
      12     H     0.45268  0.45268  0.00000  0.09463
      13     C     3.09783  3.09783  0.00000 -0.19566
      14     H     0.45289  0.45289  0.00000  0.09421
      15     H     0.44688  0.44688  0.00000  0.10624
      16     C     3.08806  3.08806  0.00000 -0.17611
      17     H     0.44808  0.44808  0.00000  0.10384
      18     H     0.45347  0.45347  0.00000  0.09306
      19     C     3.08400  3.08400  0.00000 -0.16799
      20     H     0.45535  0.45535  0.00000  0.08930
      21     H     0.45392  0.45392  0.00000  0.09217
      22     C     3.14975  3.14975  0.00000 -0.29949
      23     H     0.45387  0.45387  0.00000  0.09226
      24     H     0.45443  0.45443  0.00000  0.09114
      25     H     0.45529  0.45529  0.00000  0.08942
      26     H     0.44821  0.44821  0.00000  0.10358
      27     H     0.45557  0.45557  0.00000  0.08886

   Total alpha = 37.00000, Total beta = 37.00000, Total charge = -0.00000

*** Psi4 exiting successfully. Buy a developer a beer!
