                              Psi4 1.0.54 Driver

  ==> Input File <==

--------------------------------------------------------------------------
set {
	reference rhf
	basis cc-pvtz
}

set_num_threads( 4 )
memory 2 gb

molecule MOL {
0 1

H	 -1.052811	 -0.917523	 -0.287107
N	 -0.712187	 0.000026	 -0.093397
C	 0.734067	 -0.000020	 0.038424
H	 -1.147465	 0.302816	 0.751763
H	 1.140372	 -0.872115	 -0.458226
H	 1.140363	 0.872301	 -0.457869
H	 1.095085	 -0.000244	 1.065614

	symmetry c1
}
set optking {
	frozen_dihedral = ("
		1 2 3 7
	")
}

ee,wfn = optimize('scf', return_wfn=True)
oeprop( wfn, 'DIPOLE', 'QUADRUPOLE', 'MULLIKEN_CHARGES')
f=open( 'psi4out.xyz', 'w' )
f.write( "7  " )
f.write( str(ee) + "\n" )
f.write( MOL.save_string_xyz() )
f.close()
--------------------------------------------------------------------------

    Molecular point group: c1
  Charge       = 0
  Multiplicity = 1
  Basis Set: CC-PVTZ
  Basis Set:
  @DF-RHF Final Energy:   -95.25099687061012
    Total Energy =                        -95.2509968706101944
    Molecular point group: c1
  Basis Set: CC-PVTZ
  Basis Set:
  Basis Set: CC-PVTZ
  Basis Set:
  @DF-RHF Final Energy:   -95.25116348733957
    Total Energy =                        -95.2511634873395678
  Basis Set: CC-PVTZ
  Basis Set:
  Basis Set: CC-PVTZ
  Basis Set:
  @DF-RHF Final Energy:   -95.25129836275084
    Total Energy =                        -95.2512983627509016
  Basis Set: CC-PVTZ
  Basis Set:
  Basis Set: CC-PVTZ
  Basis Set:
  @DF-RHF Final Energy:   -95.25130309613843
    Total Energy =                        -95.2513030961384572
  Basis Set: CC-PVTZ
  Basis Set:
  Charge       = 0
  Multiplicity = 1
  Basis Set: CC-PVTZ
  Basis Set:

    Orbital Energies (a.u.)
    -----------------------

    Doubly Occupied:

       1A    -15.525791     2A    -11.235450     3A     -1.169092
       4A     -0.897633     5A     -0.667761     6A     -0.599628
       7A     -0.560555     8A     -0.519366     9A     -0.381505

  @DF-RHF Final Energy:   -95.25130363659008

   => Energetics <=

    Nuclear Repulsion Energy =             42.3397242621583700
    One-Electron Energy =                -212.0684985039156629
    Two-Electron Energy =                  74.4774706051671842
    DFT Exchange-Correlation Energy =       0.0000000000000000
    Empirical Dispersion Energy =           0.0000000000000000
    PCM Polarization Energy =               0.0000000000000000
    EFP Energy =                            0.0000000000000000
    Total Energy =                        -95.2513036365901087
    Molecular point group: c1
  Basis Set: CC-PVTZ
  Basis Set:

  -Total Gradient:
     Atom            X                  Y                   Z
    ------   -----------------  -----------------  -----------------
       1        0.000212520641     0.000183610012    -0.002531248436
       2       -0.000368337163     0.000401361454     0.003070568608
       3        0.000146112759    -0.002933275804    -0.000323440871
       4        0.000010722486     0.000018110017     0.000009664844
       5       -0.000029825382     0.000000642889    -0.000002427792
       6        0.000005407111     0.000001746970    -0.000009774140
       7        0.000023399547     0.002327804463    -0.000213342213

  **** Optimization is complete! (in 5 steps) ****
    Final optimized geometry and variables:
    Molecular point group: c1

    Geometry (in Angstrom), charge = 0, multiplicity = 1:

    H           -1.075327320489    -0.907449450603    -0.191291737959
    N           -0.713468318155     0.013524847468    -0.086978277851
    C            0.735931953453     0.017821272111     0.043469150364
    H           -1.165087144439     0.444661922421     0.688022355667
    H            1.152244894783    -0.895827234181    -0.360760578763
    H            1.162909197617     0.842804794691    -0.515809749483
    H            1.075823397714     0.115696165676     1.070766642327

  Mulliken Charges: (a.u.)
   Center  Symbol    Alpha    Beta     Spin     Total
       1     H     0.42604  0.42604  0.00000  0.14792
       2     N     3.69068  3.69068  0.00000 -0.38136
       3     C     3.06847  3.06847  0.00000 -0.13694
       4     H     0.42681  0.42681  0.00000  0.14638
       5     H     0.45951  0.45951  0.00000  0.08099
       6     H     0.46052  0.46052  0.00000  0.07896
       7     H     0.46797  0.46797  0.00000  0.06405

   Total alpha =  9.00000, Total beta =  9.00000, Total charge =  0.00000

*** Psi4 exiting successfully. Buy a developer a beer!
