  ==> Input File <==

--------------------------------------------------------------------------
set {
	reference rhf
	basis 6-31G*
}

set_num_threads( 4 )
memory 2 gb

molecule MOL {
0 1

H	 -0.517265	 1.627587	 -1.995276
C	 -1.230990	 1.193765	 -1.301333
O	 -0.774054	 0.001095	 -0.743181
H	 -2.132068	 0.951894	 -1.848952
H	 -1.479227	 1.935949	 -0.548516
C	 0.406953	 0.000033	 0.038965
C	 1.527284	 -0.003667	 -0.998752
C	 0.498933	 1.262172	 0.902524
C	 0.494271	 -1.259566	 0.906664
H	 1.452513	 0.873252	 -1.631882
H	 1.448863	 -0.881882	 -1.629595
H	 2.502020	 -0.005104	 -0.521731
H	 0.364280	 2.147110	 0.289513
H	 1.472180	 1.321775	 1.378800
H	 -0.247853	 1.275162	 1.689097
H	 0.356778	 -2.146106	 0.296587
H	 1.467182	 -1.320941	 1.383330
H	 -0.252763	 -1.267328	 1.693119

	symmetry c1
}
set optking {
	frozen_dihedral = ("
		2 3 6 7
	")
}

ee = optimize('scf')
oeprop('DIPOLE', 'QUADRUPOLE', 'MULLIKEN_CHARGES')
f=open( 'psi4out.xyz', 'w' )
f.write( "18  " )
f.write( str(ee) + "\n" )
f.write( MOL.save_string_xyz() )
f.close()
--------------------------------------------------------------------------

    Molecular point group: c1
  Charge       = 0
  Multiplicity = 1
  Basis Set: 6-31G*
  Basis Set:
  @DF-RHF Final Energy:  -271.16811729134668
    Total Energy =                       -271.1681172913466185
    Molecular point group: c1
  Basis Set: 6-31G*
  Basis Set:
  Basis Set: 6-31G*
  Basis Set:
  @DF-RHF Final Energy:  -271.17242932590381
    Total Energy =                       -271.1724293259040905
  Basis Set: 6-31G*
  Basis Set:
  Basis Set: 6-31G*
  Basis Set:
  @DF-RHF Final Energy:  -271.17497118362530
    Total Energy =                       -271.1749711836254164
  Basis Set: 6-31G*
  Basis Set:
  Basis Set: 6-31G*
  Basis Set:
  @DF-RHF Final Energy:  -271.17498795223383
    Total Energy =                       -271.1749879522338915
  Basis Set: 6-31G*
  Basis Set:
  @DF-RHF Final Energy:  -271.17506063634727
    Total Energy =                       -271.1750606363471547
  Basis Set: 6-31G*
  Basis Set:
  @DF-RHF Final Energy:  -271.17507432855837
    Total Energy =                       -271.1750743285583098
  Basis Set: 6-31G*
  Basis Set:
  Basis Set: 6-31G*
  Basis Set:
  @DF-RHF Final Energy:  -271.17506787504533
    Total Energy =                       -271.1750678750452153
  Basis Set: 6-31G*
  Basis Set:
  Basis Set: 6-31G*
  Basis Set:
  @DF-RHF Final Energy:  -271.17507694622856
    Total Energy =                       -271.1750769462288417
  Basis Set: 6-31G*
  Basis Set:
  Charge       = 0
  Multiplicity = 1
  Basis Set: 6-31G*
  Basis Set:

    Orbital Energies (a.u.)
    -----------------------

    Doubly Occupied:

       1A    -20.546481     2A    -11.281261     3A    -11.261130
       4A    -11.211311     5A    -11.206413     6A    -11.203144
       7A     -1.369790     8A     -1.073099     9A     -0.947857
      10A     -0.937930    11A     -0.912185    12A     -0.752223
      13A     -0.655602    14A     -0.645079    15A     -0.637714
      16A     -0.590549    17A     -0.573880    18A     -0.552339
      19A     -0.535120    20A     -0.524559    21A     -0.514774
      22A     -0.489520    23A     -0.485576    24A     -0.439967
      25A     -0.402511

  @DF-RHF Final Energy:  -271.17507703047738

   => Energetics <=

    Nuclear Repulsion Energy =            272.3282752995313558
    One-Electron Energy =                -907.5066721263650606
    Two-Electron Energy =                 364.0033197963563794
    DFT Exchange-Correlation Energy =       0.0000000000000000
    Empirical Dispersion Energy =           0.0000000000000000
    PCM Polarization Energy =               0.0000000000000000
    EFP Energy =                            0.0000000000000000
    Total Energy =                       -271.1750770304773255
    Molecular point group: c1
  Basis Set: 6-31G*
  Basis Set:

  -Total Gradient:
     Atom            X                  Y                   Z
    ------   -----------------  -----------------  -----------------
       1        0.000000574739     0.000005000984    -0.000000482312
       2       -0.000806120524     0.000364842319     0.001476636185
       3        0.001215951565    -0.001112319668    -0.002154489778
       4        0.000002988800    -0.000000188355    -0.000000344762
       5        0.000000922715     0.000005701208     0.000000855932
       6       -0.000484771277     0.002179158567     0.000583102425
       7        0.000014547457    -0.001456512897     0.000126191841
       8        0.000027313873     0.000002243661    -0.000000880917
       9        0.000021486817    -0.000005841715    -0.000022983054
      10       -0.000008612636     0.000002315624     0.000014213698
      11       -0.000004896217     0.000003801092    -0.000003398150
      12        0.000006147712    -0.000006076489     0.000001990993
      13       -0.000000011922     0.000012198434    -0.000003214275
      14        0.000004166214     0.000009239443     0.000007404400
      15        0.000001471161    -0.000012739232    -0.000014027957
      16       -0.000005316530    -0.000003045368     0.000003080552
      17        0.000011885848    -0.000007333236     0.000000448278
      18        0.000002272204     0.000019555627    -0.000014103096

  **** Optimization is complete! (in 9 steps) ****
    Final optimized geometry and variables:
    Molecular point group: c1

    Geometry (in Angstrom), charge = 0, multiplicity = 1:

    H           -0.753305570014     1.400426457330    -1.724069891341
    C           -1.459268626666     0.918049325141    -1.053115707586
    O           -0.939445361675    -0.233443626349    -0.464828745837
    H           -2.319365583780     0.608733775867    -1.631974296872
    H           -1.786252580544     1.643997440594    -0.315061172364
    C            0.303765891986    -0.171119243000     0.213814148163
    C            1.445154898234    -0.217477297603    -0.806289723351
    C            0.417363591335     1.064963466861     1.110172443923
    C            0.321766970529    -1.435900865446     1.070117798123
    H            1.444639706504     0.657967454665    -1.447777982640
    H            1.345308704554    -1.095770625058    -1.434101713270
    H            2.408425290345    -0.258054184651    -0.307397870855
    H            0.469582350560     1.984705217724     0.537455432488
    H            1.319491301717     1.003238705757     1.709522097281
    H           -0.430956545356     1.128631387319     1.783805050277
    H            0.188619759457    -2.310568570587     0.443713737011
    H            1.261278122442    -1.533186791015     1.604842188259
    H           -0.487324991700    -1.412616056182     1.791645030962

  Mulliken Charges: (a.u.)
   Center  Symbol    Alpha    Beta     Spin     Total
       1     H     0.43163  0.43163  0.00000  0.13673
       2     C     3.07886  3.07886  0.00000 -0.15772
       3     O     4.31955  4.31955  0.00000 -0.63910
       4     H     0.41270  0.41270  0.00000  0.17460
       5     H     0.42775  0.42775  0.00000  0.14450
       6     C     2.84267  2.84267  0.00000  0.31465
       7     C     3.23969  3.23969  0.00000 -0.47938
       8     C     3.25325  3.25325  0.00000 -0.50649
       9     C     3.23277  3.23277  0.00000 -0.46555
      10     H     0.42133  0.42133  0.00000  0.15734
      11     H     0.41340  0.41340  0.00000  0.17321
      12     H     0.42274  0.42274  0.00000  0.15451
      13     H     0.41870  0.41870  0.00000  0.16260
      14     H     0.41690  0.41690  0.00000  0.16619
      15     H     0.41370  0.41370  0.00000  0.17260
      16     H     0.41319  0.41319  0.00000  0.17363
      17     H     0.42532  0.42532  0.00000  0.14937
      18     H     0.41585  0.41585  0.00000  0.16830

   Total alpha = 25.00000, Total beta = 25.00000, Total charge =  0.00000
