  ==> Input File <==

--------------------------------------------------------------------------
set {
	reference rhf
	basis 6-31G*
}

set_num_threads( 4 )
memory 2 gb

molecule MOL {
0 1

H	 -2.646374	 -0.642757	 1.268656
C	 -2.083525	 -0.384536	 0.393091
O	 -0.807605	 -0.127164	 0.768327
F	 -2.118945	 -1.383102	 -0.486752
F	 -2.621877	 0.670592	 -0.209486
C	 0.084052	 0.273579	 -0.209957
C	 1.353033	 -0.546803	 -0.018071
Cl	 0.433844	 2.004619	 -0.074457
H	 -0.288836	 0.092657	 -1.202930
F	 1.494463	 -0.885655	 1.245779
F	 2.390522	 0.189504	 -0.362902
F	 1.354353	 -1.634436	 -0.749525

	symmetry c1
}
set optking {
	frozen_dihedral = ("
		10 7 6 9
	")
}

ee = optimize('scf')
oeprop('DIPOLE', 'QUADRUPOLE', 'MULLIKEN_CHARGES')
f=open( 'psi4out.xyz', 'w' )
f.write( "12  " )
f.write( str(ee) + "\n" )
f.write( MOL.save_string_xyz() )
f.close()
--------------------------------------------------------------------------

    Molecular point group: c1
  Charge       = 0
  Multiplicity = 1
  Basis Set: 6-31G*
  Basis Set:
  @DF-RHF Final Energy: -1146.30647407345600
    Total Energy =                      -1146.3064740734566840
    Molecular point group: c1
  Basis Set: 6-31G*
  Basis Set:
  Basis Set: 6-31G*
  Basis Set:
  @DF-RHF Final Energy: -1146.30815765943930
    Total Energy =                      -1146.3081576594399849
  Basis Set: 6-31G*
  Basis Set:
  Basis Set: 6-31G*
  Basis Set:
  @DF-RHF Final Energy: -1146.30967343946941
    Total Energy =                      -1146.3096734394684972
  Basis Set: 6-31G*
  Basis Set:
  Basis Set: 6-31G*
  Basis Set:
  @DF-RHF Final Energy: -1146.30981779692775
    Total Energy =                      -1146.3098177969286553
  Basis Set: 6-31G*
  Basis Set:
  @DF-RHF Final Energy: -1146.30983064252086
    Total Energy =                      -1146.3098306425208648
  @DF-RHF Final Energy: -1146.30983407762983
    Total Energy =                      -1146.3098340776307396
  @DF-RHF Final Energy: -1146.30983689390587
    Total Energy =                      -1146.3098368939054126
  @DF-RHF Final Energy: -1146.30983796487862
    Total Energy =                      -1146.3098379648790797
  @DF-RHF Final Energy: -1146.30977303685836
    Total Energy =                      -1146.3097730368581324
  Basis Set: 6-31G*
  Basis Set:
  @DF-RHF Final Energy: -1146.30983817504989
    Total Energy =                      -1146.3098381750501176
  Basis Set: 6-31G*
  Basis Set:
  Basis Set: 6-31G*
  Basis Set:
  @DF-RHF Final Energy: -1146.30983387058927
    Total Energy =                      -1146.3098338705895003
  Basis Set: 6-31G*
  Basis Set:
  Basis Set: 6-31G*
  Basis Set:
  @DF-RHF Final Energy: -1146.30983818149525
    Total Energy =                      -1146.3098381814950244
  Basis Set: 6-31G*
  Basis Set:
  Charge       = 0
  Multiplicity = 1
  Basis Set: 6-31G*
  Basis Set:

    Orbital Energies (a.u.)
    -----------------------

    Doubly Occupied:

       1A   -104.844541     2A    -26.361454     3A    -26.357085
       4A    -26.355716     5A    -26.345566     6A    -26.345308
       7A    -20.647919     8A    -11.528661     9A    -11.488405
      10A    -11.401203    11A    -10.579231    12A     -8.048595
      13A     -8.045023    14A     -8.044981    15A     -1.761251
      16A     -1.716815    17A     -1.659311    18A     -1.652992
      19A     -1.637548    20A     -1.484076    21A     -1.178916
      22A     -1.051281    23A     -0.985348    24A     -0.918983
      25A     -0.858194    26A     -0.851514    27A     -0.845217
      28A     -0.823250    29A     -0.810243    30A     -0.790313
      31A     -0.726064    32A     -0.723076    33A     -0.704874
      34A     -0.701731    35A     -0.677856    36A     -0.673889
      37A     -0.657557    38A     -0.656834    39A     -0.646448
      40A     -0.631730    41A     -0.596655    42A     -0.580036
      43A     -0.523504    44A     -0.476222    45A     -0.469527

  @DF-RHF Final Energy: -1146.30983787306059

   => Energetics <=

    Nuclear Repulsion Energy =            736.7736905276774451
    One-Electron Energy =               -3056.4371693339671765
    Two-Electron Energy =                1173.3536409332277799
    DFT Exchange-Correlation Energy =       0.0000000000000000
    Empirical Dispersion Energy =           0.0000000000000000
    PCM Polarization Energy =               0.0000000000000000
    EFP Energy =                            0.0000000000000000
    Total Energy =                      -1146.3098378730619515
    Molecular point group: c1
  Basis Set: 6-31G*
  Basis Set:

  -Total Gradient:
     Atom            X                  Y                   Z
    ------   -----------------  -----------------  -----------------
       1       -0.000008782847    -0.000001017679     0.000000708001
       2        0.000102309117    -0.000012115596     0.000080182761
       3       -0.000045849044     0.000025359548     0.000024799907
       4       -0.000018325147    -0.000002618284    -0.000030911635
       5       -0.000005795639     0.000030871864    -0.000035431992
       6        0.003628741374     0.004886932085    -0.003577865070
       7        0.003124612191     0.006013838761     0.001815042265
       8       -0.000000833933     0.000071034538    -0.000042447528
       9       -0.003845303728    -0.005467809808     0.002705664649
      10       -0.003069848060    -0.005330928514    -0.000877325864
      11       -0.000028258406    -0.000160430570    -0.000023747629
      12        0.000167334142    -0.000053116338    -0.000038667859

  **** Optimization is complete! (in 13 steps) ****
    Final optimized geometry and variables:
    Molecular point group: c1

    Geometry (in Angstrom), charge = 0, multiplicity = 1:

    H           -2.645816533409    -0.695383567492     1.227285097675
    C           -2.078850135282    -0.405595364202     0.364314762302
    O           -0.805135191525    -0.163403173756     0.754773429245
    F           -2.110137314019    -1.373850447335    -0.550234080098
    F           -2.617027430687     0.668465057422    -0.203842304308
    C            0.092971641655     0.279918018690    -0.204873775765
    C            1.380578734401    -0.532335484792    -0.004986254567
    CL           0.367356946859     2.018795902808    -0.048658454717
    H           -0.285051574756     0.063504106324    -1.188091417059
    F            1.572585552988    -0.851154674216     1.251421138892
    F            2.441510014192     0.089276978666    -0.459347141169
    F            1.252557518951    -1.661861931241    -0.683523620667

  Mulliken Charges: (a.u.)
   Center  Symbol    Alpha    Beta     Spin     Total
       1     H     0.40138  0.40138  0.00000  0.19724
       2     C     2.56636  2.56636  0.00000  0.86727
       3     O     4.29715  4.29715  0.00000 -0.59429
       4     F     4.68678  4.68678  0.00000 -0.37357
       5     F     4.68402  4.68402  0.00000 -0.36804
       6     C     3.05797  3.05797  0.00000 -0.11595
       7     C     2.42950  2.42950  0.00000  1.14100
       8    CL     8.49607  8.49607  0.00000  0.00786
       9     H     0.36541  0.36541  0.00000  0.26917
      10     F     4.66723  4.66723  0.00000 -0.33446
      11     F     4.66900  4.66900  0.00000 -0.33799
      12     F     4.67913  4.67913  0.00000 -0.35825

   Total alpha = 45.00000, Total beta = 45.00000, Total charge = -0.00000
