  ==> Input File <==

--------------------------------------------------------------------------
set {
	reference rhf
	basis cc-pvtz
}

set_num_threads( 4 )
memory 2 gb

molecule MOL {
0 1

H	 -0.984197	 -0.161565	 -1.039623
N	 -0.712187	 0.000026	 -0.093397
C	 0.734067	 -0.000020	 0.038424
H	 -1.120694	 -0.724446	 0.457698
H	 1.140372	 -0.872115	 -0.458226
H	 1.140363	 0.872301	 -0.457869
H	 1.095085	 -0.000244	 1.065614

	symmetry c1
}
set optking {
	frozen_dihedral = ("
		1 2 3 7
	")
}

ee = optimize('scf')
oeprop('DIPOLE', 'QUADRUPOLE', 'MULLIKEN_CHARGES')
f=open( 'psi4out.xyz', 'w' )
f.write( "7  " )
f.write( str(ee) + "\n" )
f.write( MOL.save_string_xyz() )
f.close()
--------------------------------------------------------------------------

    Molecular point group: c1
  Charge       = 0
  Multiplicity = 1
  Basis Set: CC-PVTZ
  Basis Set:
  @DF-RHF Final Energy:   -95.25171007390104
    Total Energy =                        -95.2517100739010800
    Molecular point group: c1
  Basis Set: CC-PVTZ
  Basis Set:
  Basis Set: CC-PVTZ
  Basis Set:
  @DF-RHF Final Energy:   -95.25332671127676
    Total Energy =                        -95.2533267112767419
  Basis Set: CC-PVTZ
  Basis Set:
  Basis Set: CC-PVTZ
  Basis Set:
  @DF-RHF Final Energy:   -95.25352401395382
    Total Energy =                        -95.2535240139537933
  Basis Set: CC-PVTZ
  Basis Set:
  Charge       = 0
  Multiplicity = 1
  Basis Set: CC-PVTZ
  Basis Set:

    Orbital Energies (a.u.)
    -----------------------

    Doubly Occupied:

       1A    -15.528899     2A    -11.235650     3A     -1.172492
       4A     -0.897185     5A     -0.665334     6A     -0.603407
       7A     -0.558193     8A     -0.517578     9A     -0.387566

  @DF-RHF Final Energy:   -95.25352537243647

   => Energetics <=

    Nuclear Repulsion Energy =             42.3819578891377802
    One-Electron Energy =                -212.1383559710397719
    Two-Electron Energy =                  74.5028727094655210
    DFT Exchange-Correlation Energy =       0.0000000000000000
    Empirical Dispersion Energy =           0.0000000000000000
    PCM Polarization Energy =               0.0000000000000000
    EFP Energy =                            0.0000000000000000
    Total Energy =                        -95.2535253724364566
    Molecular point group: c1
  Basis Set: CC-PVTZ
  Basis Set:

  -Total Gradient:
     Atom            X                  Y                   Z
    ------   -----------------  -----------------  -----------------
       1        0.000025859968    -0.001369364876     0.000263697953
       2        0.000135879084     0.001431664169    -0.000287904846
       3       -0.000040734136     0.001232260004    -0.000028126920
       4        0.000044616873    -0.000006018101     0.000016936995
       5       -0.000032540881    -0.000024114261    -0.000013407843
       6       -0.000050362451     0.000005238107     0.000005063416
       7       -0.000082718458    -0.001269665041     0.000043741245

  **** Optimization is complete! (in 4 steps) ****
    Final optimized geometry and variables:
    Molecular point group: c1

    Geometry (in Angstrom), charge = 0, multiplicity = 1:

    H           -1.015760951308    -0.126056901859    -0.974368817104
    N           -0.716993969515     0.039555615922    -0.036632923449
    C            0.732964262369     0.015702643836     0.056691876166
    H           -1.116093101238    -0.684594832365     0.522188747131
    H            1.198498072182    -0.851355860565    -0.409245489808
    H            1.144304813136     0.904970043653    -0.404123710239
    H            1.023936616667     0.020469278404     1.099519482508

  Mulliken Charges: (a.u.)
   Center  Symbol    Alpha    Beta     Spin     Total
       1     H     0.42943  0.42943  0.00000  0.14113
       2     N     3.68559  3.68559  0.00000 -0.37119
       3     C     3.07146  3.07146  0.00000 -0.14292
       4     H     0.42878  0.42878  0.00000  0.14243
       5     H     0.47222  0.47222  0.00000  0.05555
       6     H     0.45609  0.45609  0.00000  0.08782
       7     H     0.45642  0.45642  0.00000  0.08716

   Total alpha =  9.00000, Total beta =  9.00000, Total charge =  0.00000
