                              Psi4 1.0.54 Driver

  ==> Input File <==

--------------------------------------------------------------------------
set {
	reference rhf
	basis cc-pvtz
}

set_num_threads( 4 )
memory 2 gb

molecule MOL {
0 1

H	 3.297339	 -0.408876	 -0.006941
C	 2.238583	 -0.232815	 -0.005294
C	 1.364846	 -1.289127	 0.204760
C	 1.754674	 1.043326	 -0.212206
H	 1.748535	 -2.278041	 0.364837
C	 0.005908	 -1.067581	 0.207644
H	 2.432854	 1.858335	 -0.374398
C	 0.389628	 1.264256	 -0.209029
H	 -0.685194	 -1.870861	 0.368193
C	 -0.486398	 0.214248	 0.000000
H	 0.006138	 2.254906	 -0.369413
C	 -1.946525	 0.470130	 0.000000
O	 -2.779618	 -0.371226	 0.000000
H	 -2.227127	 1.528393	 0.000000

	symmetry c1
}
set optking {
	frozen_dihedral = ("
		8 10 12 14
	")
}

ee,wfn = optimize('scf', return_wfn=True)
oeprop( wfn, 'DIPOLE', 'QUADRUPOLE', 'MULLIKEN_CHARGES')
f=open( 'psi4out.xyz', 'w' )
f.write( "14  " )
f.write( str(ee) + "\n" )
f.write( MOL.save_string_xyz() )
f.close()
--------------------------------------------------------------------------

    Molecular point group: c1
  Charge       = 0
  Multiplicity = 1
  Basis Set: CC-PVTZ
  Basis Set:
  @DF-RHF Final Energy:  -343.54975110751451
    Total Energy =                       -343.5497511075147941
    Molecular point group: c1
  Basis Set: CC-PVTZ
  Basis Set:
  Basis Set: CC-PVTZ
  Basis Set:
  @DF-RHF Final Energy:  -343.54906555600542
    Total Energy =                       -343.5490655560051891
  Basis Set: CC-PVTZ
  Basis Set:
  Basis Set: CC-PVTZ
  Basis Set:
  @DF-RHF Final Energy:  -343.54976217012523
    Total Energy =                       -343.5497621701253479
  Basis Set: CC-PVTZ
  Basis Set:
  Basis Set: CC-PVTZ
  Basis Set:
  @DF-RHF Final Energy:  -343.54981089106337
    Total Energy =                       -343.5498108910630890
  Basis Set: CC-PVTZ
  Basis Set:
  Charge       = 0
  Multiplicity = 1
  Basis Set: CC-PVTZ
  Basis Set:

    Orbital Energies (a.u.)
    -----------------------

    Doubly Occupied:

       1A    -20.552845     2A    -11.327034     3A    -11.252675
       4A    -11.250147     5A    -11.246665     6A    -11.245385
       7A    -11.243909     8A    -11.242313     9A     -1.408681
      10A     -1.177102    11A     -1.051788    12A     -1.036192
      13A     -0.892713    14A     -0.848440    15A     -0.794572
      16A     -0.725554    17A     -0.682326    18A     -0.656565
      19A     -0.623760    20A     -0.621323    21A     -0.606095
      22A     -0.561676    23A     -0.530249    24A     -0.510168
      25A     -0.508364    26A     -0.425583    27A     -0.355812
      28A     -0.352560

  @DF-RHF Final Energy:  -343.54981137979831

   => Energetics <=

    Nuclear Repulsion Energy =            323.9671883749251151
    One-Electron Energy =               -1107.5730075065725941
    Two-Electron Energy =                 440.0560077518493358
    DFT Exchange-Correlation Energy =       0.0000000000000000
    Empirical Dispersion Energy =           0.0000000000000000
    PCM Polarization Energy =               0.0000000000000000
    EFP Energy =                            0.0000000000000000
    Total Energy =                       -343.5498113797980864
    Molecular point group: c1
  Basis Set: CC-PVTZ
  Basis Set:

  -Total Gradient:
     Atom            X                  Y                   Z
    ------   -----------------  -----------------  -----------------
       1        0.000001191999     0.000004098587    -0.000002956256
       2       -0.000005989301    -0.000045421084     0.000009163768
       3        0.000045648935     0.000023823617    -0.000016455850
       4       -0.000030065496     0.000035766974     0.000016348292
       5       -0.000001819657    -0.000000793176    -0.000001105563
       6       -0.000036459780     0.000021616197     0.000021566719
       7        0.000007239518    -0.000004547650    -0.000002506991
       8        0.000035463094    -0.000267936256    -0.001511363932
       9        0.000003212947     0.000010007060     0.000006145986
      10        0.000003182401     0.000387105549     0.002718480279
      11       -0.000004342215    -0.000005332795     0.000008535359
      12        0.000071783093    -0.000129922350    -0.003094291679
      13       -0.000072777921    -0.000038733208    -0.000000732577
      14       -0.000016267615     0.000010268536     0.001849172448

  **** Optimization is complete! (in 5 steps) ****
    Final optimized geometry and variables:
    Molecular point group: c1

    Geometry (in Angstrom), charge = 0, multiplicity = 1:

    H            3.296673370638    -0.412081827383    -0.024626029145
    C            2.238182660936    -0.234342212662    -0.015824522281
    C            1.364194341028    -1.290035519563     0.197661934424
    C            1.754615650876     1.042585825451    -0.217478515464
    H            1.747695680068    -2.279812806844     0.353138092434
    C            0.005568349191    -1.067228588374     0.206340250787
    H            2.432510153433     1.856735935777    -0.385425618871
    C            0.389802936699     1.266196417508    -0.200923231415
    H           -0.685717238554    -1.871423496683     0.361867339031
    C           -0.486039136555     0.217153169707     0.012291511997
    H            0.006922665175     2.258327618325    -0.354056889079
    C           -1.946989136558     0.470755279886    -0.001888070986
    O           -2.778177344137    -0.371988741807     0.018927512716
    H           -2.229155219883     1.528715635573    -0.015289256636

  Mulliken Charges: (a.u.)
   Center  Symbol    Alpha    Beta     Spin     Total
       1     H     0.41951  0.41951  0.00000  0.16099
       2     C     3.06979  3.06979  0.00000 -0.13959
       3     C     3.07232  3.07232  0.00000 -0.14464
       4     C     3.07384  3.07384  0.00000 -0.14768
       5     H     0.41953  0.41953  0.00000  0.16093
       6     C     3.07989  3.07989  0.00000 -0.15977
       7     H     0.42058  0.42058  0.00000  0.15883
       8     C     3.08710  3.08710  0.00000 -0.17420
       9     H     0.40883  0.40883  0.00000  0.18234
      10     C     2.98477  2.98477  0.00000  0.03046
      11     H     0.42293  0.42293  0.00000  0.15413
      12     C     2.91022  2.91022  0.00000  0.17956
      13     O     4.17236  4.17236  0.00000 -0.34472
      14     H     0.45832  0.45832  0.00000  0.08336

   Total alpha = 28.00000, Total beta = 28.00000, Total charge = -0.00000

*** Psi4 exiting successfully. Buy a developer a beer!
