  ==> Input File <==

--------------------------------------------------------------------------
set {
	reference rhf
	basis 6-31G*
}

set_num_threads( 4 )
memory 2 gb

molecule MOL {
0 1

H	 2.176868	 -0.646004	 -0.217325
O	 1.337496	 -0.537251	 0.205931
C	 0.702312	 0.627605	 -0.264544
C	 -0.714990	 0.596302	 0.266387
H	 0.682322	 0.642550	 -1.350929
H	 1.215941	 1.520383	 0.085680
O	 -1.405996	 -0.526611	 -0.195820
H	 -1.257453	 1.468809	 -0.075599
H	 -0.688972	 0.618407	 1.353696
H	 -0.862573	 -1.287102	 -0.033463

	symmetry c1
}
set optking {
	frozen_dihedral = ("
		10 7 4 3
	")
}

ee = optimize('scf')
oeprop('DIPOLE', 'QUADRUPOLE', 'MULLIKEN_CHARGES')
f=open( 'psi4out.xyz', 'w' )
f.write( "10  " )
f.write( str(ee) + "\n" )
f.write( MOL.save_string_xyz() )
f.close()
--------------------------------------------------------------------------

    Molecular point group: c1
  Charge       = 0
  Multiplicity = 1
  Basis Set: 6-31G*
  Basis Set:
  @DF-RHF Final Energy:  -228.92551884227311
    Total Energy =                       -228.9255188422731067
    Molecular point group: c1
  Basis Set: 6-31G*
  Basis Set:
  Basis Set: 6-31G*
  Basis Set:
  @DF-RHF Final Energy:  -228.92551780452456
    Total Energy =                       -228.9255178045245884
  Basis Set: 6-31G*
  Basis Set:
  Charge       = 0
  Multiplicity = 1
  Basis Set: 6-31G*
  Basis Set:

    Orbital Energies (a.u.)
    -----------------------

    Doubly Occupied:

       1A    -20.570837     2A    -20.547501     3A    -11.277162
       4A    -11.267977     5A     -1.383460     6A     -1.350231
       7A     -1.002195     8A     -0.843741     9A     -0.729425
      10A     -0.676786    11A     -0.650942    12A     -0.603327
      13A     -0.574549    14A     -0.532818    15A     -0.488891
      16A     -0.455126    17A     -0.431776

  @DF-RHF Final Energy:  -228.92552494487336

   => Energetics <=

    Nuclear Repulsion Energy =            134.6973682005088335
    One-Electron Energy =                -580.4722954543329934
    Two-Electron Energy =                 216.8494023089508005
    DFT Exchange-Correlation Energy =       0.0000000000000000
    Empirical Dispersion Energy =           0.0000000000000000
    PCM Polarization Energy =               0.0000000000000000
    EFP Energy =                            0.0000000000000000
    Total Energy =                       -228.9255249448733593
    Molecular point group: c1
  Basis Set: 6-31G*
  Basis Set:

  -Total Gradient:
     Atom            X                  Y                   Z
    ------   -----------------  -----------------  -----------------
       1        0.000002589378     0.000005959422    -0.000004667947
       2        0.000008347522     0.000041049133     0.000000276383
       3        0.000122588692    -0.000272806189     0.000342216700
       4       -0.000114933066     0.000364080115    -0.000621800634
       5        0.000026704240     0.000005338830    -0.000019576284
       6        0.000009503566    -0.000034832273     0.000004611645
       7       -0.000332580439    -0.000186433738     0.000924308540
       8       -0.000002403580    -0.000011806647     0.000000801735
       9       -0.000037844578    -0.000016075472     0.000009754678
      10        0.000318028262     0.000105526820    -0.000635924816

  **** Optimization is complete! (in 3 steps) ****
    Final optimized geometry and variables:
    Molecular point group: c1

    Geometry (in Angstrom), charge = 0, multiplicity = 1:

    H            2.174959064822    -0.646322946441    -0.219077143633
    O            1.333492494876    -0.540188374993     0.200839544394
    C            0.702635265341     0.630074212708    -0.261888657322
    C           -0.716042915816     0.598616974384     0.266334364903
    H            0.686212618943     0.653119059759    -1.348318408142
    H            1.217894070960     1.518578018692     0.096225915104
    O           -1.403481117868    -0.528606193824    -0.190386777891
    H           -1.259448998187     1.469018306864    -0.079476856358
    H           -0.691316483347     0.624678372283     1.353650766874
    H           -0.857887439574    -1.286340868803    -0.021831542179

  Mulliken Charges: (a.u.)
   Center  Symbol    Alpha    Beta     Spin     Total
       1     H     0.27612  0.27612  0.00000  0.44777
       2     O     4.37769  4.37769  0.00000 -0.75539
       3     C     3.01405  3.01405  0.00000 -0.02809
       4     C     2.99500  2.99500  0.00000  0.01001
       5     H     0.42277  0.42277  0.00000  0.15446
       6     H     0.42760  0.42760  0.00000  0.14479
       7     O     4.37381  4.37381  0.00000 -0.74763
       8     H     0.41722  0.41722  0.00000  0.16555
       9     H     0.42363  0.42363  0.00000  0.15275
      10     H     0.27211  0.27211  0.00000  0.45578

   Total alpha = 17.00000, Total beta = 17.00000, Total charge =  0.00000
