  ==> Input File <==

--------------------------------------------------------------------------
set {
	reference rhf
	basis 6-31G*
}

set_num_threads( 4 )
memory 2 gb

molecule MOL {
0 1

H	 -3.561337	 0.445705	 0.401055
O	 -3.107012	 -0.263293	 -0.033141
C	 -1.775923	 -0.075050	 -0.004252
C	 -1.197321	 1.037178	 0.600040
C	 -0.981148	 -1.042110	 -0.606907
H	 -1.820525	 1.782055	 1.064891
C	 0.174545	 1.177903	 0.599214
H	 -1.450996	 -1.890877	 -1.066372
C	 0.389400	 -0.887252	 -0.599539
H	 0.634414	 2.030954	 1.061733
C	 0.984182	 0.218375	 0.000000
H	 1.005756	 -1.636377	 -1.066422
C	 2.452467	 0.370529	 0.000000
O	 3.228994	 -0.533774	 0.000000
H	 2.809473	 1.405765	 0.000000

	symmetry c1
}
set optking {
	frozen_dihedral = ("
		7 11 13 14
	")
}

ee = optimize('scf')
oeprop('DIPOLE', 'QUADRUPOLE', 'MULLIKEN_CHARGES')
f=open( 'psi4out.xyz', 'w' )
f.write( "15  " )
f.write( str(ee) + "\n" )
f.write( MOL.save_string_xyz() )
f.close()
--------------------------------------------------------------------------

    Molecular point group: c1
  Charge       = 0
  Multiplicity = 1
  Basis Set: 6-31G*
  Basis Set:
  @DF-RHF Final Energy:  -418.28578146701869
    Total Energy =                       -418.2857814670187508
    Molecular point group: c1
  Basis Set: 6-31G*
  Basis Set:
  Basis Set: 6-31G*
  Basis Set:
  @DF-RHF Final Energy:  -418.28493551332031
    Total Energy =                       -418.2849355133203062
  Basis Set: 6-31G*
  Basis Set:
  Basis Set: 6-31G*
  Basis Set:
  @DF-RHF Final Energy:  -418.28638162797802
    Total Energy =                       -418.2863816279775619
  Basis Set: 6-31G*
  Basis Set:
  Basis Set: 6-31G*
  Basis Set:
  @DF-RHF Final Energy:  -418.28661579656284
    Total Energy =                       -418.2866157965630691
  Basis Set: 6-31G*
  Basis Set:
  Basis Set: 6-31G*
  Basis Set:
  @DF-RHF Final Energy:  -418.28662156292756
    Total Energy =                       -418.2866215629277349
  Basis Set: 6-31G*
  Basis Set:
  Charge       = 0
  Multiplicity = 1
  Basis Set: 6-31G*
  Basis Set:

    Orbital Energies (a.u.)
    -----------------------

    Doubly Occupied:

       1A    -20.609818     2A    -20.558496     3A    -11.329061
       4A    -11.322109     5A    -11.262496     6A    -11.253524
       7A    -11.244838     8A    -11.239734     9A    -11.237332
      10A     -1.430687    11A     -1.399188    12A     -1.170149
      13A     -1.042229    14A     -1.036557    15A     -0.892828
      16A     -0.858263    17A     -0.802809    18A     -0.755970
      19A     -0.696183    20A     -0.685213    21A     -0.640394
      22A     -0.625910    23A     -0.608375    24A     -0.607010
      25A     -0.584910    26A     -0.557929    27A     -0.543848
      28A     -0.506088    29A     -0.484874    30A     -0.419295
      31A     -0.356510    32A     -0.326230

  @DF-RHF Final Energy:  -418.28662324438096

   => Energetics <=

    Nuclear Repulsion Energy =            401.3429425712776037
    One-Electron Energy =               -1365.0814191246647624
    Two-Electron Energy =                 545.4518533090058554
    DFT Exchange-Correlation Energy =       0.0000000000000000
    Empirical Dispersion Energy =           0.0000000000000000
    PCM Polarization Energy =               0.0000000000000000
    EFP Energy =                            0.0000000000000000
    Total Energy =                       -418.2866232443813033
    Molecular point group: c1
  Basis Set: 6-31G*
  Basis Set:

  -Total Gradient:
     Atom            X                  Y                   Z
    ------   -----------------  -----------------  -----------------
       1       -0.000017138967     0.000000255993    -0.000001788758
       2       -0.000003614623     0.000055051955    -0.000000205539
       3        0.000039519772    -0.000146213007     0.000028226463
       4        0.000055351197     0.000022403661     0.000025399824
       5       -0.000084379648     0.000078853719    -0.000021368826
       6       -0.000021535230    -0.000007286483    -0.000013992280
       7       -0.000049244737    -0.002771341018     0.004385771746
       8        0.000012594826     0.000004558850     0.000003965242
       9        0.000061759859     0.000095292738    -0.000002225900
      10        0.000004082896    -0.000023292770     0.000003067355
      11       -0.000093222295     0.003859143809    -0.003542769867
      12       -0.000001685820    -0.000001700504     0.000012032108
      13        0.000377751595    -0.000859445354    -0.007325617036
      14       -0.000265304207    -0.000302652284     0.006443446651
      15       -0.000014934619    -0.000003629302     0.000006058815

  **** Optimization is complete! (in 6 steps) ****
    Final optimized geometry and variables:
    Molecular point group: c1

    Geometry (in Angstrom), charge = 0, multiplicity = 1:

    H           -3.559042194900     0.434810326732     0.447647593167
    O           -3.104120674715    -0.268569909006     0.005257533693
    C           -1.774117922838    -0.065481303226     0.014122675907
    C           -1.196087679515     1.048511778474     0.603073101943
    C           -0.978752034423    -1.031722846994    -0.598881343086
    H           -1.812200998324     1.787547259717     1.085877083378
    C            0.179724378121     1.201070586226     0.564252831515
    H           -1.451947249103    -1.887780237236    -1.041607342091
    C            0.387397657855    -0.877015414738    -0.610701093214
    H            0.624723937439     2.069763080084     1.018531799099
    C            0.983084487625     0.253839591321    -0.049401084935
    H            1.013074300433    -1.627274325326    -1.057133322536
    C            2.456098053789     0.375635806498     0.016725135875
    O            3.209217488977    -0.547153559739     0.002776433328
    H            2.834609297823     1.395303896134     0.143230887305

  Mulliken Charges: (a.u.)
   Center  Symbol    Alpha    Beta     Spin     Total
       1     H     0.26907  0.26907  0.00000  0.46186
       2     O     4.37309  4.37309  0.00000 -0.74618
       3     C     2.78612  2.78612  0.00000  0.42776
       4     C     3.14781  3.14781  0.00000 -0.29562
       5     C     3.12625  3.12625  0.00000 -0.25250
       6     H     0.39920  0.39920  0.00000  0.20160
       7     C     3.09288  3.09288  0.00000 -0.18576
       8     H     0.38570  0.38570  0.00000  0.22859
       9     C     3.07956  3.07956  0.00000 -0.15912
      10     H     0.39068  0.39068  0.00000  0.21863
      11     C     3.06126  3.06126  0.00000 -0.12252
      12     H     0.37782  0.37782  0.00000  0.24435
      13     C     2.83802  2.83802  0.00000  0.32396
      14     O     4.24602  4.24602  0.00000 -0.49204
      15     H     0.42652  0.42652  0.00000  0.14697

   Total alpha = 32.00000, Total beta = 32.00000, Total charge = -0.00000
