  ==> Input File <==

--------------------------------------------------------------------------
set {
	reference rhf
	basis 6-31G*
}

set_num_threads( 4 )
memory 2 gb

molecule MOL {
0 1

H	 1.594666	 1.492415	 -2.124711
C	 0.866091	 1.292419	 -1.347467
C	 1.322923	 0.120767	 -0.479465
H	 0.750140	 2.198386	 -0.760823
H	 -0.083059	 1.080205	 -1.829830
C	 0.306652	 -0.176050	 0.621399
H	 2.280306	 0.346883	 -0.021516
H	 1.452316	 -0.768427	 -1.085148
N	 -1.068537	 -0.011044	 0.085269
H	 0.372515	 -1.192590	 0.973735
H	 0.391664	 0.520566	 1.441230
O	 -1.656956	 -0.997225	 -0.235017
O	 -1.478635	 1.104830	 -0.018026

	symmetry c1
}
set optking {
	frozen_dihedral = ("
		7 3 6 9
	")
}

ee = optimize('scf')
oeprop('DIPOLE', 'QUADRUPOLE', 'MULLIKEN_CHARGES')
f=open( 'psi4out.xyz', 'w' )
f.write( "13  " )
f.write( str(ee) + "\n" )
f.write( MOL.save_string_xyz() )
f.close()
--------------------------------------------------------------------------

    Molecular point group: c1
  Charge       = 0
  Multiplicity = 1
  Basis Set: 6-31G*
  Basis Set:
  @DF-RHF Final Energy:  -321.72653355031827
    Total Energy =                       -321.7265335503181518
    Molecular point group: c1
  Basis Set: 6-31G*
  Basis Set:
  Basis Set: 6-31G*
  Basis Set:
  @DF-RHF Final Energy:  -321.72998988363832
    Total Energy =                       -321.7299898836383818
  Basis Set: 6-31G*
  Basis Set:
  Basis Set: 6-31G*
  Basis Set:
  @DF-RHF Final Energy:  -321.72759982186727
    Total Energy =                       -321.7275998218672157
  Basis Set: 6-31G*
  Basis Set:
  Basis Set: 6-31G*
  Basis Set:
  @DF-RHF Final Energy:  -321.73151311409254
    Total Energy =                       -321.7315131140925928
  Basis Set: 6-31G*
  Basis Set:
  @DF-RHF Final Energy:  -321.73257933336072
    Total Energy =                       -321.7325793333606043
  @DF-RHF Final Energy:  -321.73283568721882
    Total Energy =                       -321.7328356872189943
  @DF-RHF Final Energy:  -321.73310122777980
    Total Energy =                       -321.7331012277799118
  @DF-RHF Final Energy:  -321.73335402425289
    Total Energy =                       -321.7333540242527761
  Basis Set: 6-31G*
  Basis Set:
  @DF-RHF Final Energy:  -321.73340392183104
    Total Energy =                       -321.7334039218308135
  Basis Set: 6-31G*
  Basis Set:
  Basis Set: 6-31G*
  Basis Set:
  @DF-RHF Final Energy:  -321.73341622276178
    Total Energy =                       -321.7334162227619458
  Basis Set: 6-31G*
  Basis Set:
  Basis Set: 6-31G*
  Basis Set:
  @DF-RHF Final Energy:  -321.73341810869658
    Total Energy =                       -321.7334181086965827
  Basis Set: 6-31G*
  Basis Set:
  Charge       = 0
  Multiplicity = 1
  Basis Set: 6-31G*
  Basis Set:

    Orbital Energies (a.u.)
    -----------------------

    Doubly Occupied:

       1A    -20.603802     2A    -20.598618     3A    -15.846762
       4A    -11.299312     5A    -11.256752     6A    -11.230369
       7A     -1.631018     8A     -1.416417     9A     -1.133090
      10A     -1.021469    11A     -0.895304    12A     -0.820497
      13A     -0.754208    14A     -0.736707    15A     -0.725302
      16A     -0.662189    17A     -0.610030    18A     -0.592074
      19A     -0.533148    20A     -0.519130    21A     -0.512797
      22A     -0.482188    23A     -0.473837    24A     -0.449067

  @DF-RHF Final Energy:  -321.73341847126710

   => Energetics <=

    Nuclear Repulsion Energy =            254.3928213565613135
    One-Electron Energy =                -942.6443014150215731
    Two-Electron Energy =                 366.5180615871931877
    DFT Exchange-Correlation Energy =       0.0000000000000000
    Empirical Dispersion Energy =           0.0000000000000000
    PCM Polarization Energy =               0.0000000000000000
    EFP Energy =                            0.0000000000000000
    Total Energy =                       -321.7334184712671004
    Molecular point group: c1
  Basis Set: 6-31G*
  Basis Set:

  -Total Gradient:
     Atom            X                  Y                   Z
    ------   -----------------  -----------------  -----------------
       1        0.000009850700    -0.000003080252     0.000003656413
       2        0.000028060508    -0.000004440479     0.000017161399
       3        0.001541419127    -0.004704075020     0.000340443920
       4       -0.000003830498     0.000005673933     0.000005192772
       5       -0.000004804824    -0.000016818786     0.000010651331
       6       -0.000345994188    -0.004165871047    -0.001203539161
       7       -0.001277364302     0.005055359932    -0.000058311552
       8       -0.000001507403     0.000001507030     0.000001204343
       9        0.000012246192     0.003912232363     0.000882706801
      10        0.000009536736    -0.000004309388    -0.000000920690
      11       -0.000010266809    -0.000002693408    -0.000003956985
      12        0.000024278095    -0.000076737106    -0.000021345797
      13        0.000018376671     0.000003252226     0.000027057202

  **** Optimization is complete! (in 12 steps) ****
    Final optimized geometry and variables:
    Molecular point group: c1

    Geometry (in Angstrom), charge = 0, multiplicity = 1:

    H            2.051164982184     1.222830104361    -1.938430360180
    C            1.253533609475     1.047583281548    -1.225362926571
    C            1.630368131072    -0.115927596098    -0.303734343095
    H            1.098122962303     1.963509583698    -0.664637605203
    H            0.350786061034     0.837148411143    -1.786705045209
    C            0.635260799935    -0.359016157312     0.836926717454
    H            2.575938179636     0.128183479305     0.169636068574
    H            1.758293890829    -1.023741789016    -0.879054777437
    N           -0.765873312636    -0.229462290699     0.359405466622
    H            0.720721884191    -1.356635659426     1.240077332571
    H            0.736340979132     0.373441892016     1.620723827449
    O           -1.159058995683    -1.072896110997    -0.389129661645
    O           -1.396093375053     0.709029489114     0.734812739585

  Mulliken Charges: (a.u.)
   Center  Symbol    Alpha    Beta     Spin     Total
       1     H     0.41050  0.41050  0.00000  0.17900
       2     C     3.25453  3.25453  0.00000 -0.50906
       3     C     3.16933  3.16933  0.00000 -0.33866
       4     H     0.41074  0.41074  0.00000  0.17852
       5     H     0.40276  0.40276  0.00000  0.19448
       6     C     3.08926  3.08926  0.00000 -0.17852
       7     H     0.40780  0.40780  0.00000  0.18439
       8     H     0.40006  0.40006  0.00000  0.19988
       9     N     3.22522  3.22522  0.00000  0.54956
      10     H     0.38605  0.38605  0.00000  0.22791
      11     H     0.38777  0.38777  0.00000  0.22446
      12     O     4.23110  4.23110  0.00000 -0.46220
      13     O     4.22489  4.22489  0.00000 -0.44977

   Total alpha = 24.00000, Total beta = 24.00000, Total charge = -0.00000
