                              Psi4 1.0.54 Driver

  ==> Input File <==

--------------------------------------------------------------------------
set {
	reference rhf
	basis cc-pvtz
}

set_num_threads( 4 )
memory 2 gb

molecule MOL {
0 1

H	 3.258464	 0.012603	 -1.471469
O	 2.339487	 -0.164875	 -1.338510
C	 2.076458	 -0.067370	 -0.038225
C	 0.626018	 -0.337582	 0.258241
O	 2.912576	 0.201458	 0.753280
C	 -0.267326	 0.883135	 0.076490
H	 0.325620	 -1.161483	 -0.378003
H	 0.574537	 -0.713685	 1.275261
C	 -1.726822	 0.642622	 0.463839
H	 -0.210803	 1.217591	 -0.953497
H	 0.129920	 1.693110	 0.675679
C	 -2.480891	 -0.340606	 -0.429852
H	 -2.243098	 1.597649	 0.438609
H	 -1.776542	 0.301208	 1.495542
C	 -3.955933	 -0.460128	 -0.060472
H	 -2.393755	 -0.020485	 -1.464726
H	 -2.024244	 -1.323637	 -0.374360
H	 -4.467673	 -1.160944	 -0.709827
H	 -4.458917	 0.497287	 -0.144505
H	 -4.076458	 -0.806900	 0.960497

	symmetry c1
}
set optking {
	frozen_dihedral = ("
		5 3 4 7
	")
}

ee,wfn = optimize('scf', return_wfn=True)
oeprop( wfn, 'DIPOLE', 'QUADRUPOLE', 'MULLIKEN_CHARGES')
f=open( 'psi4out.xyz', 'w' )
f.write( "20  " )
f.write( str(ee) + "\n" )
f.write( MOL.save_string_xyz() )
f.close()
--------------------------------------------------------------------------

    Molecular point group: c1
  Charge       = 0
  Multiplicity = 1
  Basis Set: CC-PVTZ
  Basis Set:
  @DF-RHF Final Energy:  -384.09306587678776
    Total Energy =                       -384.0930658767877048
    Molecular point group: c1
  Basis Set: CC-PVTZ
  Basis Set:
  Basis Set: CC-PVTZ
  Basis Set:
  @DF-RHF Final Energy:  -384.09345512027323
    Total Energy =                       -384.0934551202733473
  Basis Set: CC-PVTZ
  Basis Set:
  Basis Set: CC-PVTZ
  Basis Set:
  @DF-RHF Final Energy:  -384.00542527279811
    Total Energy =                       -384.0054252727979360
  Basis Set: CC-PVTZ
  Basis Set:
  Basis Set: CC-PVTZ
  Basis Set:
  @DF-RHF Final Energy:  -384.08510240039107
    Total Energy =                       -384.0851024003908947
  Basis Set: CC-PVTZ
  Basis Set:
  @DF-RHF Final Energy:  -384.09309599106689
    Total Energy =                       -384.0930959910664910
  @DF-RHF Final Energy:  -384.09127584290104
    Total Energy =                       -384.0912758429013820
  @DF-RHF Final Energy:  -384.04326109351490
    Total Energy =                       -384.0432610935146158
  @DF-RHF Final Energy:  -384.07995775331636
    Total Energy =                       -384.0799577533166484
  @DF-RHF Final Energy:  -384.09264006619532
    Total Energy =                       -384.0926400661955995
  @DF-RHF Final Energy:  -384.01996308187290
    Total Energy =                       -384.0199630818727883
  @DF-RHF Final Energy:  -384.09008888789458
    Total Energy =                       -384.0900888878950354
  Basis Set: CC-PVTZ
  Basis Set:
  @DF-RHF Final Energy:  -384.09368868755183
    Total Energy =                       -384.0936886875517757
  Basis Set: CC-PVTZ
  Basis Set:
  Basis Set: CC-PVTZ
  Basis Set:
  @DF-RHF Final Energy:  -384.09377279720786
    Total Energy =                       -384.0937727972079756
  Basis Set: CC-PVTZ
  Basis Set:
  Basis Set: CC-PVTZ
  Basis Set:
  @DF-RHF Final Energy:  -384.09379496353444
    Total Energy =                       -384.0937949635342648
  Basis Set: CC-PVTZ
  Basis Set:
  Charge       = 0
  Multiplicity = 1
  Basis Set: CC-PVTZ
  Basis Set:

    Orbital Energies (a.u.)
    -----------------------

    Doubly Occupied:

       1A    -20.604363     2A    -20.538262     3A    -11.371862
       4A    -11.236701     5A    -11.231333     6A    -11.222417
       7A    -11.220576     8A    -11.212223     9A     -1.476582
      10A     -1.367330    11A     -1.100996    12A     -1.043760
      13A     -0.962280    14A     -0.866507    15A     -0.823360
      16A     -0.790994    17A     -0.704990    18A     -0.688911
      19A     -0.650950    20A     -0.634902    21A     -0.619845
      22A     -0.595060    23A     -0.577134    24A     -0.554897
      25A     -0.551041    26A     -0.515818    27A     -0.505083
      28A     -0.482890    29A     -0.478162    30A     -0.468662
      31A     -0.462577    32A     -0.438280

  @DF-RHF Final Energy:  -384.09379508734088

   => Energetics <=

    Nuclear Repulsion Energy =            377.4771614850268975
    One-Electron Energy =               -1271.1444193848674331
    Two-Electron Energy =                 509.5734628124996561
    DFT Exchange-Correlation Energy =       0.0000000000000000
    Empirical Dispersion Energy =           0.0000000000000000
    PCM Polarization Energy =               0.0000000000000000
    EFP Energy =                            0.0000000000000000
    Total Energy =                       -384.0937950873408226
    Molecular point group: c1
  Basis Set: CC-PVTZ
  Basis Set:

  -Total Gradient:
     Atom            X                  Y                   Z
    ------   -----------------  -----------------  -----------------
       1        0.000007331582    -0.000001102345     0.000005905667
       2        0.000008643829    -0.000063185643    -0.000051826435
       3        0.000165983183    -0.000020003914     0.000225821328
       4        0.000039984551     0.000111310436     0.000117662535
       5       -0.000148777092     0.000037298470    -0.000145515263
       6        0.000015074798    -0.000005065867    -0.000002304750
       7       -0.000085103176    -0.000075851951    -0.000151098571
       8       -0.000003030120    -0.000000427807     0.000004991270
       9       -0.000012647806     0.000006901401     0.000007070409
      10       -0.000000586187     0.000002087900    -0.000000296347
      11       -0.000014879738    -0.000001693543     0.000003002339
      12        0.000021827481    -0.000005806999     0.000000314895
      13        0.000003041723     0.000001525474    -0.000001453903
      14        0.000002134458    -0.000000975273    -0.000002985301
      15       -0.000009937297     0.000008652073    -0.000005078767
      16        0.000000848004     0.000001844277     0.000003151209
      17        0.000004622071     0.000001108687    -0.000001495751
      18        0.000005075512     0.000004249815    -0.000006790168
      19       -0.000001604405     0.000001041933     0.000001861975
      20        0.000001998622    -0.000001907124    -0.000000936374

  **** Optimization is complete! (in 14 steps) ****
    Final optimized geometry and variables:
    Molecular point group: c1

    Geometry (in Angstrom), charge = 0, multiplicity = 1:

    H            2.941754893832     0.124987019623    -1.989476862052
    O            2.262174468607    -0.215690853049    -1.427313498215
    C            1.840896617501     0.766048423874    -0.634679981669
    C            0.720188854891     0.335003129492     0.270161812391
    O            2.303271700075     1.853883703748    -0.681419848997
    C           -0.621832437567     0.345314205126    -0.475920659583
    H            0.940230572396    -0.655588032416     0.643493440708
    H            0.691739880122     1.026980303746     1.099946444251
    C           -1.823024828244     0.022973976790     0.413264072079
    H           -0.578741614147    -0.358581467569    -1.300351399584
    H           -0.763974748277     1.329085337767    -0.910158847081
    C           -1.858547943978    -1.402981899963     0.959567797817
    H           -2.724954630236     0.194644038832    -0.166922565655
    H           -1.857207056028     0.727883127255     1.240280910974
    C           -3.126440450056    -1.695208373030     1.755681926581
    H           -1.782112716373    -2.104367360407     0.133013635739
    H           -0.996258389576    -1.582204568515     1.593350674890
    H           -3.126553904329    -2.711049094889     2.133250358613
    H           -4.011895689593    -1.569940458975     1.141689195440
    H           -3.217476903432    -1.026713888417     2.605296849241

  Mulliken Charges: (a.u.)
   Center  Symbol    Alpha    Beta     Spin     Total
       1     H     0.38052  0.38052  0.00000  0.23896
       2     O     4.16393  4.16393  0.00000 -0.32787
       3     C     2.80498  2.80498  0.00000  0.39004
       4     C     3.08878  3.08878  0.00000 -0.17756
       5     O     4.19676  4.19676  0.00000 -0.39352
       6     C     3.11076  3.11076  0.00000 -0.22152
       7     H     0.44225  0.44225  0.00000  0.11551
       8     H     0.43738  0.43738  0.00000  0.12523
       9     C     3.09735  3.09735  0.00000 -0.19470
      10     H     0.44403  0.44403  0.00000  0.11193
      11     H     0.43831  0.43831  0.00000  0.12339
      12     C     3.08732  3.08732  0.00000 -0.17465
      13     H     0.44601  0.44601  0.00000  0.10799
      14     H     0.45108  0.45108  0.00000  0.09784
      15     C     3.14959  3.14959  0.00000 -0.29917
      16     H     0.45213  0.45213  0.00000  0.09573
      17     H     0.45340  0.45340  0.00000  0.09319
      18     H     0.44737  0.44737  0.00000  0.10525
      19     H     0.45376  0.45376  0.00000  0.09248
      20     H     0.45428  0.45428  0.00000  0.09144

   Total alpha = 32.00000, Total beta = 32.00000, Total charge =  0.00000

*** Psi4 exiting successfully. Buy a developer a beer!
