  ==> Input File <==

--------------------------------------------------------------------------
set {
	reference rhf
	basis 6-31G*
}

set_num_threads( 4 )
memory 2 gb

molecule MOL {
0 1

H	 -2.798360	 -0.862255	 -0.071053
N	 -1.863561	 -0.715187	 0.256814
C	 -1.344686	 0.554728	 -0.219830
H	 -1.300452	 -1.461917	 -0.101532
C	 -0.349617	 1.113085	 0.775765
H	 -0.858009	 0.492172	 -1.194116
H	 -2.170062	 1.253990	 -0.312403
O	 0.747549	 0.246971	 0.831980
H	 -0.026351	 2.107255	 0.467929
H	 -0.817424	 1.193416	 1.754508
C	 1.707598	 0.596933	 1.777180
H	 2.499823	 -0.137657	 1.727610
H	 2.127197	 1.580406	 1.572977
H	 1.292429	 0.600928	 2.782878

	symmetry c1
}
set optking {
	frozen_dihedral = ("
		6 3 2 4
	")
}

ee = optimize('scf')
oeprop('DIPOLE', 'QUADRUPOLE', 'MULLIKEN_CHARGES')
f=open( 'psi4out.xyz', 'w' )
f.write( "14  " )
f.write( str(ee) + "\n" )
f.write( MOL.save_string_xyz() )
f.close()
--------------------------------------------------------------------------

    Molecular point group: c1
  Charge       = 0
  Multiplicity = 1
  Basis Set: 6-31G*
  Basis Set:
  @DF-RHF Final Energy:  -248.12224288577727
    Total Energy =                       -248.1222428857772115
    Molecular point group: c1
  Basis Set: 6-31G*
  Basis Set:
  Basis Set: 6-31G*
  Basis Set:
  @DF-RHF Final Energy:  -248.12253889837399
    Total Energy =                       -248.1225388983740459
  Basis Set: 6-31G*
  Basis Set:
  Basis Set: 6-31G*
  Basis Set:
  @DF-RHF Final Energy:  -248.12258817977383
    Total Energy =                       -248.1225881797738566
  Basis Set: 6-31G*
  Basis Set:
  Basis Set: 6-31G*
  Basis Set:
  @DF-RHF Final Energy:  -248.12259077311626
    Total Energy =                       -248.1225907731164853
  Basis Set: 6-31G*
  Basis Set:
  Charge       = 0
  Multiplicity = 1
  Basis Set: 6-31G*
  Basis Set:

    Orbital Energies (a.u.)
    -----------------------

    Doubly Occupied:

       1A    -20.551386     2A    -15.531295     3A    -11.261725
       4A    -11.260052     5A    -11.241876     6A     -1.376074
       7A     -1.173974     8A     -0.997449     9A     -0.903219
      10A     -0.812835    11A     -0.680196    12A     -0.672678
      13A     -0.637926    14A     -0.616980    15A     -0.602752
      16A     -0.532075    17A     -0.523393    18A     -0.500395
      19A     -0.470114    20A     -0.411997    21A     -0.382162

  @DF-RHF Final Energy:  -248.12259124772083

   => Energetics <=

    Nuclear Repulsion Energy =            194.0855701863533227
    One-Electron Energy =                -722.1352210453686666
    Two-Electron Energy =                 279.9270596112943394
    DFT Exchange-Correlation Energy =       0.0000000000000000
    Empirical Dispersion Energy =           0.0000000000000000
    PCM Polarization Energy =               0.0000000000000000
    EFP Energy =                            0.0000000000000000
    Total Energy =                       -248.1225912477210613
    Molecular point group: c1
  Basis Set: 6-31G*
  Basis Set:

  -Total Gradient:
     Atom            X                  Y                   Z
    ------   -----------------  -----------------  -----------------
       1       -0.000020689566     0.000015463676    -0.000002937578
       2        0.004291559139     0.000263483168     0.005367569655
       3       -0.005395981395     0.000889029163    -0.003689552864
       4       -0.002547125785    -0.000391570306    -0.003814884688
       5       -0.000043060046    -0.000043810557     0.000071179257
       6        0.003703044356    -0.000764723591     0.002087286514
       7        0.000019484020     0.000009641141     0.000011795269
       8       -0.000012860968     0.000018628131    -0.000026767638
       9        0.000004153718    -0.000034381707    -0.000013197605
      10       -0.000002196735     0.000027667709     0.000018641361
      11        0.000005480552     0.000015284613    -0.000005867076
      12       -0.000002816009    -0.000000282519    -0.000004911238
      13        0.000007767634    -0.000002192383     0.000005909357
      14       -0.000006758917    -0.000002236539    -0.000004262729

  **** Optimization is complete! (in 5 steps) ****
    Final optimized geometry and variables:
    Molecular point group: c1

    Geometry (in Angstrom), charge = 0, multiplicity = 1:

    H           -2.584860092092    -1.214721090230    -0.800338493498
    N           -1.674801582661    -1.057969969271    -0.412350367004
    C           -1.130445405594     0.203085096605    -0.900279787407
    H           -1.107743490100    -1.822640391751    -0.721261739288
    C           -0.133818129298     0.766136636022     0.093997689719
    H           -0.606677673158     0.102829983168    -1.849843948044
    H           -1.938384860900     0.915284304057    -1.028324206406
    O            0.975396027264    -0.083296186538     0.122467541754
    H            0.173004531006     1.769870089504    -0.204175623571
    H           -0.592878530960     0.826277195043     1.077930298023
    C            1.925929617129     0.246024198182     1.083187069563
    H            2.731980102532    -0.471195031408     1.006850346741
    H            2.328490202679     1.244747566214     0.920701161682
    H            1.508762163313     0.201598522034     2.087093814868

  Mulliken Charges: (a.u.)
   Center  Symbol    Alpha    Beta     Spin     Total
       1     H     0.33331  0.33331  0.00000  0.33339
       2     N     3.91930  3.91930  0.00000 -0.83861
       3     C     3.07794  3.07794  0.00000 -0.15587
       4     H     0.32703  0.32703  0.00000  0.34593
       5     C     2.97993  2.97993  0.00000  0.04014
       6     H     0.42228  0.42228  0.00000  0.15544
       7     H     0.42138  0.42138  0.00000  0.15725
       8     O     4.30778  4.30778  0.00000 -0.61555
       9     H     0.43521  0.43521  0.00000  0.12959
      10     H     0.42496  0.42496  0.00000  0.15009
      11     C     3.07800  3.07800  0.00000 -0.15600
      12     H     0.41350  0.41350  0.00000  0.17301
      13     H     0.43162  0.43162  0.00000  0.13676
      14     H     0.42777  0.42777  0.00000  0.14445

   Total alpha = 21.00000, Total beta = 21.00000, Total charge = -0.00000
