                              Psi4 1.0.54 Driver

  ==> Input File <==

--------------------------------------------------------------------------
set {
	reference rhf
	basis cc-pvtz
}

set_num_threads( 4 )
memory 2 gb

molecule MOL {
0 1

H	 -3.436473	 1.252944	 -1.023892
O	 -3.458596	 0.315260	 -0.960865
C	 -3.176635	 -0.080824	 0.355601
C	 -1.763371	 0.265266	 0.799691
H	 -3.321825	 -1.153438	 0.379502
H	 -3.895468	 0.357385	 1.043382
C	 -0.673390	 -0.426948	 -0.013392
H	 -1.631049	 1.344913	 0.747560
H	 -1.664587	 -0.001624	 1.849167
C	 0.737842	 -0.043159	 0.423759
H	 -0.806103	 -0.190518	 -1.063345
H	 -0.797221	 -1.503753	 0.074146
C	 1.824000	 -0.743224	 -0.390623
H	 0.850588	 1.033777	 0.343840
H	 0.868587	 -0.286314	 1.476203
C	 2.944956	 0.170697	 -0.888674
H	 1.367301	 -1.244685	 -1.240806
H	 2.264767	 -1.526261	 0.220276
C	 2.510352	 1.211211	 -1.918040
H	 3.722106	 -0.447735	 -1.327256
H	 3.401742	 0.672939	 -0.039840
H	 2.044151	 0.738120	 -2.776479
H	 3.362965	 1.776680	 -2.276563
H	 1.801655	 1.919087	 -1.505407

	symmetry c1
}
set optking {
	frozen_dihedral = ("
		17 13 10 7
	")
}

ee,wfn = optimize('scf', return_wfn=True)
oeprop( wfn, 'DIPOLE', 'QUADRUPOLE', 'MULLIKEN_CHARGES')
f=open( 'psi4out.xyz', 'w' )
f.write( "24  " )
f.write( str(ee) + "\n" )
f.write( MOL.save_string_xyz() )
f.close()
--------------------------------------------------------------------------

    Molecular point group: c1
  Charge       = 0
  Multiplicity = 1
  Basis Set: CC-PVTZ
  Basis Set:
  @DF-RHF Final Energy:  -349.37542767467892
    Total Energy =                       -349.3754276746791447
    Molecular point group: c1
  Basis Set: CC-PVTZ
  Basis Set:
  Basis Set: CC-PVTZ
  Basis Set:
  @DF-RHF Final Energy:  -349.37509636103374
    Total Energy =                       -349.3750963610337408
  Basis Set: CC-PVTZ
  Basis Set:
  Basis Set: CC-PVTZ
  Basis Set:
  @DF-RHF Final Energy:  -349.37579663084546
    Total Energy =                       -349.3757966308452865
  Basis Set: CC-PVTZ
  Basis Set:
  Basis Set: CC-PVTZ
  Basis Set:
  @DF-RHF Final Energy:  -349.37573277864658
    Total Energy =                       -349.3757327786461815
  Basis Set: CC-PVTZ
  Basis Set:
  Basis Set: CC-PVTZ
  Basis Set:
  @DF-RHF Final Energy:  -349.37584906190091
    Total Energy =                       -349.3758490619010217
  Basis Set: CC-PVTZ
  Basis Set:
  Charge       = 0
  Multiplicity = 1
  Basis Set: CC-PVTZ
  Basis Set:

    Orbital Energies (a.u.)
    -----------------------

    Doubly Occupied:

       1A    -20.546282     2A    -11.265549     3A    -11.214997
       4A    -11.212383     5A    -11.210167     6A    -11.209322
       7A    -11.209031     8A    -11.205263     9A     -1.364125
      10A     -1.088467    11A     -1.049142    12A     -0.985448
      13A     -0.916647    14A     -0.850329    15A     -0.801370
      16A     -0.778510    17A     -0.681928    18A     -0.654165
      19A     -0.625442    20A     -0.619028    21A     -0.600561
      22A     -0.577043    23A     -0.569847    24A     -0.534156
      25A     -0.520373    26A     -0.511201    27A     -0.495076
      28A     -0.476276    29A     -0.468350    30A     -0.461120
      31A     -0.454338    32A     -0.448530    33A     -0.420648

  @DF-RHF Final Energy:  -349.37584917397692

   => Energetics <=

    Nuclear Repulsion Energy =            388.1420926593558534
    One-Electron Energy =               -1242.9856599114627898
    Two-Electron Energy =                 505.4677180781299626
    DFT Exchange-Correlation Energy =       0.0000000000000000
    Empirical Dispersion Energy =           0.0000000000000000
    PCM Polarization Energy =               0.0000000000000000
    EFP Energy =                            0.0000000000000000
    Total Energy =                       -349.3758491739769738
    Molecular point group: c1
  Basis Set: CC-PVTZ
  Basis Set:

  -Total Gradient:
     Atom            X                  Y                   Z
    ------   -----------------  -----------------  -----------------
       1        0.000000134422     0.000019024168     0.000001026383
       2        0.000010991795    -0.000026826664    -0.000008302412
       3       -0.000014918405     0.000002562784     0.000027365248
       4        0.000025995525    -0.000045164812     0.000039712453
       5       -0.000006638738    -0.000011787767    -0.000010957350
       6       -0.000012082849    -0.000000334625     0.000008309430
       7        0.000016150507     0.001325621530    -0.001161667890
       8        0.000000457610    -0.000003203402    -0.000018180092
       9       -0.000013867775     0.000011577927     0.000034273730
      10       -0.000056494514    -0.002245350738     0.001753390854
      11       -0.000000320472     0.000037099633    -0.000008528060
      12        0.000000382684    -0.000015190038    -0.000017625036
      13        0.000334040420     0.002834274642    -0.001904925353
      14        0.000017176822     0.000028344115    -0.000045849152
      15        0.000020724278    -0.000001889318    -0.000002501520
      16       -0.000003632307     0.000025863882    -0.000008938440
      17       -0.000296880776    -0.001901468769     0.001261409638
      18        0.000006993016    -0.000010545458     0.000025022423
      19        0.000029360503     0.000011057326     0.000032147706
      20        0.000043700014    -0.000047107368    -0.000008649492
      21       -0.000004717895    -0.000004762967     0.000048450593
      22       -0.000040074777    -0.000049045742    -0.000071317932
      23        0.000027644494    -0.000002561189    -0.000004424863
      24       -0.000084123584     0.000069812849     0.000040759135

  **** Optimization is complete! (in 6 steps) ****
    Final optimized geometry and variables:
    Molecular point group: c1

    Geometry (in Angstrom), charge = 0, multiplicity = 1:

    H           -3.270200798639     1.170294422310    -0.637768101839
    O           -3.284494185740     0.230941982125    -0.604245912558
    C           -2.999952459957    -0.203825624110     0.699335748485
    C           -1.589307721386     0.138952133883     1.154548208237
    H           -3.136840803083    -1.277765154653     0.689163398808
    H           -3.722487056244     0.206836090539     1.400134451140
    C           -0.494174489954    -0.516051192233     0.318649095295
    H           -1.465817184959     1.220925969422     1.138656137370
    H           -1.487737043219    -0.161877326207     2.194548939221
    C            0.914957073988    -0.133076899588     0.764768350976
    H           -0.626936556325    -0.247172141233    -0.723313222135
    H           -0.608459144468    -1.596675290054     0.370473953802
    C            2.029785766925    -0.830105466436    -0.040005001349
    H            1.019009243061     0.944531934499     0.681235168117
    H            1.034898677229    -0.358366672142     1.820085444822
    C            3.156986543856     0.091772498300    -0.507712079442
    H            1.599131361700    -1.336810485674    -0.899182448774
    H            2.461022580758    -1.618841203145     0.568247330012
    C            2.749887193517     1.060329414715    -1.615263032285
    H            3.981881709878    -0.517265550655    -0.864886727600
    H            3.539137513588     0.650569897162     0.342784606606
    H            2.418624603697     0.521289041025    -2.496865873894
    H            3.583576889819     1.689255768340    -1.906376534486
    H            1.941405818084     1.713391844842    -1.306826343618

  Mulliken Charges: (a.u.)
   Center  Symbol    Alpha    Beta     Spin     Total
       1     H     0.39522  0.39522  0.00000  0.20955
       2     O     4.20360  4.20360  0.00000 -0.40721
       3     C     2.97756  2.97756  0.00000  0.04487
       4     C     3.10334  3.10334  0.00000 -0.20668
       5     H     0.45890  0.45890  0.00000  0.08220
       6     H     0.46027  0.46027  0.00000  0.07946
       7     C     3.08650  3.08650  0.00000 -0.17301
       8     H     0.45887  0.45887  0.00000  0.08226
       9     H     0.45321  0.45321  0.00000  0.09359
      10     C     3.10272  3.10272  0.00000 -0.20545
      11     H     0.44582  0.44582  0.00000  0.10836
      12     H     0.45412  0.45412  0.00000  0.09177
      13     C     3.09822  3.09822  0.00000 -0.19643
      14     H     0.45266  0.45266  0.00000  0.09469
      15     H     0.44791  0.44791  0.00000  0.10418
      16     C     3.08900  3.08900  0.00000 -0.17801
      17     H     0.45363  0.45363  0.00000  0.09274
      18     H     0.44735  0.44735  0.00000  0.10530
      19     C     3.14974  3.14974  0.00000 -0.29948
      20     H     0.44901  0.44901  0.00000  0.10197
      21     H     0.45482  0.45482  0.00000  0.09036
      22     H     0.45400  0.45400  0.00000  0.09199
      23     H     0.44748  0.44748  0.00000  0.10504
      24     H     0.45603  0.45603  0.00000  0.08794

   Total alpha = 33.00000, Total beta = 33.00000, Total charge = -0.00000

*** Psi4 exiting successfully. Buy a developer a beer!
