  ==> Input File <==

--------------------------------------------------------------------------
set {
	reference rhf
	basis 6-31G*
}

set_num_threads( 1 )
memory 2 gb

molecule MOL {
0 1

O	 1.093718	 -1.419970	 -4.936517
C	 0.637778	 -0.547389	 -4.261865
C	 0.448670	 -0.737203	 -2.767035
C	 0.257675	 0.793669	 -4.848773
C	 1.780079	 -0.560064	 -2.019296
H	 0.075326	 -1.742980	 -2.607880
H	 -0.288685	 -0.037927	 -2.383177
C	 1.631333	 -0.777471	 -0.511575
H	 2.497641	 -1.257421	 -2.436648
H	 2.171634	 0.439807	 -2.200096
C	 2.915987	 -0.544314	 0.291766
H	 1.272441	 -1.788784	 -0.329452
H	 0.860754	 -0.107946	 -0.135020
C	 3.373361	 0.914346	 0.347591
H	 3.708709	 -1.142521	 -0.150311
H	 2.780642	 -0.921148	 1.303579
H	 3.506512	 1.320010	 -0.651625
H	 4.322697	 0.999599	 0.867103
H	 2.660624	 1.545032	 0.868198
H	 -0.818589	 0.929671	 -4.782258
H	 0.562506	 0.844234	 -5.884777
H	 0.717699	 1.602713	 -4.288746

	symmetry c1
}
set optking {
	frozen_dihedral = ("
		6 3 2 1,
		6 3 5 8,
		3 5 8 12
	")
}

ee = energy('scf')
oeprop('DIPOLE', 'QUADRUPOLE', 'MULLIKEN_CHARGES')
f=open( 'psi4out.xyz', 'w' )
f.write( "22  " )
f.write( str(ee) + "\n" )
f.write( MOL.save_string_xyz() )
f.close()
--------------------------------------------------------------------------

    Molecular point group: c1

    Geometry (in Angstrom), charge = 0, multiplicity = 1:

       Center              X                  Y                   Z               Mass
    ------------   -----------------  -----------------  -----------------  -----------------
           O         -0.433395489796    -1.073570474232    -2.594987074420    15.994914619560
           C         -0.889335489796    -0.200989474232    -1.920335074420    12.000000000000
           C         -1.078443489796    -0.390803474232    -0.425505074420    12.000000000000
           C         -1.269438489796     1.140068525768    -2.507243074420    12.000000000000
           C          0.252965510204    -0.213664474232     0.322233925580    12.000000000000
           H         -1.451787489796    -1.396580474232    -0.266350074420     1.007825032070
           H         -1.815798489796     0.308472525768    -0.041647074420     1.007825032070
           C          0.104219510204    -0.431071474232     1.829954925580    12.000000000000
           H          0.970527510204    -0.911021474232    -0.095118074420     1.007825032070
           H          0.644520510204     0.786206525768     0.141433925580     1.007825032070
           C          1.388873510204    -0.197914474232     2.633295925580    12.000000000000
           H         -0.254672489796    -1.442384474232     2.012077925580     1.007825032070
           H         -0.666359489796     0.238453525768     2.206509925580     1.007825032070
           C          1.846247510204     1.260745525768     2.689120925580    12.000000000000
           H          2.181595510204    -0.796121474232     2.191218925580     1.007825032070
           H          1.253528510204    -0.574748474232     3.645108925580     1.007825032070
           H          1.979398510204     1.666409525768     1.689904925580     1.007825032070
           H          2.795583510204     1.345998525768     3.208632925580     1.007825032070
           H          1.133510510204     1.891431525768     3.209727925580     1.007825032070
           H         -2.345702489796     1.276070525768    -2.440728074420     1.007825032070
           H         -0.964607489796     1.190633525768    -3.543247074420     1.007825032070
           H         -0.809414489796     1.949112525768    -1.947216074420     1.007825032070

  Charge       = 0
  Multiplicity = 1
  Basis Set: 6-31G*
  Basis Set:

    Orbital Energies (a.u.)
    -----------------------

    Doubly Occupied:

       1A    -20.547407     2A    -11.324552     3A    -11.229749
       4A    -11.229147     5A    -11.228291     6A    -11.222417
       7A    -11.220808     8A    -11.213429     9A     -1.393155
      10A     -1.096054    11A     -1.044713    12A     -0.999882
      13A     -0.938374    14A     -0.857843    15A     -0.787673
      16A     -0.733027    17A     -0.661021    18A     -0.646766
      19A     -0.626849    20A     -0.618875    21A     -0.599333
      22A     -0.584720    23A     -0.554330    24A     -0.549892
      25A     -0.534033    26A     -0.519385    27A     -0.500415
      28A     -0.487823    29A     -0.468759    30A     -0.464555
      31A     -0.461357    32A     -0.396362

  @DF-RHF Final Energy:  -348.09768911538902

   => Energetics <=

    Nuclear Repulsion Energy =            373.0887058892737969
    One-Electron Energy =               -1210.8905187017699063
    Two-Electron Energy =                 489.7041236971076614
    DFT Exchange-Correlation Energy =       0.0000000000000000
    Empirical Dispersion Energy =           0.0000000000000000
    PCM Polarization Energy =               0.0000000000000000
    EFP Energy =                            0.0000000000000000
    Total Energy =                       -348.0976891153884480

  Mulliken Charges: (a.u.)
   Center  Symbol    Alpha    Beta     Spin     Total
       1     O     4.26243  4.26243  0.00000 -0.52487
       2     C     2.73714  2.73714  0.00000  0.52572
       3     C     3.19952  3.19952  0.00000 -0.39904
       4     C     3.28959  3.28959  0.00000 -0.57919
       5     C     3.16387  3.16387  0.00000 -0.32774
       6     H     0.40128  0.40128  0.00000  0.19745
       7     H     0.41681  0.41681  0.00000  0.16638
       8     C     3.15279  3.15279  0.00000 -0.30559
       9     H     0.40550  0.40550  0.00000  0.18900
      10     H     0.41965  0.41965  0.00000  0.16071
      11     C     3.15391  3.15391  0.00000 -0.30781
      12     H     0.41811  0.41811  0.00000  0.16378
      13     H     0.42429  0.42429  0.00000  0.15143
      14     C     3.24182  3.24182  0.00000 -0.48364
      15     H     0.42106  0.42106  0.00000  0.15789
      16     H     0.41883  0.41883  0.00000  0.16234
      17     H     0.42123  0.42123  0.00000  0.15755
      18     H     0.41726  0.41726  0.00000  0.16547
      19     H     0.42127  0.42127  0.00000  0.15746
      20     H     0.40689  0.40689  0.00000  0.18622
      21     H     0.39706  0.39706  0.00000  0.20588
      22     H     0.40970  0.40970  0.00000  0.18060

   Total alpha = 32.00000, Total beta = 32.00000, Total charge = -0.00000
