                              Psi4 1.0.54 Driver

  ==> Input File <==

--------------------------------------------------------------------------
set {
	reference rhf
	basis cc-pvtz
}

set_num_threads( 4 )
memory 2 gb

molecule MOL {
0 1

H	 -0.000105	 1.988529	 0.748933
O	 -0.000098	 1.879786	 -0.188206
C	 -0.000014	 0.545691	 -0.532416
C	 -1.286000	 -0.125171	 -0.046657
C	 1.286016	 -0.125031	 -0.046584
H	 0.000021	 0.481103	 -1.610604
F	 -1.236498	 -0.265042	 1.255205
F	 -2.352941	 0.576289	 -0.335280
F	 -1.428756	 -1.323251	 -0.571634
F	 2.317750	 0.468717	 -0.594166
F	 1.336617	 -1.393765	 -0.365123
F	 1.414467	 -0.024806	 1.259108

	symmetry c1
}
set optking {
	frozen_dihedral = ("
		7 4 3 6
	")
}

ee,wfn = optimize('scf', return_wfn=True)
oeprop( wfn, 'DIPOLE', 'QUADRUPOLE', 'MULLIKEN_CHARGES')
f=open( 'psi4out.xyz', 'w' )
f.write( "12  " )
f.write( str(ee) + "\n" )
f.write( MOL.save_string_xyz() )
f.close()
--------------------------------------------------------------------------

    Molecular point group: c1
  Charge       = 0
  Multiplicity = 1
  Basis Set: CC-PVTZ
  Basis Set:
  @DF-RHF Final Energy:  -786.58787966722434
    Total Energy =                       -786.5878796672246835
    Molecular point group: c1
  Basis Set: CC-PVTZ
  Basis Set:
  Basis Set: CC-PVTZ
  Basis Set:
  @DF-RHF Final Energy:  -786.58866040663065
    Total Energy =                       -786.5886604066304244
  Basis Set: CC-PVTZ
  Basis Set:
  Basis Set: CC-PVTZ
  Basis Set:
  @DF-RHF Final Energy:  -786.58897319894288
    Total Energy =                       -786.5889731989428810
  Basis Set: CC-PVTZ
  Basis Set:
  Basis Set: CC-PVTZ
  Basis Set:
  @DF-RHF Final Energy:  -786.58905799664842
    Total Energy =                       -786.5890579966487621
  Basis Set: CC-PVTZ
  Basis Set:
  Basis Set: CC-PVTZ
  Basis Set:
  @DF-RHF Final Energy:  -786.58906953853489
    Total Energy =                       -786.5890695385348863
  Basis Set: CC-PVTZ
  Basis Set:
  Basis Set: CC-PVTZ
  Basis Set:
  @DF-RHF Final Energy:  -786.58907163872436
    Total Energy =                       -786.5890716387243629
  Basis Set: CC-PVTZ
  Basis Set:
  Charge       = 0
  Multiplicity = 1
  Basis Set: CC-PVTZ
  Basis Set:

    Orbital Energies (a.u.)
    -----------------------

    Doubly Occupied:

       1A    -26.358741     2A    -26.358240     3A    -26.357443
       4A    -26.355198     5A    -26.354417     6A    -26.353874
       7A    -20.610416     8A    -11.520276     9A    -11.518713
      10A    -11.351540    11A     -1.771972    12A     -1.766079
      13A     -1.667265    14A     -1.663945    15A     -1.662141
      16A     -1.661063    17A     -1.440313    18A     -1.103500
      19A     -1.001402    20A     -0.945062    21A     -0.870934
      22A     -0.868846    23A     -0.859006    24A     -0.852152
      25A     -0.839730    26A     -0.821616    27A     -0.748339
      28A     -0.734523    29A     -0.732117    30A     -0.725994
      31A     -0.695954    32A     -0.692046    33A     -0.690469
      34A     -0.680991    35A     -0.677506    36A     -0.668410
      37A     -0.664136    38A     -0.658250    39A     -0.625283
      40A     -0.553471    41A     -0.510190

  @DF-RHF Final Energy:  -786.58907197750432

   => Energetics <=

    Nuclear Repulsion Energy =            671.2658383578400390
    One-Electron Energy =               -2429.7266886191564481
    Two-Electron Energy =                 971.8717782838122048
    DFT Exchange-Correlation Energy =       0.0000000000000000
    Empirical Dispersion Energy =           0.0000000000000000
    PCM Polarization Energy =               0.0000000000000000
    EFP Energy =                            0.0000000000000000
    Total Energy =                       -786.5890719775042044
    Molecular point group: c1
  Basis Set: CC-PVTZ
  Basis Set:

  -Total Gradient:
     Atom            X                  Y                   Z
    ------   -----------------  -----------------  -----------------
       1       -0.000003279418    -0.000002168217    -0.000000955176
       2       -0.000009509397    -0.000015906316    -0.000014558565
       3       -0.000879827646     0.001551535788    -0.000121896380
       4       -0.000704626204     0.001572755132     0.000296105464
       5        0.000006585523    -0.000007186801    -0.000014142505
       6        0.000903194573    -0.001653199634     0.000075915682
       7        0.000704205128    -0.001432879973    -0.000204144668
       8       -0.000006028200     0.000011001688    -0.000021798354
       9        0.000021292312    -0.000021179043    -0.000005188066
      10       -0.000007613305    -0.000001173830     0.000011948235
      11       -0.000034622635    -0.000010051301    -0.000015740233
      12        0.000010229261     0.000008452506     0.000014454570

  **** Optimization is complete! (in 7 steps) ****
    Final optimized geometry and variables:
    Molecular point group: c1

    Geometry (in Angstrom), charge = 0, multiplicity = 1:

    H            0.108695018354     1.995968910579     0.772816590284
    O            0.040346067107     1.897747599493    -0.162929801611
    C           -0.003351904544     0.569602123660    -0.522029053141
    C           -1.286675518005    -0.101050078515    -0.025580376803
    C            1.274558704884    -0.140402721588    -0.068368790163
    H           -0.020312451469     0.509588593525    -1.600306509514
    F           -1.276904059112    -0.275435851444     1.278354340876
    F           -2.320362156851     0.643806666505    -0.323686332123
    F           -1.458854603505    -1.272425031775    -0.588501922271
    F            2.299002067266     0.342056556520    -0.728209596882
    F            1.228257022196    -1.431532713463    -0.280735079756
    F            1.499976068224     0.055616653020     1.212918713709

  Mulliken Charges: (a.u.)
   Center  Symbol    Alpha    Beta     Spin     Total
       1     H     0.38192  0.38192  0.00000  0.23617
       2     O     4.18841  4.18841  0.00000 -0.37682
       3     C     3.00563  3.00563  0.00000 -0.01127
       4     C     2.68510  2.68510  0.00000  0.62980
       5     C     2.68378  2.68378  0.00000  0.63244
       6     H     0.42529  0.42529  0.00000  0.14942
       7     F     4.60912  4.60912  0.00000 -0.21824
       8     F     4.60054  4.60054  0.00000 -0.20109
       9     F     4.60474  4.60474  0.00000 -0.20948
      10     F     4.60250  4.60250  0.00000 -0.20500
      11     F     4.60235  4.60235  0.00000 -0.20469
      12     F     4.61061  4.61061  0.00000 -0.22122

   Total alpha = 41.00000, Total beta = 41.00000, Total charge = -0.00000

*** Psi4 exiting successfully. Buy a developer a beer!
