  ==> Input File <==

--------------------------------------------------------------------------
set {
	reference rhf
	basis cc-pvtz
}

set_num_threads( 4 )
memory 2 gb

molecule MOL {
0 1

H	 -2.362939	 -1.309000	 -0.383250
C	 -1.359344	 -1.272457	 0.020748
C	 -0.684082	 0.000127	 -0.464918
H	 -0.825835	 -2.151141	 -0.318537
H	 -1.416276	 -1.292399	 1.099455
C	 -1.359089	 1.272668	 0.021259
N	 0.742439	 -0.000109	 0.007333
H	 -0.596914	 0.000345	 -1.538146
H	 -2.362696	 1.309620	 -0.382686
H	 -0.825392	 2.151374	 -0.317674
H	 -1.415983	 1.292181	 1.099973
O	 1.584829	 -0.182753	 -0.805479
O	 0.935762	 0.182531	 1.162997

	symmetry c1
}
set optking {
	frozen_dihedral = ("
		12 7 3 8
	")
}

ee = optimize('scf')
oeprop('DIPOLE', 'QUADRUPOLE', 'MULLIKEN_CHARGES')
f=open( 'psi4out.xyz', 'w' )
f.write( "13  " )
f.write( str(ee) + "\n" )
f.write( MOL.save_string_xyz() )
f.close()
--------------------------------------------------------------------------

    Molecular point group: c1
  Charge       = 0
  Multiplicity = 1
  Basis Set: CC-PVTZ
  Basis Set:
  @DF-RHF Final Energy:  -321.86450615888486
    Total Energy =                       -321.8645061588847511
    Molecular point group: c1
  Basis Set: CC-PVTZ
  Basis Set:
  Basis Set: CC-PVTZ
  Basis Set:
  @DF-RHF Final Energy:  -321.85857356126110
    Total Energy =                       -321.8585735612610392
  Basis Set: CC-PVTZ
  Basis Set:
  Basis Set: CC-PVTZ
  Basis Set:
  @DF-RHF Final Energy:  -321.86439793375348
    Total Energy =                       -321.8643979337533665
  Basis Set: CC-PVTZ
  Basis Set:
  Basis Set: CC-PVTZ
  Basis Set:
  @DF-RHF Final Energy:  -321.86458270652952
    Total Energy =                       -321.8645827065294611
  Basis Set: CC-PVTZ
  Basis Set:
  Charge       = 0
  Multiplicity = 1
  Basis Set: CC-PVTZ
  Basis Set:

    Orbital Energies (a.u.)
    -----------------------

    Doubly Occupied:

       1A    -20.590281     2A    -20.587789     3A    -15.832566
       4A    -11.304223     5A    -11.244450     6A    -11.241841
       7A     -1.633900     8A     -1.418105     9A     -1.142661
      10A     -0.974258    11A     -0.957240    12A     -0.816610
      13A     -0.751708    14A     -0.732945    15A     -0.726574
      16A     -0.650532    17A     -0.595217    18A     -0.588650
      19A     -0.570895    20A     -0.529864    21A     -0.522793
      22A     -0.485605    23A     -0.469701    24A     -0.452244

  @DF-RHF Final Energy:  -321.86458471904285

   => Energetics <=

    Nuclear Repulsion Energy =            257.3364522199004227
    One-Electron Energy =                -948.7607665343122108
    Two-Electron Energy =                 369.5597295953689354
    DFT Exchange-Correlation Energy =       0.0000000000000000
    Empirical Dispersion Energy =           0.0000000000000000
    PCM Polarization Energy =               0.0000000000000000
    EFP Energy =                            0.0000000000000000
    Total Energy =                       -321.8645847190427958
    Molecular point group: c1
  Basis Set: CC-PVTZ
  Basis Set:

  -Total Gradient:
     Atom            X                  Y                   Z
    ------   -----------------  -----------------  -----------------
       1       -0.000035886976    -0.000051904327     0.000015047527
       2       -0.000035724304     0.000099890105    -0.000028284396
       3       -0.000035667363    -0.000551777683    -0.000044071510
       4       -0.000016582518    -0.000001262765     0.000011332486
       5       -0.000006855811    -0.000025540594    -0.000004966959
       6        0.000049860068     0.000037641000     0.000044087893
       7       -0.000114412886     0.000548894000    -0.000146623574
       8       -0.000025839820     0.000300580475     0.000002047881
       9        0.000028570146    -0.000051727375    -0.000014200242
      10        0.000018129619    -0.000011368139    -0.000016058244
      11        0.000006521233    -0.000010671890     0.000024669540
      12        0.000048044085    -0.000256824202     0.000215281036
      13        0.000119844521    -0.000025928607    -0.000058261439

  **** Optimization is complete! (in 5 steps) ****
    Final optimized geometry and variables:
    Molecular point group: c1

    Geometry (in Angstrom), charge = 0, multiplicity = 1:

    H           -2.360164386036    -1.302582347722    -0.372118288592
    C           -1.353076951974    -1.262933989277     0.022427532422
    C           -0.684090985629     0.013896987945    -0.464923666978
    H           -0.818814945232    -2.138498057344    -0.322958917113
    H           -1.401697841989    -1.283782520997     1.102127363591
    C           -1.365809762848     1.282069004252     0.018620307770
    N            0.742676085403     0.000407826835     0.007258592287
    H           -0.596940498972     0.010394788561    -1.538240476981
    H           -2.365632662999     1.315198477419    -0.395362209147
    H           -0.832702376611     2.163591421518    -0.313760657793
    H           -1.432493058419     1.301469100121     1.096326634589
    O            1.581803200922    -0.193090668584    -0.806574218311
    O            0.939071861681     0.163806327110     1.165105396684

  Mulliken Charges: (a.u.)
   Center  Symbol    Alpha    Beta     Spin     Total
       1     H     0.44869  0.44869  0.00000  0.10261
       2     C     3.14368  3.14368  0.00000 -0.28736
       3     C     3.00761  3.00761  0.00000 -0.01522
       4     H     0.43976  0.43976  0.00000  0.12048
       5     H     0.43982  0.43982  0.00000  0.12037
       6     C     3.14472  3.14472  0.00000 -0.28943
       7     N     3.27531  3.27531  0.00000  0.44938
       8     H     0.42478  0.42478  0.00000  0.15045
       9     H     0.44956  0.44956  0.00000  0.10088
      10     H     0.44128  0.44128  0.00000  0.11743
      11     H     0.43811  0.43811  0.00000  0.12378
      12     O     4.16911  4.16911  0.00000 -0.33822
      13     O     4.17757  4.17757  0.00000 -0.35514

   Total alpha = 24.00000, Total beta = 24.00000, Total charge = -0.00000
