  ==> Input File <==

--------------------------------------------------------------------------
set {
	reference rhf
	basis 6-31G*
}

set_num_threads( 4 )
memory 2 gb

molecule MOL {
0 1

H	 -2.646374	 -0.642757	 1.268656
C	 -2.083525	 -0.384536	 0.393091
O	 -0.807605	 -0.127164	 0.768327
F	 -2.118945	 -1.383102	 -0.486752
F	 -2.621877	 0.670592	 -0.209486
C	 0.084052	 0.273579	 -0.209957
C	 1.353033	 -0.546803	 -0.018071
Cl	 0.433844	 2.004619	 -0.074457
H	 -0.288836	 0.092657	 -1.202930
F	 2.406112	 0.240925	 0.033400
F	 1.496210	 -1.354507	 -1.049842
F	 1.313644	 -1.270949	 1.073732

	symmetry c1
}
set optking {
	frozen_dihedral = ("
		10 7 6 9
	")
}

ee = optimize('scf')
oeprop('DIPOLE', 'QUADRUPOLE', 'MULLIKEN_CHARGES')
f=open( 'psi4out.xyz', 'w' )
f.write( "12  " )
f.write( str(ee) + "\n" )
f.write( MOL.save_string_xyz() )
f.close()
--------------------------------------------------------------------------

    Molecular point group: c1
  Charge       = 0
  Multiplicity = 1
  Basis Set: 6-31G*
  Basis Set:
  @DF-RHF Final Energy: -1146.30310810142282
    Total Energy =                      -1146.3031081014219126
    Molecular point group: c1
  Basis Set: 6-31G*
  Basis Set:
  Basis Set: 6-31G*
  Basis Set:
  @DF-RHF Final Energy: -1146.30293370683921
    Total Energy =                      -1146.3029337068392124
  Basis Set: 6-31G*
  Basis Set:
  Basis Set: 6-31G*
  Basis Set:
  @DF-RHF Final Energy: -1146.30520807284620
    Total Energy =                      -1146.3052080728471083
  Basis Set: 6-31G*
  Basis Set:
  Basis Set: 6-31G*
  Basis Set:
  @DF-RHF Final Energy: -1146.30529824196469
    Total Energy =                      -1146.3052982419644650
  Basis Set: 6-31G*
  Basis Set:
  Basis Set: 6-31G*
  Basis Set:
  @DF-RHF Final Energy: -1146.30530830415591
    Total Energy =                      -1146.3053083041556874
  Basis Set: 6-31G*
  Basis Set:
  Charge       = 0
  Multiplicity = 1
  Basis Set: 6-31G*
  Basis Set:

    Orbital Energies (a.u.)
    -----------------------

    Doubly Occupied:

       1A   -104.843368     2A    -26.358596     3A    -26.358250
       4A    -26.356241     5A    -26.345818     6A    -26.345746
       7A    -20.647233     8A    -11.529838     9A    -11.488721
      10A    -11.401750    11A    -10.577973    12A     -8.047326
      13A     -8.043780    14A     -8.043702    15A     -1.761490
      16A     -1.717069    17A     -1.656436    18A     -1.655277
      19A     -1.637882    20A     -1.484306    21A     -1.176701
      22A     -1.048050    23A     -0.986007    24A     -0.918678
      25A     -0.857396    26A     -0.851113    27A     -0.845141
      28A     -0.824605    29A     -0.811624    30A     -0.791194
      31A     -0.726113    32A     -0.723447    33A     -0.704439
      34A     -0.701635    35A     -0.677743    36A     -0.673410
      37A     -0.657998    38A     -0.656056    39A     -0.646500
      40A     -0.629491    41A     -0.596251    42A     -0.578413
      43A     -0.522293    44A     -0.474931    45A     -0.468131

  @DF-RHF Final Energy: -1146.30530911842152

   => Energetics <=

    Nuclear Repulsion Energy =            735.1495360935153940
    One-Electron Energy =               -3053.2133665243900396
    Two-Electron Energy =                1171.7585213124539223
    DFT Exchange-Correlation Energy =       0.0000000000000000
    Empirical Dispersion Energy =           0.0000000000000000
    PCM Polarization Energy =               0.0000000000000000
    EFP Energy =                            0.0000000000000000
    Total Energy =                      -1146.3053091184206096
    Molecular point group: c1
  Basis Set: 6-31G*
  Basis Set:

  -Total Gradient:
     Atom            X                  Y                   Z
    ------   -----------------  -----------------  -----------------
       1        0.000010686909     0.000017425175     0.000002577395
       2        0.000025689059     0.000007366960    -0.000135783018
       3        0.000061209019     0.000001779582     0.000042870201
       4       -0.000031564587    -0.000063809965     0.000014265279
       5       -0.000036474459     0.000029945232     0.000044531254
       6        0.001967819516     0.002842808493    -0.000389461924
       7       -0.000065481102    -0.000893290447    -0.003240658994
       8        0.000005139959     0.000019550470    -0.000011667002
       9       -0.001644987490    -0.002317556231     0.001099300168
      10       -0.000232946374     0.000267203076     0.002617085065
      11       -0.000029064008     0.000004038476    -0.000100030240
      12       -0.000030026428     0.000084539168     0.000056971816

  **** Optimization is complete! (in 6 steps) ****
    Final optimized geometry and variables:
    Molecular point group: c1

    Geometry (in Angstrom), charge = 0, multiplicity = 1:

    H           -2.664455358121    -0.638680248705     1.255137940594
    C           -2.087326412668    -0.385947083004     0.387357657266
    O           -0.823785096625    -0.106378313284     0.784309453252
    F           -2.089913268106    -1.400838037279    -0.476253591301
    F           -2.630929275587     0.649462877936    -0.244115936905
    C            0.080834017395     0.295198371258    -0.183845262601
    C            1.371692440897    -0.549974495795    -0.021318862558
    CL           0.383728506987     2.033740878305    -0.049882029108
    H           -0.305682866768     0.104871681179    -1.168549315388
    F            2.462987209471     0.176590200850     0.007515653831
    F            1.460052616438    -1.375610910846    -1.049537294041
    F            1.343575203854    -1.270370017132     1.074215755574

  Mulliken Charges: (a.u.)
   Center  Symbol    Alpha    Beta     Spin     Total
       1     H     0.40116  0.40116  0.00000  0.19768
       2     C     2.56669  2.56669  0.00000  0.86661
       3     O     4.29341  4.29341  0.00000 -0.58681
       4     F     4.68748  4.68748  0.00000 -0.37496
       5     F     4.68441  4.68441  0.00000 -0.36881
       6     C     3.07171  3.07171  0.00000 -0.14343
       7     C     2.42434  2.42434  0.00000  1.15131
       8    CL     8.49430  8.49430  0.00000  0.01140
       9     H     0.36274  0.36274  0.00000  0.27452
      10     F     4.66770  4.66770  0.00000 -0.33541
      11     F     4.67862  4.67862  0.00000 -0.35725
      12     F     4.66743  4.66743  0.00000 -0.33486

   Total alpha = 45.00000, Total beta = 45.00000, Total charge =  0.00000
