                              Psi4 1.0.54 Driver

  ==> Input File <==

--------------------------------------------------------------------------
set {
	reference rhf
	basis cc-pvtz
}

set_num_threads( 4 )
memory 2 gb

molecule MOL {
0 1

H	 2.763410	 0.480786	 -0.705151
N	 2.326826	 -0.066186	 0.000000
C	 0.934676	 -0.005420	 0.000000
H	 2.699348	 -0.986880	 0.023943
C	 0.226436	 -0.001077	 -1.195129
C	 0.226436	 -0.001077	 1.195129
H	 0.759091	 -0.011439	 -2.128123
C	 -1.153391	 0.009141	 -1.189028
H	 0.759091	 -0.011439	 2.128123
C	 -1.153391	 0.009141	 1.189028
H	 -1.680905	 0.012964	 -2.124348
C	 -1.857876	 0.014675	 0.000000
H	 -1.680905	 0.012964	 2.124348
H	 -2.930222	 0.022904	 0.000000

	symmetry c1
}
set optking {
	frozen_dihedral = ("
		1 2 3 5
	")
}

ee,wfn = optimize('scf', return_wfn=True)
oeprop( wfn, 'DIPOLE', 'QUADRUPOLE', 'MULLIKEN_CHARGES')
f=open( 'psi4out.xyz', 'w' )
f.write( "14  " )
f.write( str(ee) + "\n" )
f.write( MOL.save_string_xyz() )
f.close()
--------------------------------------------------------------------------

    Molecular point group: c1
  Charge       = 0
  Multiplicity = 1
  Basis Set: CC-PVTZ
  Basis Set:
  @DF-RHF Final Energy:  -285.82669585679849
    Total Energy =                       -285.8266958567986080
    Molecular point group: c1
  Basis Set: CC-PVTZ
  Basis Set:
  Basis Set: CC-PVTZ
  Basis Set:
  @DF-RHF Final Energy:  -285.82762034507778
    Total Energy =                       -285.8276203450778326
  Basis Set: CC-PVTZ
  Basis Set:
  Basis Set: CC-PVTZ
  Basis Set:
  @DF-RHF Final Energy:  -285.82780279083391
    Total Energy =                       -285.8278027908338572
  Basis Set: CC-PVTZ
  Basis Set:
  Basis Set: CC-PVTZ
  Basis Set:
  @DF-RHF Final Energy:  -285.82786484105475
    Total Energy =                       -285.8278648410546339
  Basis Set: CC-PVTZ
  Basis Set:
  Basis Set: CC-PVTZ
  Basis Set:
  @DF-RHF Final Energy:  -285.82787353988033
    Total Energy =                       -285.8278735398805566
  Basis Set: CC-PVTZ
  Basis Set:
  Charge       = 0
  Multiplicity = 1
  Basis Set: CC-PVTZ
  Basis Set:

    Orbital Energies (a.u.)
    -----------------------

    Doubly Occupied:

       1A    -15.542598     2A    -11.260569     3A    -11.228205
       4A    -11.226799     5A    -11.223079     6A    -11.222669
       7A    -11.218972     8A     -1.210697     9A     -1.131437
      10A     -1.015563    11A     -0.989886    12A     -0.830657
      13A     -0.811053    14A     -0.706052    15A     -0.669694
      16A     -0.648858    17A     -0.627362    18A     -0.594432
      19A     -0.585338    20A     -0.509519    21A     -0.502204
      22A     -0.494932    23A     -0.416303    24A     -0.336176
      25A     -0.323707

  @DF-RHF Final Energy:  -285.82787417626179

   => Energetics <=

    Nuclear Repulsion Energy =            273.0387572864983099
    One-Electron Energy =                -927.0797420470289580
    Two-Electron Energy =                 368.2131105842690317
    DFT Exchange-Correlation Energy =       0.0000000000000000
    Empirical Dispersion Energy =           0.0000000000000000
    PCM Polarization Energy =               0.0000000000000000
    EFP Energy =                            0.0000000000000000
    Total Energy =                       -285.8278741762615596
    Molecular point group: c1
  Basis Set: CC-PVTZ
  Basis Set:

  -Total Gradient:
     Atom            X                  Y                   Z
    ------   -----------------  -----------------  -----------------
       1       -0.000019062173     0.001902743943     0.001555036122
       2        0.000007883466    -0.003514451499    -0.001935183924
       3        0.000041461422     0.003487472072     0.000330009955
       4       -0.000031984678     0.000084563349    -0.000005325737
       5       -0.000010309671    -0.001998831039     0.000020436905
       6       -0.000032189936     0.000036969023     0.000024486519
       7       -0.000002176741     0.000002656433     0.000003775213
       8        0.000001970146     0.000062619734     0.000011484876
       9        0.000000523768    -0.000010625676    -0.000003727083
      10        0.000045502092    -0.000031986594     0.000009461379
      11       -0.000001661620    -0.000008161237    -0.000001807209
      12       -0.000000943478    -0.000019088921    -0.000013942846
      13       -0.000003424350     0.000008425646     0.000003072177
      14        0.000004411751    -0.000002305234     0.000002223652

  **** Optimization is complete! (in 6 steps) ****
    Final optimized geometry and variables:
    Molecular point group: c1

    Geometry (in Angstrom), charge = 0, multiplicity = 1:

    H            2.763073452186     0.529040284711    -0.655941426219
    N            2.350791006271    -0.043830587698     0.047077730103
    C            0.926719977388    -0.008355157385     0.001337603802
    H            2.708368437114    -0.970810693054    -0.036807172248
    C            0.221898074151    -0.007666429336    -1.192500217070
    C            0.223761594613     0.007970090603     1.193877150565
    H            0.758184580610    -0.030811642885    -2.123153995258
    C           -1.159657990731     0.026032907559    -1.192986137971
    H            0.772001192217     0.015047613047     2.115629940607
    C           -1.158241464422     0.023697029042     1.193436548346
    H           -1.690891141418     0.033967815384    -2.125854493216
    C           -1.855845405221     0.037234352625     0.000603321643
    H           -1.689372772636     0.035304627283     2.126285230980
    H           -2.928701710642     0.057658424954     0.000859306291

  Mulliken Charges: (a.u.)
   Center  Symbol    Alpha    Beta     Spin     Total
       1     H     0.42089  0.42089  0.00000  0.15822
       2     N     3.70466  3.70466  0.00000 -0.40931
       3     C     2.89855  2.89855  0.00000  0.20290
       4     H     0.42113  0.42113  0.00000  0.15774
       5     C     3.11340  3.11340  0.00000 -0.22680
       6     C     3.10107  3.10107  0.00000 -0.20214
       7     H     0.42713  0.42713  0.00000  0.14574
       8     C     3.07238  3.07238  0.00000 -0.14475
       9     H     0.41831  0.41831  0.00000  0.16338
      10     C     3.06568  3.06568  0.00000 -0.13137
      11     H     0.42369  0.42369  0.00000  0.15263
      12     C     3.08602  3.08602  0.00000 -0.17204
      13     H     0.42326  0.42326  0.00000  0.15347
      14     H     0.42383  0.42383  0.00000  0.15233

   Total alpha = 25.00000, Total beta = 25.00000, Total charge = -0.00000

*** Psi4 exiting successfully. Buy a developer a beer!
