  ==> Input File <==

--------------------------------------------------------------------------
set {
	reference rhf
	basis 6-31G*
}

set_num_threads( 1 )
memory 2 gb

molecule MOL {
0 1

H	 -1.523071	 -0.237770	 -0.001739
N	 -0.626943	 -0.667432	 -0.000092
C	 -0.561099	 -2.111171	 0.000144
C	 0.469286	 0.129090	 0.000148
H	 -1.045956	 -2.521975	 0.879439
H	 0.476998	 -2.401094	 0.005321
H	 -1.037115	 -2.522330	 -0.883817
C	 1.788933	 -0.616240	 -0.000037
O	 0.411098	 1.327768	 -0.000049
H	 1.872803	 -1.245775	 -0.880381
H	 2.595421	 0.101576	 0.003713
H	 1.870096	 -1.252171	 0.875943

	symmetry c1
}
set optking {
	frozen_dihedral = ("
		4 2 3 5
	")
}

ee = energy('scf')
oeprop('DIPOLE', 'QUADRUPOLE', 'MULLIKEN_CHARGES')
f=open( 'psi4out.xyz', 'w' )
f.write( "12  " )
f.write( str(ee) + "\n" )
f.write( MOL.save_string_xyz() )
f.close()
--------------------------------------------------------------------------

    Molecular point group: c1

    Geometry (in Angstrom), charge = 0, multiplicity = 1:

       Center              X                  Y                   Z               Mass
    ------------   -----------------  -----------------  -----------------  -----------------
           H         -1.815956237496     0.165319849844    -0.001731540522     1.007825032070
           N         -0.919828237496    -0.264342150156    -0.000084540522    14.003074004780
           C         -0.853984237496    -1.708081150156     0.000151459478    12.000000000000
           C          0.176400762504     0.532179849844     0.000155459478    12.000000000000
           H         -1.338841237496    -2.118885150156     0.879446459478     1.007825032070
           H          0.184112762504    -1.998004150156     0.005328459478     1.007825032070
           H         -1.330000237496    -2.119240150156    -0.883809540522     1.007825032070
           C          1.496047762504    -0.213150150156    -0.000029540522    12.000000000000
           O          0.118212762504     1.730857849844    -0.000041540522    15.994914619560
           H          1.579917762504    -0.842685150156    -0.880373540522     1.007825032070
           H          2.302535762504     0.504665849844     0.003720459478     1.007825032070
           H          1.577210762504    -0.849081150156     0.875950459478     1.007825032070

  Charge       = 0
  Multiplicity = 1
  Basis Set: 6-31G*
  Basis Set:

    Orbital Energies (a.u.)
    -----------------------

    Doubly Occupied:

       1A    -20.514292     2A    -15.581452     3A    -11.343894
       4A    -11.268217     5A    -11.230010     6A     -1.382086
       7A     -1.234079     8A     -1.005998     9A     -0.957465
      10A     -0.789628    11A     -0.674930    12A     -0.667974
      13A     -0.641469    14A     -0.587054    15A     -0.581681
      16A     -0.567800    17A     -0.546217    18A     -0.514016
      19A     -0.410549    20A     -0.383074

  @DF-RHF Final Energy:  -246.99592035940424

   => Energetics <=

    Nuclear Repulsion Energy =            182.4865748671870733
    One-Electron Energy =                -697.2011236214985956
    Two-Electron Energy =                 267.7186283949073982
    DFT Exchange-Correlation Energy =       0.0000000000000000
    Empirical Dispersion Energy =           0.0000000000000000
    PCM Polarization Energy =               0.0000000000000000
    EFP Energy =                            0.0000000000000000
    Total Energy =                       -246.9959203594041242

  Mulliken Charges: (a.u.)
   Center  Symbol    Alpha    Beta     Spin     Total
       1     H     0.30514  0.30514  0.00000  0.38973
       2     N     3.88818  3.88818  0.00000 -0.77637
       3     C     3.14069  3.14069  0.00000 -0.28138
       4     C     2.62383  2.62383  0.00000  0.75233
       5     H     0.41201  0.41201  0.00000  0.17599
       6     H     0.40451  0.40451  0.00000  0.19098
       7     H     0.41207  0.41207  0.00000  0.17585
       8     C     3.31200  3.31200  0.00000 -0.62401
       9     O     4.30138  4.30138  0.00000 -0.60276
      10     H     0.40529  0.40529  0.00000  0.18941
      11     H     0.38949  0.38949  0.00000  0.22102
      12     H     0.40540  0.40540  0.00000  0.18919

   Total alpha = 20.00000, Total beta = 20.00000, Total charge =  0.00000
