  ==> Input File <==

--------------------------------------------------------------------------
set {
	reference rhf
	basis 6-31G*
}

set_num_threads( 1 )
memory 2 gb

molecule MOL {
0 1

H	 2.232428	 -2.254664	 -1.709030
O	 1.923298	 -1.957981	 -0.858634
C	 1.158344	 -0.883228	 -1.048809
C	 0.624473	 -0.343591	 0.253101
O	 0.950349	 -0.439778	 -2.130985
C	 -0.265902	 0.883932	 0.072916
H	 0.101996	 -1.158439	 0.743421
H	 1.481107	 -0.118242	 0.883298
C	 -1.728698	 0.646073	 0.462102
H	 -0.209144	 1.219470	 -0.958188
H	 0.135059	 1.692851	 0.673903
C	 -2.482460	 -0.343073	 -0.431425
H	 -2.245265	 1.602650	 0.432430
H	 -1.779332	 0.308348	 1.496285
C	 -3.960546	 -0.461025	 -0.060175
H	 -2.395034	 -0.026811	 -1.468912
H	 -2.024850	 -1.327147	 -0.371646
H	 -4.472726	 -1.168004	 -0.705284
H	 -4.465146	 0.496508	 -0.151489
H	 -4.081218	 -0.800940	 0.964585

	symmetry c1
}
set optking {
	frozen_dihedral = ("
		16 12 9 6,
		12 9 6 10,
		5 3 4 7,
		1 2 3 5
	")
}

ee = energy('scf')
oeprop('DIPOLE', 'QUADRUPOLE', 'MULLIKEN_CHARGES')
f=open( 'psi4out.xyz', 'w' )
f.write( "20  " )
f.write( str(ee) + "\n" )
f.write( MOL.save_string_xyz() )
f.close()
--------------------------------------------------------------------------

    Molecular point group: c1

    Geometry (in Angstrom), charge = 0, multiplicity = 1:

       Center              X                  Y                   Z               Mass
    ------------   -----------------  -----------------  -----------------  -----------------
           H          2.678265939153    -1.859179451754    -1.217848824167     1.007825032070
           O          2.369135939153    -1.562496451754    -0.367452824167    15.994914619560
           C          1.604181939153    -0.487743451754    -0.557627824167    12.000000000000
           C          1.070310939153     0.051893548246     0.744282175833    12.000000000000
           O          1.396186939153    -0.044293451754    -1.639803824167    15.994914619560
           C          0.179935939153     1.279416548246     0.564097175833    12.000000000000
           H          0.547833939153    -0.762954451754     1.234602175833     1.007825032070
           H          1.926944939153     0.277242548246     1.374479175833     1.007825032070
           C         -1.282860060847     1.041557548246     0.953283175833    12.000000000000
           H          0.236693939153     1.614954548246    -0.467006824167     1.007825032070
           H          0.580896939153     2.088335548246     1.165084175833     1.007825032070
           C         -2.036622060847     0.052411548246     0.059756175833    12.000000000000
           H         -1.799427060847     1.998134548246     0.923611175833     1.007825032070
           H         -1.333494060847     0.703832548246     1.987466175833     1.007825032070
           C         -3.514708060847    -0.065540451754     0.431006175833    12.000000000000
           H         -1.949196060847     0.368673548246    -0.977730824167     1.007825032070
           H         -1.579012060847    -0.931662451754     0.119535175833     1.007825032070
           H         -4.026888060847    -0.772519451754    -0.214102824167     1.007825032070
           H         -4.019308060847     0.891992548246     0.339692175833     1.007825032070
           H         -3.635380060847    -0.405455451754     1.455766175833     1.007825032070

  Charge       = 0
  Multiplicity = 1
  Basis Set: 6-31G*
  Basis Set:

    Orbital Energies (a.u.)
    -----------------------

    Doubly Occupied:

       1A    -20.613233     2A    -20.552626     3A    -11.381650
       4A    -11.239008     5A    -11.218842     6A    -11.217581
       7A    -11.215877     8A    -11.209305     9A     -1.475362
      10A     -1.366761    11A     -1.094242    12A     -1.038241
      13A     -0.958901    14A     -0.869102    15A     -0.812907
      16A     -0.774620    17A     -0.701045    18A     -0.694081
      19A     -0.661556    20A     -0.631847    21A     -0.602959
      22A     -0.592477    23A     -0.574490    24A     -0.554089
      25A     -0.531959    26A     -0.512018    27A     -0.495456
      28A     -0.480261    29A     -0.465626    30A     -0.464051
      31A     -0.452754    32A     -0.445911

  @DF-RHF Final Energy:  -383.94449649371859

   => Energetics <=

    Nuclear Repulsion Energy =            384.7242926025849101
    One-Electron Energy =               -1285.5397749255184863
    Two-Electron Energy =                 516.8709858292141917
    DFT Exchange-Correlation Energy =       0.0000000000000000
    Empirical Dispersion Energy =           0.0000000000000000
    PCM Polarization Energy =               0.0000000000000000
    EFP Energy =                            0.0000000000000000
    Total Energy =                       -383.9444964937193845

  Mulliken Charges: (a.u.)
   Center  Symbol    Alpha    Beta     Spin     Total
       1     H     0.26774  0.26774  0.00000  0.46451
       2     O     4.35021  4.35021  0.00000 -0.70041
       3     C     2.62750  2.62750  0.00000  0.74499
       4     C     3.21414  3.21414  0.00000 -0.42829
       5     O     4.27862  4.27862  0.00000 -0.55723
       6     C     3.16472  3.16472  0.00000 -0.32945
       7     H     0.39566  0.39566  0.00000  0.20869
       8     H     0.39486  0.39486  0.00000  0.21029
       9     C     3.15572  3.15572  0.00000 -0.31143
      10     H     0.39316  0.39316  0.00000  0.21368
      11     H     0.41684  0.41684  0.00000  0.16632
      12     C     3.15423  3.15423  0.00000 -0.30846
      13     H     0.42007  0.42007  0.00000  0.15987
      14     H     0.42499  0.42499  0.00000  0.15003
      15     C     3.23933  3.23933  0.00000 -0.47865
      16     H     0.41496  0.41496  0.00000  0.17007
      17     H     0.42537  0.42537  0.00000  0.14927
      18     H     0.41825  0.41825  0.00000  0.16351
      19     H     0.42101  0.42101  0.00000  0.15798
      20     H     0.42264  0.42264  0.00000  0.15472

   Total alpha = 32.00000, Total beta = 32.00000, Total charge = -0.00000
