  ==> Input File <==

--------------------------------------------------------------------------
set {
	reference rhf
	basis cc-pvtz
}

set_num_threads( 4 )
memory 2 gb

molecule MOL {
0 1

H	 -0.416319	 -1.446799	 -2.170089
C	 -0.732908	 -0.413977	 -2.066678
O	 -0.775228	 0.000056	 -0.739966
H	 -1.739596	 -0.330891	 -2.451161
H	 -0.086345	 0.208997	 -2.676179
C	 0.406133	 -0.000384	 0.036994
C	 1.526415	 -0.003194	 -0.997339
C	 0.498772	 1.259027	 0.900673
C	 0.495883	 -1.257378	 0.904465
H	 1.452279	 0.872071	 -1.630204
H	 1.451276	 -0.881020	 -1.626529
H	 2.497919	 -0.002741	 -0.517601
H	 0.368981	 2.144239	 0.289753
H	 1.470064	 1.313479	 1.377660
H	 -0.248448	 1.271586	 1.684297
H	 0.363971	 -2.144195	 0.296316
H	 1.467114	 -1.312636	 1.381470
H	 -0.251246	 -1.265768	 1.688235

	symmetry c1
}
set optking {
	frozen_dihedral = ("
		2 3 6 7
	")
}

ee = optimize('scf')
oeprop('DIPOLE', 'QUADRUPOLE', 'MULLIKEN_CHARGES')
f=open( 'psi4out.xyz', 'w' )
f.write( "18  " )
f.write( str(ee) + "\n" )
f.write( MOL.save_string_xyz() )
f.close()
--------------------------------------------------------------------------

    Molecular point group: c1
  Charge       = 0
  Multiplicity = 1
  Basis Set: CC-PVTZ
  Basis Set:
  @DF-RHF Final Energy:  -271.26053041215545
    Total Energy =                       -271.2605304121549921
    Molecular point group: c1
  Basis Set: CC-PVTZ
  Basis Set:
  Basis Set: CC-PVTZ
  Basis Set:
  @DF-RHF Final Energy:  -271.26608813981937
    Total Energy =                       -271.2660881398195443
  Basis Set: CC-PVTZ
  Basis Set:
  Basis Set: CC-PVTZ
  Basis Set:
  @DF-RHF Final Energy:  -271.27214470579423
    Total Energy =                       -271.2721447057945170
  Basis Set: CC-PVTZ
  Basis Set:
  Basis Set: CC-PVTZ
  Basis Set:
  @DF-RHF Final Energy:  -271.27347177522716
    Total Energy =                       -271.2734717752269376
  Basis Set: CC-PVTZ
  Basis Set:
  Basis Set: CC-PVTZ
  Basis Set:
  @DF-RHF Final Energy:  -271.27354188329679
    Total Energy =                       -271.2735418832967298
  Basis Set: CC-PVTZ
  Basis Set:
  Basis Set: CC-PVTZ
  Basis Set:
  @DF-RHF Final Energy:  -271.27366470103550
    Total Energy =                       -271.2736647010356137
  Basis Set: CC-PVTZ
  Basis Set:
  Basis Set: CC-PVTZ
  Basis Set:
  @DF-RHF Final Energy:  -271.27367183641820
    Total Energy =                       -271.2736718364182025
  Basis Set: CC-PVTZ
  Basis Set:
  Charge       = 0
  Multiplicity = 1
  Basis Set: CC-PVTZ
  Basis Set:

    Orbital Energies (a.u.)
    -----------------------

    Doubly Occupied:

       1A    -20.538097     2A    -11.280513     3A    -11.259360
       4A    -11.211257     5A    -11.202799     6A    -11.202158
       7A     -1.370657     8A     -1.075400     9A     -0.951338
      10A     -0.936061    11A     -0.912504    12A     -0.752484
      13A     -0.657743    14A     -0.647937    15A     -0.639104
      16A     -0.585335    17A     -0.576717    18A     -0.550757
      19A     -0.539654    20A     -0.526924    21A     -0.515399
      22A     -0.491477    23A     -0.484890    24A     -0.443563
      25A     -0.400305

  @DF-RHF Final Energy:  -271.27367180361870

   => Energetics <=

    Nuclear Repulsion Energy =            272.2747387380716759
    One-Electron Energy =                -907.5919621413590903
    Two-Electron Energy =                 364.0435515996687172
    DFT Exchange-Correlation Energy =       0.0000000000000000
    Empirical Dispersion Energy =           0.0000000000000000
    PCM Polarization Energy =               0.0000000000000000
    EFP Energy =                            0.0000000000000000
    Total Energy =                       -271.2736718036187540
    Molecular point group: c1
  Basis Set: CC-PVTZ
  Basis Set:

  -Total Gradient:
     Atom            X                  Y                   Z
    ------   -----------------  -----------------  -----------------
       1        0.000020000571    -0.000017861314     0.000013295098
       2        0.000518515634     0.002910757192    -0.000883008591
       3       -0.000854501006    -0.005506674005     0.001440773965
       4        0.000000740975     0.000014861518     0.000036328030
       5        0.000003280850    -0.000000367525    -0.000006369491
       6        0.000194546909     0.005201695286    -0.000586812533
       7        0.000057687179    -0.002577292328     0.000147246605
       8       -0.000027912223    -0.000033633258    -0.000082790229
       9        0.000070118901     0.000019667203    -0.000075831896
      10       -0.000006867410     0.000039795486     0.000052748653
      11       -0.000055212464    -0.000023176871    -0.000015125632
      12        0.000024540666    -0.000026384220    -0.000014100858
      13        0.000018897627    -0.000029030880    -0.000004199770
      14       -0.000000429070    -0.000020272946     0.000046116259
      15       -0.000025110105     0.000013204733    -0.000047601885
      16       -0.000013417821    -0.000033996278     0.000023035408
      17        0.000054549115    -0.000028922549     0.000010542334
      18        0.000020571670     0.000097630755    -0.000054245469

  **** Optimization is complete! (in 8 steps) ****
    Final optimized geometry and variables:
    Molecular point group: c1

    Geometry (in Angstrom), charge = 0, multiplicity = 1:

    H           -0.796308177342    -1.349043962937    -1.824588747466
    C           -1.123890707018    -0.324673906144    -1.666580483065
    O           -1.012045579212     0.073552598799    -0.340225568671
    H           -2.173449382734    -0.267009051171    -1.918440870104
    H           -0.576346628856     0.321349103420    -2.344098150517
    C            0.238069968870     0.068022643435     0.331690676264
    C            1.443337236948     0.071054764089    -0.609074859958
    C            0.239675024898     1.325071024404     1.193741153197
    C            0.276640915737    -1.183127722368     1.210548634677
    H            1.442289733216     0.939492351721    -1.256560753354
    H            1.482539184585    -0.817855817582    -1.224928827847
    H            2.350958651048     0.101420408649    -0.019349665892
    H            0.224392923651     2.210766748912     0.570279888700
    H            1.118633253448     1.363283608955     1.827191894332
    H           -0.640461741111     1.342115881680     1.823590094723
    H            0.224767498185    -2.079276727883     0.602461095518
    H            1.187911834220    -1.225943438626     1.796666405567
    H           -0.568968274198    -1.186861090658     1.886391950851

  Mulliken Charges: (a.u.)
   Center  Symbol    Alpha    Beta     Spin     Total
       1     H     0.47037  0.47037  0.00000  0.05926
       2     C     3.04190  3.04190  0.00000 -0.08380
       3     O     4.19763  4.19763  0.00000 -0.39525
       4     H     0.44260  0.44260  0.00000  0.11480
       5     H     0.46765  0.46765  0.00000  0.06470
       6     C     2.87185  2.87185  0.00000  0.25630
       7     C     3.17584  3.17584  0.00000 -0.35168
       8     C     3.14044  3.14044  0.00000 -0.28088
       9     C     3.14552  3.14552  0.00000 -0.29105
      10     H     0.44534  0.44534  0.00000  0.10931
      11     H     0.44428  0.44428  0.00000  0.11143
      12     H     0.44304  0.44304  0.00000  0.11392
      13     H     0.45200  0.45200  0.00000  0.09599
      14     H     0.45894  0.45894  0.00000  0.08212
      15     H     0.44732  0.44732  0.00000  0.10536
      16     H     0.45121  0.45121  0.00000  0.09758
      17     H     0.45577  0.45577  0.00000  0.08847
      18     H     0.44830  0.44830  0.00000  0.10341

   Total alpha = 25.00000, Total beta = 25.00000, Total charge = -0.00000
