                              Psi4 1.0.54 Driver

  ==> Input File <==

--------------------------------------------------------------------------
set {
	reference rhf
	basis cc-pvtz
}

set_num_threads( 4 )
memory 2 gb

molecule MOL {
0 1

H	 0.271860	 -2.372164	 0.683693
C	 -0.560527	 -1.685687	 0.849010
N	 -0.537714	 -0.645117	 0.000000
O	 -1.372685	 -1.878083	 1.697598
C	 -1.522613	 0.412524	 0.000000
H	 0.200477	 -0.611462	 -0.658730
H	 -2.150256	 0.356137	 -0.880771
H	 -1.005621	 1.357208	 0.000000
H	 -2.150256	 0.356137	 0.880771

	symmetry c1
}
set optking {
	frozen_dihedral = ("
		6 3 5 7
	")
}

ee,wfn = optimize('scf', return_wfn=True)
oeprop( wfn, 'DIPOLE', 'QUADRUPOLE', 'MULLIKEN_CHARGES')
f=open( 'psi4out.xyz', 'w' )
f.write( "9  " )
f.write( str(ee) + "\n" )
f.write( MOL.save_string_xyz() )
f.close()
--------------------------------------------------------------------------

    Molecular point group: c1
  Charge       = 0
  Multiplicity = 1
  Basis Set: CC-PVTZ
  Basis Set:
  @DF-RHF Final Energy:  -208.04317732570826
    Total Energy =                       -208.0431773257082000
    Molecular point group: c1
  Basis Set: CC-PVTZ
  Basis Set:
  Basis Set: CC-PVTZ
  Basis Set:
  @DF-RHF Final Energy:  -208.04353028024491
    Total Energy =                       -208.0435302802450224
  Basis Set: CC-PVTZ
  Basis Set:
  Basis Set: CC-PVTZ
  Basis Set:
  @DF-RHF Final Energy:  -208.04355127994265
    Total Energy =                       -208.0435512799426476
  Basis Set: CC-PVTZ
  Basis Set:
  Basis Set: CC-PVTZ
  Basis Set:
  @DF-RHF Final Energy:  -208.04356958920445
    Total Energy =                       -208.0435695892044805
  Basis Set: CC-PVTZ
  Basis Set:
  Basis Set: CC-PVTZ
  Basis Set:
  @DF-RHF Final Energy:  -208.04358243258753
    Total Energy =                       -208.0435824325874421
  Basis Set: CC-PVTZ
  Basis Set:
  Basis Set: CC-PVTZ
  Basis Set:
  @DF-RHF Final Energy:  -208.04358472538524
    Total Energy =                       -208.0435847253853581
  Basis Set: CC-PVTZ
  Basis Set:
  Basis Set: CC-PVTZ
  Basis Set:
  @DF-RHF Final Energy:  -208.04358948224149
    Total Energy =                       -208.0435894822415150
  Basis Set: CC-PVTZ
  Basis Set:
  Charge       = 0
  Multiplicity = 1
  Basis Set: CC-PVTZ
  Basis Set:

    Orbital Energies (a.u.)
    -----------------------

    Doubly Occupied:

       1A    -20.516138     2A    -15.585049     3A    -11.337519
       4A    -11.259260     5A     -1.393670     6A     -1.239881
       7A     -0.970398     8A     -0.808262     9A     -0.748812
      10A     -0.646367    11A     -0.629331    12A     -0.596857
      13A     -0.555370    14A     -0.542116    15A     -0.428258
      16A     -0.395964

  @DF-RHF Final Energy:  -208.04358964784910

   => Energetics <=

    Nuclear Repulsion Energy =            122.7140689959756088
    One-Electron Energy =                -526.2088133222071065
    Two-Electron Energy =                 195.4511546783824372
    DFT Exchange-Correlation Energy =       0.0000000000000000
    Empirical Dispersion Energy =           0.0000000000000000
    PCM Polarization Energy =               0.0000000000000000
    EFP Energy =                            0.0000000000000000
    Total Energy =                       -208.0435896478490747
    Molecular point group: c1
  Basis Set: CC-PVTZ
  Basis Set:

  -Total Gradient:
     Atom            X                  Y                   Z
    ------   -----------------  -----------------  -----------------
       1       -0.000006779134     0.000003704149     0.000002588069
       2       -0.000002509717    -0.000023006784     0.000020256543
       3        0.000128099649     0.000155598804     0.000088937372
       4        0.000013211216     0.000006793415    -0.000016688530
       5       -0.000133973591    -0.000122650139     0.000071531126
       6       -0.000088810915    -0.000088222328    -0.000087989593
       7        0.000089987602     0.000076258463    -0.000067065749
       8       -0.000004773281    -0.000005682983    -0.000005366391
       9        0.000005548172    -0.000002792598    -0.000006202845

  **** Optimization is complete! (in 8 steps) ****
    Final optimized geometry and variables:
    Molecular point group: c1

    Geometry (in Angstrom), charge = 0, multiplicity = 1:

    H            1.268139489517    -1.445430213177     0.055701470315
    C            0.438476931274    -0.753932932646     0.214690835034
    N            0.493465887451     0.306579470953    -0.608280257068
    O           -0.394539036842    -0.951671765967     1.041342937372
    C           -0.504980079433     1.351267695973    -0.631201946495
    H            1.214399348856     0.318970605768    -1.286722187691
    H           -1.160469038414     1.256945077270    -1.489144164790
    H           -0.028111670198     2.322178007380    -0.661576646603
    H           -1.096883598828     1.278972811584     0.265858830767

  Mulliken Charges: (a.u.)
   Center  Symbol    Alpha    Beta     Spin     Total
       1     H     0.46293  0.46293  0.00000  0.07415
       2     C     2.88099  2.88099  0.00000  0.23802
       3     N     3.60787  3.60787  0.00000 -0.21574
       4     O     4.21488  4.21488  0.00000 -0.42977
       5     C     3.08071  3.08071  0.00000 -0.16143
       6     H     0.40971  0.40971  0.00000  0.18058
       7     H     0.45532  0.45532  0.00000  0.08936
       8     H     0.45407  0.45407  0.00000  0.09187
       9     H     0.43352  0.43352  0.00000  0.13297

   Total alpha = 16.00000, Total beta = 16.00000, Total charge = -0.00000

*** Psi4 exiting successfully. Buy a developer a beer!
