  ==> Input File <==

--------------------------------------------------------------------------
set {
	reference rhf
	basis 6-31G*
}

set_num_threads( 4 )
memory 2 gb

molecule MOL {
0 1

H	 -2.680411	 0.682160	 -1.344257
O	 -3.452007	 0.283848	 -0.965577
C	 -3.181085	 -0.079926	 0.364119
C	 -1.765924	 0.277073	 0.805136
H	 -3.327791	 -1.152017	 0.410903
H	 -3.905698	 0.375695	 1.036898
C	 -0.677594	 -0.417312	 -0.014550
H	 -1.637766	 1.358238	 0.744969
H	 -1.659588	 0.017670	 1.857098
C	 0.738335	 -0.034840	 0.421385
H	 -0.814977	 -0.178223	 -1.064632
H	 -0.802730	 -1.495410	 0.071702
C	 1.822265	 -0.738362	 -0.399735
H	 0.853533	 1.043532	 0.342250
H	 0.871597	 -0.279636	 1.474438
C	 3.258060	 -0.455774	 0.057203
H	 1.718003	 -0.459167	 -1.447053
H	 1.651028	 -1.811884	 -0.354513
C	 3.709143	 0.994797	 -0.123830
H	 3.930637	 -1.101717	 -0.501982
H	 3.365259	 -0.739518	 1.102287
H	 3.601178	 1.310569	 -1.158127
H	 4.753787	 1.110486	 0.148516
H	 3.135362	 1.678896	 0.492569

	symmetry c1
}
set optking {
	frozen_dihedral = ("
		1 2 3 5
	")
}

ee = optimize('scf')
oeprop('DIPOLE', 'QUADRUPOLE', 'MULLIKEN_CHARGES')
f=open( 'psi4out.xyz', 'w' )
f.write( "24  " )
f.write( str(ee) + "\n" )
f.write( MOL.save_string_xyz() )
f.close()
--------------------------------------------------------------------------

    Molecular point group: c1
  Charge       = 0
  Multiplicity = 1
  Basis Set: 6-31G*
  Basis Set:
  @DF-RHF Final Energy:  -349.24334072563335
    Total Energy =                       -349.2433407256331748
    Molecular point group: c1
  Basis Set: 6-31G*
  Basis Set:
  Basis Set: 6-31G*
  Basis Set:
  @DF-RHF Final Energy:  -349.24384413942562
    Total Energy =                       -349.2438441394256188
  Basis Set: 6-31G*
  Basis Set:
  Basis Set: 6-31G*
  Basis Set:
  @DF-RHF Final Energy:  -349.24420664380347
    Total Energy =                       -349.2442066438036932
  Basis Set: 6-31G*
  Basis Set:
  Basis Set: 6-31G*
  Basis Set:
  @DF-RHF Final Energy:  -349.24420558579658
    Total Energy =                       -349.2442055857965215
  Basis Set: 6-31G*
  Basis Set:
  Basis Set: 6-31G*
  Basis Set:
  @DF-RHF Final Energy:  -349.24421881992703
    Total Energy =                       -349.2442188199272550
  Basis Set: 6-31G*
  Basis Set:
  Charge       = 0
  Multiplicity = 1
  Basis Set: 6-31G*
  Basis Set:

    Orbital Energies (a.u.)
    -----------------------

    Doubly Occupied:

       1A    -20.548261     2A    -11.266195     3A    -11.224822
       4A    -11.224037     5A    -11.219842     6A    -11.218531
       7A    -11.217602     8A    -11.211068     9A     -1.355756
      10A     -1.095853    11A     -1.053596    12A     -0.990043
      13A     -0.920588    14A     -0.856652    15A     -0.805864
      16A     -0.782588    17A     -0.664209    18A     -0.660200
      19A     -0.634552    20A     -0.625414    21A     -0.606409
      22A     -0.590263    23A     -0.561408    24A     -0.540518
      25A     -0.525886    26A     -0.515234    27A     -0.497429
      28A     -0.480124    29A     -0.478604    30A     -0.465354
      31A     -0.458684    32A     -0.441768    33A     -0.426339

  @DF-RHF Final Energy:  -349.24421858555132

   => Energetics <=

    Nuclear Repulsion Energy =            384.4822704527384190
    One-Electron Energy =               -1235.1255918535239289
    Two-Electron Energy =                 501.3991028152343006
    DFT Exchange-Correlation Energy =       0.0000000000000000
    Empirical Dispersion Energy =           0.0000000000000000
    PCM Polarization Energy =               0.0000000000000000
    EFP Energy =                            0.0000000000000000
    Total Energy =                       -349.2442185855511525
    Molecular point group: c1
  Basis Set: 6-31G*
  Basis Set:

  -Total Gradient:
     Atom            X                  Y                   Z
    ------   -----------------  -----------------  -----------------
       1        0.000120162825    -0.000339577383    -0.000115188585
       2       -0.000074692370     0.000342688550     0.000137292661
       3       -0.000331089152     0.000054580265     0.000075590357
       4       -0.000007214342     0.000016370913    -0.000013376966
       5        0.000302192106    -0.000021321293    -0.000132530752
       6       -0.000011443039    -0.000011683976     0.000025812289
       7       -0.000022376998    -0.000030557087     0.000021879892
       8        0.000012954512    -0.000010292324     0.000002570181
       9       -0.000003674090    -0.000016853634     0.000007961627
      10       -0.000006944012     0.000001736474    -0.000010746908
      11        0.000016374922    -0.000005706190     0.000003755189
      12       -0.000003482680    -0.000008971625     0.000014131033
      13        0.000003001787     0.000038797266    -0.000026499950
      14       -0.000019226923    -0.000019006754     0.000002548180
      15        0.000004395877    -0.000008619500     0.000001239162
      16       -0.000013244915     0.000008599174     0.000024148576
      17        0.000000719937     0.000014307911    -0.000002934068
      18        0.000006888120     0.000004144797    -0.000008130098
      19        0.000014712138    -0.000000064657    -0.000009473365
      20       -0.000003946203    -0.000012720674     0.000008084648
      21       -0.000007390126     0.000012584913     0.000007624209
      22       -0.000004821211     0.000006382821    -0.000004112352
      23        0.000002446457    -0.000004634011    -0.000007087712
      24        0.000025697383    -0.000010183977    -0.000002557242

  **** Optimization is complete! (in 6 steps) ****
    Final optimized geometry and variables:
    Molecular point group: c1

    Geometry (in Angstrom), charge = 0, multiplicity = 1:

    H           -2.790393755643     0.739012689774    -1.349589870203
    O           -3.526133099311     0.319294519691    -0.930733771705
    C           -3.183757921215    -0.091725777661     0.370922552324
    C           -1.764145772963     0.283578066334     0.781220703254
    H           -3.308037809865    -1.169291571742     0.432274594289
    H           -3.891318421340     0.357650011441     1.060236172796
    C           -0.670925756566    -0.420349458029    -0.028661423161
    H           -1.648467305354     1.363985481842     0.702892942000
    H           -1.641527260340     0.039337608452     1.833842513759
    C            0.742317002844    -0.034028742655     0.412879036606
    H           -0.782857078751    -0.196340284549    -1.088108297898
    H           -0.799330634353    -1.496794045520     0.063841450538
    C            1.832295269913    -0.737976262782    -0.399705577559
    H            0.855489275588     1.044200856318     0.333163838063
    H            0.867095216080    -0.277359693601     1.466915531150
    C            3.264056651328    -0.453934332375     0.068729220147
    H            1.736858376220    -0.459388646304    -1.448112488214
    H            1.661080076152    -1.811491534778    -0.355002100530
    C            3.717648051254     0.995419360299    -0.115385636757
    H            3.940503361544    -1.103212601565    -0.481511976005
    H            3.361546392998    -0.733014467460     1.115922352945
    H            3.618468330809     1.306647936788    -1.151916877864
    H            4.760131782117     1.111038255196     0.164652703186
    H            3.140061192427     1.683022802540     0.493490017497

  Mulliken Charges: (a.u.)
   Center  Symbol    Alpha    Beta     Spin     Total
       1     H     0.27827  0.27827  0.00000  0.44347
       2     O     4.37918  4.37918  0.00000 -0.75835
       3     C     2.97441  2.97441  0.00000  0.05118
       4     C     3.18865  3.18865  0.00000 -0.37730
       5     H     0.42650  0.42650  0.00000  0.14699
       6     H     0.42258  0.42258  0.00000  0.15484
       7     C     3.15459  3.15459  0.00000 -0.30918
       8     H     0.41998  0.41998  0.00000  0.16004
       9     H     0.41680  0.41680  0.00000  0.16640
      10     C     3.15311  3.15311  0.00000 -0.30621
      11     H     0.42699  0.42699  0.00000  0.14603
      12     H     0.41850  0.41850  0.00000  0.16300
      13     C     3.15283  3.15283  0.00000 -0.30565
      14     H     0.42125  0.42125  0.00000  0.15751
      15     H     0.42287  0.42287  0.00000  0.15426
      16     C     3.15270  3.15270  0.00000 -0.30539
      17     H     0.42398  0.42398  0.00000  0.15203
      18     H     0.42127  0.42127  0.00000  0.15745
      19     C     3.24142  3.24142  0.00000 -0.48283
      20     H     0.42018  0.42018  0.00000  0.15965
      21     H     0.42299  0.42299  0.00000  0.15403
      22     H     0.42216  0.42216  0.00000  0.15569
      23     H     0.41853  0.41853  0.00000  0.16294
      24     H     0.42030  0.42030  0.00000  0.15940

   Total alpha = 33.00000, Total beta = 33.00000, Total charge =  0.00000
