  ==> Input File <==

--------------------------------------------------------------------------
set {
	reference rhf
	basis 6-31G*
}

set_num_threads( 1 )
memory 2 gb

molecule MOL {
0 1

H	 2.591676	 2.013956	 0.335017
O	 3.341076	 1.666752	 -0.126416
C	 3.569581	 0.339145	 0.272707
C	 2.539767	 -0.640285	 -0.279495
H	 4.553106	 0.084646	 -0.100901
H	 3.608576	 0.269204	 1.359154
C	 1.115811	 -0.397273	 0.226630
H	 2.556196	 -0.582511	 -1.364741
H	 2.852081	 -1.648031	 -0.010655
C	 0.056510	 -0.627210	 -0.854955
H	 1.038293	 0.620071	 0.599949
H	 0.913856	 -1.057305	 1.070380
C	 -1.393097	 -0.480286	 -0.378095
H	 0.234521	 0.057989	 -1.681793
H	 0.186130	 -1.629083	 -1.258874
C	 -1.792781	 0.936783	 0.042198
H	 -2.051617	 -0.802058	 -1.182228
H	 -1.570420	 -1.165541	 0.449443
C	 -3.273744	 1.054479	 0.408711
H	 -1.568298	 1.628465	 -0.768538
H	 -1.194410	 1.258129	 0.891311
C	 -3.673943	 2.466559	 0.834782
H	 -3.880216	 0.748844	 -0.441152
H	 -3.502093	 0.357105	 1.212086
H	 -3.488048	 3.183394	 0.039915
H	 -4.728865	 2.517925	 1.086051
H	 -3.110674	 2.787973	 1.706438

	symmetry c1
}
set optking {
	frozen_dihedral = ("
		14 10 7 4,
		14 10 13 16,
		8 4 3 2,
		10 13 16 20,
		20 16 19 22,
		4 3 2 1
	")
}

ee = energy('scf')
oeprop('DIPOLE', 'QUADRUPOLE', 'MULLIKEN_CHARGES')
f=open( 'psi4out.xyz', 'w' )
f.write( "27  " )
f.write( str(ee) + "\n" )
f.write( MOL.save_string_xyz() )
f.close()
--------------------------------------------------------------------------

    Molecular point group: c1

    Geometry (in Angstrom), charge = 0, multiplicity = 1:

       Center              X                  Y                   Z               Mass
    ------------   -----------------  -----------------  -----------------  -----------------
           H          2.494808443905     1.497623653328     0.310397848024     1.007825032070
           O          3.244208443905     1.150419653328    -0.151035151976    15.994914619560
           C          3.472713443905    -0.177187346672     0.248087848024    12.000000000000
           C          2.442899443905    -1.156617346672    -0.304114151976    12.000000000000
           H          4.456238443905    -0.431686346672    -0.125520151976     1.007825032070
           H          3.511708443905    -0.247128346672     1.334534848024     1.007825032070
           C          1.018943443905    -0.913605346672     0.202010848024    12.000000000000
           H          2.459328443905    -1.098843346672    -1.389360151976     1.007825032070
           H          2.755213443905    -2.164363346672    -0.035274151976     1.007825032070
           C         -0.040357556095    -1.143542346672    -0.879574151976    12.000000000000
           H          0.941425443905     0.103738653328     0.575329848024     1.007825032070
           H          0.816988443905    -1.573637346672     1.045760848024     1.007825032070
           C         -1.489964556095    -0.996618346672    -0.402714151976    12.000000000000
           H          0.137653443905    -0.458343346672    -1.706412151976     1.007825032070
           H          0.089262443905    -2.145415346672    -1.283493151976     1.007825032070
           C         -1.889648556095     0.420450653328     0.017578848024    12.000000000000
           H         -2.148484556095    -1.318390346672    -1.206847151976     1.007825032070
           H         -1.667287556095    -1.681873346672     0.424823848024     1.007825032070
           C         -3.370611556095     0.538146653328     0.384091848024    12.000000000000
           H         -1.665165556095     1.112132653328    -0.793157151976     1.007825032070
           H         -1.291277556095     0.741796653328     0.866691848024     1.007825032070
           C         -3.770810556095     1.950226653328     0.810162848024    12.000000000000
           H         -3.977083556095     0.232511653328    -0.465771151976     1.007825032070
           H         -3.598960556095    -0.159227346672     1.187466848024     1.007825032070
           H         -3.584915556095     2.667061653328     0.015295848024     1.007825032070
           H         -4.825732556095     2.001592653328     1.061431848024     1.007825032070
           H         -3.207541556095     2.271640653328     1.681818848024     1.007825032070

  Charge       = 0
  Multiplicity = 1
  Basis Set: 6-31G*
  Basis Set:

    Orbital Energies (a.u.)
    -----------------------

    Doubly Occupied:

       1A    -20.552361     2A    -11.267106     3A    -11.219908
       4A    -11.216753     5A    -11.216286     6A    -11.215237
       7A    -11.214583     8A    -11.214374     9A    -11.209677
      10A     -1.359281    11A     -1.095203    12A     -1.061674
      13A     -1.011440    14A     -0.948578    15A     -0.888223
      16A     -0.820079    17A     -0.801922    18A     -0.778245
      19A     -0.693087    20A     -0.654035    21A     -0.641860
      22A     -0.611918    23A     -0.595031    24A     -0.583342
      25A     -0.579831    26A     -0.554676    27A     -0.541065
      28A     -0.534535    29A     -0.508576    30A     -0.492100
      31A     -0.486863    32A     -0.470071    33A     -0.466788
      34A     -0.459709    35A     -0.454259    36A     -0.441201
      37A     -0.423565

  @DF-RHF Final Energy:  -388.27752022204521

   => Energetics <=

    Nuclear Repulsion Energy =            462.9760622097280134
    One-Electron Energy =               -1443.9402976124176803
    Two-Electron Energy =                 592.6867151806429774
    DFT Exchange-Correlation Energy =       0.0000000000000000
    Empirical Dispersion Energy =           0.0000000000000000
    PCM Polarization Energy =               0.0000000000000000
    EFP Energy =                            0.0000000000000000
    Total Energy =                       -388.2775202220466326

  Mulliken Charges: (a.u.)
   Center  Symbol    Alpha    Beta     Spin     Total
       1     H     0.27870  0.27870  0.00000  0.44260
       2     O     4.37129  4.37129  0.00000 -0.74258
       3     C     2.99981  2.99981  0.00000  0.00037
       4     C     3.16251  3.16251  0.00000 -0.32502
       5     H     0.41464  0.41464  0.00000  0.17071
       6     H     0.43207  0.43207  0.00000  0.13587
       7     C     3.15704  3.15704  0.00000 -0.31408
       8     H     0.41338  0.41338  0.00000  0.17325
       9     H     0.42227  0.42227  0.00000  0.15546
      10     C     3.15510  3.15510  0.00000 -0.31019
      11     H     0.43330  0.43330  0.00000  0.13341
      12     H     0.42034  0.42034  0.00000  0.15933
      13     C     3.15398  3.15398  0.00000 -0.30796
      14     H     0.41980  0.41980  0.00000  0.16040
      15     H     0.42050  0.42050  0.00000  0.15900
      16     C     3.15271  3.15271  0.00000 -0.30542
      17     H     0.42116  0.42116  0.00000  0.15768
      18     H     0.42416  0.42416  0.00000  0.15167
      19     C     3.15104  3.15104  0.00000 -0.30209
      20     H     0.42370  0.42370  0.00000  0.15260
      21     H     0.42449  0.42449  0.00000  0.15103
      22     C     3.23927  3.23927  0.00000 -0.47854
      23     H     0.42261  0.42261  0.00000  0.15477
      24     H     0.42308  0.42308  0.00000  0.15384
      25     H     0.42148  0.42148  0.00000  0.15705
      26     H     0.41906  0.41906  0.00000  0.16188
      27     H     0.42251  0.42251  0.00000  0.15498

   Total alpha = 37.00000, Total beta = 37.00000, Total charge =  0.00000
