  ==> Input File <==

--------------------------------------------------------------------------
set {
	reference rhf
	basis 6-31G*
}

set_num_threads( 1 )
memory 2 gb

molecule MOL {
0 1

H	 -3.135461	 -1.215070	 0.001379
O	 -2.310168	 -0.871793	 -0.309793
C	 -2.026376	 0.340750	 0.341611
C	 -0.673256	 0.843270	 -0.132153
H	 -2.792215	 1.080697	 0.115987
H	 -2.013526	 0.200402	 1.421792
C	 0.486613	 -0.083066	 0.235839
H	 -0.715586	 0.970948	 -1.210718
H	 -0.508072	 1.829858	 0.297090
C	 0.637839	 -1.260682	 -0.728613
H	 0.338811	 -0.454453	 1.244669
H	 1.412826	 0.490335	 0.249325
C	 1.800561	 -2.183171	 -0.364246
H	 -0.286284	 -1.834723	 -0.742442
H	 0.778850	 -0.885801	 -1.740553
H	 1.670922	 -2.601681	 0.629702
H	 1.882179	 -3.009802	 -1.063507
H	 2.745180	 -1.646430	 -0.375016

	symmetry c1
}
set optking {
	frozen_dihedral = ("
		14 10 7 11,
		2 3 4 8,
		1 2 3 4
	")
}

ee = energy('scf')
oeprop('DIPOLE', 'QUADRUPOLE', 'MULLIKEN_CHARGES')
f=open( 'psi4out.xyz', 'w' )
f.write( "18  " )
f.write( str(ee) + "\n" )
f.write( MOL.save_string_xyz() )
f.close()
--------------------------------------------------------------------------

    Molecular point group: c1

    Geometry (in Angstrom), charge = 0, multiplicity = 1:

       Center              X                  Y                   Z               Mass
    ------------   -----------------  -----------------  -----------------  -----------------
           H         -2.739569489514    -0.656654833053     0.159257407225     1.007825032070
           O         -1.914276489514    -0.313377833053    -0.151914592775    15.994914619560
           C         -1.630484489514     0.899165166947     0.499489407225    12.000000000000
           C         -0.277364489514     1.401685166947     0.025725407225    12.000000000000
           H         -2.396323489514     1.639112166947     0.273865407225     1.007825032070
           H         -1.617634489514     0.758817166947     1.579670407225     1.007825032070
           C          0.882504510486     0.475349166947     0.393717407225    12.000000000000
           H         -0.319694489514     1.529363166947    -1.052839592775     1.007825032070
           H         -0.112180489514     2.388273166947     0.454968407225     1.007825032070
           C          1.033730510486    -0.702266833053    -0.570734592775    12.000000000000
           H          0.734702510486     0.103962166947     1.402547407225     1.007825032070
           H          1.808717510486     1.048750166947     0.407203407225     1.007825032070
           C          2.196452510486    -1.624755833053    -0.206367592775    12.000000000000
           H          0.109607510486    -1.276307833053    -0.584563592775     1.007825032070
           H          1.174741510486    -0.327385833053    -1.582674592775     1.007825032070
           H          2.066813510486    -2.043265833053     0.787580407225     1.007825032070
           H          2.278070510486    -2.451386833053    -0.905628592775     1.007825032070
           H          3.141071510486    -1.088014833053    -0.217137592775     1.007825032070

  Charge       = 0
  Multiplicity = 1
  Basis Set: 6-31G*
  Basis Set:

    Orbital Energies (a.u.)
    -----------------------

    Doubly Occupied:

       1A    -20.555781     2A    -11.269369     3A    -11.212046
       4A    -11.206699     5A    -11.197491     6A    -11.196561
       7A     -1.363261     8A     -1.071637     9A     -1.004142
      10A     -0.911127    11A     -0.819149    12A     -0.776441
      13A     -0.705602    14A     -0.650559    15A     -0.613401
      16A     -0.573986    17A     -0.567839    18A     -0.556136
      19A     -0.527202    20A     -0.503632    21A     -0.485977
      22A     -0.460111    23A     -0.451145    24A     -0.443758
      25A     -0.424814

  @DF-RHF Final Energy:  -271.17584662652877

   => Energetics <=

    Nuclear Repulsion Energy =            256.2467322537514178
    One-Electron Energy =                -875.7492223462847960
    Two-Electron Energy =                 348.3266434660052937
    DFT Exchange-Correlation Energy =       0.0000000000000000
    Empirical Dispersion Energy =           0.0000000000000000
    PCM Polarization Energy =               0.0000000000000000
    EFP Energy =                            0.0000000000000000
    Total Energy =                       -271.1758466265281413

  Mulliken Charges: (a.u.)
   Center  Symbol    Alpha    Beta     Spin     Total
       1     H     0.28045  0.28045  0.00000  0.43910
       2     O     4.36845  4.36845  0.00000 -0.73690
       3     C     2.99643  2.99643  0.00000  0.00714
       4     C     3.16448  3.16448  0.00000 -0.32896
       5     H     0.42924  0.42924  0.00000  0.14152
       6     H     0.43203  0.43203  0.00000  0.13594
       7     C     3.15261  3.15261  0.00000 -0.30522
       8     H     0.41431  0.41431  0.00000  0.17138
       9     H     0.42132  0.42132  0.00000  0.15735
      10     C     3.15598  3.15598  0.00000 -0.31195
      11     H     0.42500  0.42500  0.00000  0.14999
      12     H     0.42333  0.42333  0.00000  0.15334
      13     C     3.23929  3.23929  0.00000 -0.47858
      14     H     0.39798  0.39798  0.00000  0.20404
      15     H     0.42734  0.42734  0.00000  0.14532
      16     H     0.42461  0.42461  0.00000  0.15078
      17     H     0.42128  0.42128  0.00000  0.15743
      18     H     0.42585  0.42585  0.00000  0.14829

   Total alpha = 25.00000, Total beta = 25.00000, Total charge =  0.00000
