  ==> Input File <==

--------------------------------------------------------------------------
set {
	reference rhf
	basis 6-31G*
}

set_num_threads( 4 )
memory 2 gb

molecule MOL {
0 1

H	 -2.798360	 -0.862255	 -0.071053
N	 -1.863561	 -0.715187	 0.256814
C	 -1.344686	 0.554728	 -0.219830
H	 -1.300452	 -1.461917	 -0.101532
C	 0.081427	 0.741154	 0.254071
H	 -1.362155	 0.656231	 -1.305829
H	 -1.952773	 1.354456	 0.191809
O	 0.559524	 -0.494605	 0.702856
H	 0.703950	 1.109808	 -0.560912
H	 0.106402	 1.470787	 1.060450
C	 1.839076	 -0.451263	 1.249152
H	 2.098729	 -1.455157	 1.556519
H	 2.571190	 -0.106375	 0.521112
H	 1.879164	 0.204791	 2.116213

	symmetry c1
}
set optking {
	frozen_dihedral = ("
		8 5 3 6
	")
}

ee = optimize('scf')
oeprop('DIPOLE', 'QUADRUPOLE', 'MULLIKEN_CHARGES')
f=open( 'psi4out.xyz', 'w' )
f.write( "14  " )
f.write( str(ee) + "\n" )
f.write( MOL.save_string_xyz() )
f.close()
--------------------------------------------------------------------------

    Molecular point group: c1
  Charge       = 0
  Multiplicity = 1
  Basis Set: 6-31G*
  Basis Set:
  @DF-RHF Final Energy:  -248.11115014533880
    Total Energy =                       -248.1111501453389110
    Molecular point group: c1
  Basis Set: 6-31G*
  Basis Set:
  Basis Set: 6-31G*
  Basis Set:
  @DF-RHF Final Energy:  -248.11366179810096
    Total Energy =                       -248.1136617981007930
  Basis Set: 6-31G*
  Basis Set:
  Basis Set: 6-31G*
  Basis Set:
  @DF-RHF Final Energy:  -248.11412985610880
    Total Energy =                       -248.1141298561086046
  Basis Set: 6-31G*
  Basis Set:
  Basis Set: 6-31G*
  Basis Set:
  @DF-RHF Final Energy:  -248.11415777965854
    Total Energy =                       -248.1141577796585125
  Basis Set: 6-31G*
  Basis Set:
  Basis Set: 6-31G*
  Basis Set:
  @DF-RHF Final Energy:  -248.11415980943167
    Total Energy =                       -248.1141598094314986
  Basis Set: 6-31G*
  Basis Set:
  Basis Set: 6-31G*
  Basis Set:
  @DF-RHF Final Energy:  -248.11415588560627
    Total Energy =                       -248.1141558856063511
  Basis Set: 6-31G*
  Basis Set:
  Charge       = 0
  Multiplicity = 1
  Basis Set: 6-31G*
  Basis Set:

    Orbital Energies (a.u.)
    -----------------------

    Doubly Occupied:

       1A    -20.556984     2A    -15.524590     3A    -11.269811
       4A    -11.266370     5A    -11.242421     6A     -1.382457
       7A     -1.169472     8A     -0.995213     9A     -0.910141
      10A     -0.814142    11A     -0.681700    12A     -0.676361
      13A     -0.646683    14A     -0.607553    15A     -0.598150
      16A     -0.556013    17A     -0.520998    18A     -0.493272
      19A     -0.471239    20A     -0.420525    21A     -0.368490

  @DF-RHF Final Energy:  -248.11415988507133

   => Energetics <=

    Nuclear Repulsion Energy =            194.8586447216581519
    One-Electron Energy =                -723.6004402540664842
    Two-Electron Energy =                 280.6276356473370015
    DFT Exchange-Correlation Energy =       0.0000000000000000
    Empirical Dispersion Energy =           0.0000000000000000
    PCM Polarization Energy =               0.0000000000000000
    EFP Energy =                            0.0000000000000000
    Total Energy =                       -248.1141598850713308
    Molecular point group: c1
  Basis Set: 6-31G*
  Basis Set:

  -Total Gradient:
     Atom            X                  Y                   Z
    ------   -----------------  -----------------  -----------------
       1       -0.000035209864     0.000007982451     0.000004491401
       2        0.000011842825     0.000019031007    -0.000025073523
       3        0.000885944539    -0.009264732712     0.000758627195
       4        0.000023046342    -0.000034940670    -0.000018147674
       5        0.002686499303     0.000371237513    -0.007434730927
       6       -0.001334974833     0.007727824725     0.000934663292
       7        0.000020220423     0.000027908804    -0.000020464504
       8       -0.002289307046     0.001122202841     0.005752892081
       9        0.000058156075     0.000041108631     0.000028958370
      10       -0.000013638064    -0.000014586672     0.000015680697
      11       -0.000000670922    -0.000009522419     0.000017610405
      12        0.000002850400     0.000000571072    -0.000001354463
      13       -0.000020966622     0.000006006183    -0.000006657692
      14        0.000006207441    -0.000000090755    -0.000006494661

  **** Optimization is complete! (in 7 steps) ****
    Final optimized geometry and variables:
    Molecular point group: c1

    Geometry (in Angstrom), charge = 0, multiplicity = 1:

    H           -2.705203994515    -0.741565761464    -0.676617019036
    N           -1.830751546373    -0.592149595292    -0.213304593694
    C           -1.212879960436     0.628370373846    -0.686658905726
    H           -1.242034293426    -1.380108810008    -0.390741493665
    C            0.224953761926     0.803900347876    -0.160323243972
    H           -1.215893691155     0.762241148102    -1.770703101474
    H           -1.801289896018     1.461152896721    -0.312057556450
    O            0.740015026567    -0.418024576491     0.274496978943
    H            0.859112478003     1.226243242024    -0.937975060956
    H            0.229060298401     1.502778459293     0.674124437724
    C            2.031966875577    -0.338744171984     0.783892813147
    H            2.320966782078    -1.332159406130     1.098305623170
    H            2.737410203453     0.012964394010     0.032890907829
    H            2.079186384842     0.329907818769     1.641229670198

  Mulliken Charges: (a.u.)
   Center  Symbol    Alpha    Beta     Spin     Total
       1     H     0.33418  0.33418  0.00000  0.33163
       2     N     3.91837  3.91837  0.00000 -0.83673
       3     C     3.07460  3.07460  0.00000 -0.14919
       4     H     0.32160  0.32160  0.00000  0.35681
       5     C     2.98625  2.98625  0.00000  0.02750
       6     H     0.43238  0.43238  0.00000  0.13525
       7     H     0.41896  0.41896  0.00000  0.16209
       8     O     4.30655  4.30655  0.00000 -0.61309
       9     H     0.43047  0.43047  0.00000  0.13906
      10     H     0.42736  0.42736  0.00000  0.14528
      11     C     3.07913  3.07913  0.00000 -0.15826
      12     H     0.41152  0.41152  0.00000  0.17696
      13     H     0.43060  0.43060  0.00000  0.13880
      14     H     0.42805  0.42805  0.00000  0.14389

   Total alpha = 21.00000, Total beta = 21.00000, Total charge = -0.00000
