  ==> Input File <==

--------------------------------------------------------------------------
set {
	reference rhf
	basis 6-31G*
}

set_num_threads( 4 )
memory 2 gb

molecule MOL {
0 1

H	 -0.821032	 -1.655889	 0.000000
O	 -1.037828	 -0.728600	 0.000000
C	 0.100509	 -0.036935	 0.000000
C	 -0.048632	 1.285115	 0.697025
O	 1.094550	 -0.448980	 -0.501321
H	 -0.816829	 1.871328	 0.206165
H	 0.892377	 1.813504	 0.675622
H	 -0.362447	 1.123510	 1.721778

	symmetry c1
}
set optking {
	frozen_dihedral = ("
		4 3 2 1
	")
}

ee = optimize('scf')
oeprop('DIPOLE', 'QUADRUPOLE', 'MULLIKEN_CHARGES')
f=open( 'psi4out.xyz', 'w' )
f.write( "8  " )
f.write( str(ee) + "\n" )
f.write( MOL.save_string_xyz() )
f.close()
--------------------------------------------------------------------------

    Molecular point group: c1
  Charge       = 0
  Multiplicity = 1
  Basis Set: 6-31G*
  Basis Set:
  @DF-RHF Final Energy:  -227.80477122499252
    Total Energy =                       -227.8047712249923222
    Molecular point group: c1
  Basis Set: 6-31G*
  Basis Set:
  Basis Set: 6-31G*
  Basis Set:
  @DF-RHF Final Energy:  -227.80150521421439
    Total Energy =                       -227.8015052142145009
  Basis Set: 6-31G*
  Basis Set:
  Basis Set: 6-31G*
  Basis Set:
  @DF-RHF Final Energy:  -227.80521087581414
    Total Energy =                       -227.8052108758141685
  Basis Set: 6-31G*
  Basis Set:
  Basis Set: 6-31G*
  Basis Set:
  @DF-RHF Final Energy:  -227.80532592097694
    Total Energy =                       -227.8053259209769124
  Basis Set: 6-31G*
  Basis Set:
  @DF-RHF Final Energy:  -227.80540510320918
    Total Energy =                       -227.8054051032091536
  @DF-RHF Final Energy:  -227.80543179624482
    Total Energy =                       -227.8054317962448181
  @DF-RHF Final Energy:  -227.80543319255344
    Total Energy =                       -227.8054331925533234
  Basis Set: 6-31G*
  Basis Set:
  @DF-RHF Final Energy:  -227.80517552581222
    Total Energy =                       -227.8051755258122739
  Basis Set: 6-31G*
  Basis Set:
  Basis Set: 6-31G*
  Basis Set:
  @DF-RHF Final Energy:  -227.80543296101476
    Total Energy =                       -227.8054329610147306
  Basis Set: 6-31G*
  Basis Set:
  Basis Set: 6-31G*
  Basis Set:
  @DF-RHF Final Energy:  -227.80543261511852
    Total Energy =                       -227.8054326151185478
  Basis Set: 6-31G*
  Basis Set:
  Charge       = 0
  Multiplicity = 1
  Basis Set: 6-31G*
  Basis Set:

    Orbital Energies (a.u.)
    -----------------------

    Doubly Occupied:

       1A    -20.611495     2A    -20.554975     3A    -11.386336
       4A    -11.240812     5A     -1.473795     6A     -1.368559
       7A     -1.026176     8A     -0.830645     9A     -0.702998
      10A     -0.681384    11A     -0.654996    12A     -0.581602
      13A     -0.577250    14A     -0.550325    15A     -0.482150
      16A     -0.449081

  @DF-RHF Final Energy:  -227.80543311118430

   => Energetics <=

    Nuclear Repulsion Energy =            122.3171779390054752
    One-Electron Energy =                -553.9000616489385038
    Two-Electron Energy =                 203.7774505987486293
    DFT Exchange-Correlation Energy =       0.0000000000000000
    Empirical Dispersion Energy =           0.0000000000000000
    PCM Polarization Energy =               0.0000000000000000
    EFP Energy =                            0.0000000000000000
    Total Energy =                       -227.8054331111843851
    Molecular point group: c1
  Basis Set: 6-31G*
  Basis Set:

  -Total Gradient:
     Atom            X                  Y                   Z
    ------   -----------------  -----------------  -----------------
       1       -0.000833145970     0.000052245685     0.010231307646
       2        0.001527394699    -0.001245868260    -0.010190299048
       3       -0.001797804032     0.003960387249    -0.005735719330
       4        0.001128568774    -0.002796931478     0.005799922808
       5       -0.000043166310     0.000025683600    -0.000117539299
       6        0.000006741760     0.000001151751     0.000001128800
       7        0.000003397099     0.000002215058     0.000005754781
       8        0.000008013981     0.000001116395     0.000005443642

  **** Optimization is complete! (in 11 steps) ****
    Final optimized geometry and variables:
    Molecular point group: c1

    Geometry (in Angstrom), charge = 0, multiplicity = 1:

    H           -0.888999591633    -1.614404838037    -0.132304810787
    O           -1.066712027994    -0.679986565406    -0.152563118354
    C            0.093465087296    -0.018838105512    -0.063194919890
    C           -0.067430953404     1.312320713986     0.613895031822
    O            1.124448234815    -0.495824804237    -0.402577122639
    H           -0.921645416350     1.849178797501     0.220513991902
    H            0.833462582359     1.895983844818     0.497649466475
    H           -0.249117046952     1.128946072795     1.667527943454

  Mulliken Charges: (a.u.)
   Center  Symbol    Alpha    Beta     Spin     Total
       1     H     0.26647  0.26647  0.00000  0.46706
       2     O     4.34896  4.34896  0.00000 -0.69792
       3     C     2.63929  2.63929  0.00000  0.72143
       4     C     3.28368  3.28368  0.00000 -0.56737
       5     O     4.26930  4.26930  0.00000 -0.53859
       6     H     0.39865  0.39865  0.00000  0.20269
       7     H     0.39564  0.39564  0.00000  0.20872
       8     H     0.39801  0.39801  0.00000  0.20398

   Total alpha = 16.00000, Total beta = 16.00000, Total charge =  0.00000
