  ==> Input File <==

--------------------------------------------------------------------------
set {
	reference rhf
	basis 6-31G*
}

set_num_threads( 4 )
memory 2 gb

molecule MOL {
0 1

H	 -2.172150	 0.880146	 0.502514
C	 -2.018062	 -0.000025	 -0.114509
O	 -0.774054	 0.001095	 -0.743181
H	 -2.760490	 0.003458	 -0.901350
H	 -2.173624	 -0.884374	 0.496163
C	 -0.132024	 1.231828	 -1.025362
C	 1.175059	 0.812187	 -1.694278
C	 -0.964477	 2.080483	 -1.991796
C	 0.165311	 2.008089	 0.261544
H	 0.968210	 0.239546	 -2.591343
H	 1.754453	 0.188447	 -1.022992
H	 1.771188	 1.677669	 -1.964894
H	 -1.230870	 1.498980	 -2.868105
H	 -0.396728	 2.946419	 -2.316477
H	 -1.877625	 2.445103	 -1.533791
H	 0.692915	 1.375949	 0.968004
H	 0.787096	 2.870671	 0.045052
H	 -0.738648	 2.371883	 0.738139

	symmetry c1
}
set optking {
	frozen_dihedral = ("
		6 3 2 5
	")
}

ee = optimize('scf')
oeprop('DIPOLE', 'QUADRUPOLE', 'MULLIKEN_CHARGES')
f=open( 'psi4out.xyz', 'w' )
f.write( "18  " )
f.write( str(ee) + "\n" )
f.write( MOL.save_string_xyz() )
f.close()
--------------------------------------------------------------------------

    Molecular point group: c1
  Charge       = 0
  Multiplicity = 1
  Basis Set: 6-31G*
  Basis Set:
  @DF-RHF Final Energy:  -271.17226439903800
    Total Energy =                       -271.1722643990380561
    Molecular point group: c1
  Basis Set: 6-31G*
  Basis Set:
  Basis Set: 6-31G*
  Basis Set:
  @DF-RHF Final Energy:  -271.17384531963290
    Total Energy =                       -271.1738453196329033
  Basis Set: 6-31G*
  Basis Set:
  Basis Set: 6-31G*
  Basis Set:
  @DF-RHF Final Energy:  -271.17432995665757
    Total Energy =                       -271.1743299566575729
  Basis Set: 6-31G*
  Basis Set:
  Basis Set: 6-31G*
  Basis Set:
  @DF-RHF Final Energy:  -271.17451550469411
    Total Energy =                       -271.1745155046938862
  Basis Set: 6-31G*
  Basis Set:
  Basis Set: 6-31G*
  Basis Set:
  @DF-RHF Final Energy:  -271.17452648925956
    Total Energy =                       -271.1745264892593923
  Basis Set: 6-31G*
  Basis Set:
  Basis Set: 6-31G*
  Basis Set:
  @DF-RHF Final Energy:  -271.17453282696670
    Total Energy =                       -271.1745328269667539
  Basis Set: 6-31G*
  Basis Set:
  Charge       = 0
  Multiplicity = 1
  Basis Set: 6-31G*
  Basis Set:

    Orbital Energies (a.u.)
    -----------------------

    Doubly Occupied:

       1A    -20.545591     2A    -11.281590     3A    -11.260943
       4A    -11.209536     5A    -11.207859     6A    -11.203274
       7A     -1.369033     8A     -1.072685     9A     -0.946064
      10A     -0.939627    11A     -0.912616    12A     -0.752560
      13A     -0.654993    14A     -0.644377    15A     -0.638018
      16A     -0.591267    17A     -0.571971    18A     -0.552225
      19A     -0.536827    20A     -0.523950    21A     -0.514907
      22A     -0.489232    23A     -0.486891    24A     -0.438339
      25A     -0.402632

  @DF-RHF Final Energy:  -271.17453277315622

   => Energetics <=

    Nuclear Repulsion Energy =            272.2973205969941546
    One-Electron Energy =                -907.4496917004242960
    Two-Electron Energy =                 363.9778383302736984
    DFT Exchange-Correlation Energy =       0.0000000000000000
    Empirical Dispersion Energy =           0.0000000000000000
    PCM Polarization Energy =               0.0000000000000000
    EFP Energy =                            0.0000000000000000
    Total Energy =                       -271.1745327731564430
    Molecular point group: c1
  Basis Set: 6-31G*
  Basis Set:

  -Total Gradient:
     Atom            X                  Y                   Z
    ------   -----------------  -----------------  -----------------
       1       -0.000006185399    -0.000009800003     0.000013897261
       2       -0.000460324912    -0.001247179959    -0.001184125574
       3       -0.000707473898     0.000065276075    -0.001857708755
       4       -0.000047861945    -0.000015843458     0.000036812563
       5        0.000637177571     0.001088664745     0.001519902954
       6        0.000581478381     0.000059531447     0.001526994532
       7       -0.000000199763     0.000031227118     0.000001411208
       8       -0.000018484815     0.000037501920     0.000007154247
       9        0.000031407158    -0.000021498213    -0.000028603611
      10       -0.000006695891     0.000009553479    -0.000007250892
      11       -0.000014621617     0.000000948968    -0.000007436705
      12        0.000016658249     0.000005618220     0.000003485307
      13        0.000020346993     0.000000272442    -0.000003183083
      14       -0.000007496013    -0.000005805849    -0.000002247025
      15       -0.000008544843     0.000017269928    -0.000020249886
      16       -0.000029180431     0.000003133171     0.000028636779
      17        0.000027082528    -0.000007594984     0.000002602497
      18       -0.000007081353    -0.000011275043    -0.000030091820

  **** Optimization is complete! (in 7 steps) ****
    Final optimized geometry and variables:
    Molecular point group: c1

    Geometry (in Angstrom), charge = 0, multiplicity = 1:

    H           -1.826951439998    -0.119898976960     1.290691973502
    C           -1.613826620089    -1.000150999328     0.694192465345
    O           -0.314994521692    -1.008227574040     0.183151853936
    H           -2.353245391411    -1.063652258625    -0.098989578792
    H           -1.713223132221    -1.864000758562     1.339144195817
    C            0.320168128592     0.216408587175    -0.137633408027
    C            1.614139271623    -0.210792582924    -0.826466714123
    C           -0.534945036371     1.048578167812    -1.098032841111
    C            0.645121594483     1.005774811540     1.134608363030
    H            1.391249362838    -0.787798928656    -1.716801830688
    H            2.203061596677    -0.832119843157    -0.161309348999
    H            2.208152693750     0.651702604926    -1.111304954304
    H           -0.791500339737     0.464557592481    -1.975714781480
    H            0.008542156113     1.929869973674    -1.422776728833
    H           -1.455649325698     1.385815933960    -0.633317859665
    H            1.207210533094     0.384958436047     1.823751554602
    H            1.242121311846     1.880184550219     0.895918363851
    H           -0.248339527871     1.352613752745     1.642201919471

  Mulliken Charges: (a.u.)
   Center  Symbol    Alpha    Beta     Spin     Total
       1     H     0.43083  0.43083  0.00000  0.13835
       2     C     3.07804  3.07804  0.00000 -0.15608
       3     O     4.32015  4.32015  0.00000 -0.64031
       4     H     0.42607  0.42607  0.00000  0.14787
       5     H     0.41482  0.41482  0.00000  0.17036
       6     C     2.84399  2.84399  0.00000  0.31203
       7     C     3.23306  3.23306  0.00000 -0.46612
       8     C     3.24792  3.24792  0.00000 -0.49585
       9     C     3.24362  3.24362  0.00000 -0.48723
      10     H     0.41461  0.41461  0.00000  0.17078
      11     H     0.41371  0.41371  0.00000  0.17258
      12     H     0.42509  0.42509  0.00000  0.14983
      13     H     0.41370  0.41370  0.00000  0.17261
      14     H     0.41901  0.41901  0.00000  0.16197
      15     H     0.42028  0.42028  0.00000  0.15944
      16     H     0.41327  0.41327  0.00000  0.17345
      17     H     0.42101  0.42101  0.00000  0.15798
      18     H     0.42083  0.42083  0.00000  0.15835

   Total alpha = 25.00000, Total beta = 25.00000, Total charge = -0.00000
