  ==> Input File <==

--------------------------------------------------------------------------
set {
	reference rhf
	basis 6-31G*
}

set_num_threads( 4 )
memory 2 gb

molecule MOL {
0 1

H	 -3.504093	 -0.106700	 -0.789925
O	 -3.111742	 -0.217645	 0.065275
C	 -1.776530	 -0.069194	 0.008374
C	 -1.111675	 0.210696	 -1.181849
C	 -1.067774	 -0.206168	 1.195374
H	 -1.668529	 0.315296	 -2.097427
C	 0.260073	 0.352557	 -1.180222
H	 -1.603203	 -0.422078	 2.100344
C	 0.303825	 -0.061461	 1.180861
H	 0.785959	 0.568545	 -2.091207
C	 0.984182	 0.218375	 0.000000
H	 0.853541	 -0.167510	 2.100441
C	 2.452467	 0.370529	 0.000000
O	 3.228994	 -0.533774	 0.000000
H	 2.809473	 1.405765	 0.000000

	symmetry c1
}
set optking {
	frozen_dihedral = ("
		7 11 13 14
	")
}

ee = optimize('scf')
oeprop('DIPOLE', 'QUADRUPOLE', 'MULLIKEN_CHARGES')
f=open( 'psi4out.xyz', 'w' )
f.write( "15  " )
f.write( str(ee) + "\n" )
f.write( MOL.save_string_xyz() )
f.close()
--------------------------------------------------------------------------

    Molecular point group: c1
  Charge       = 0
  Multiplicity = 1
  Basis Set: 6-31G*
  Basis Set:
  @DF-RHF Final Energy:  -418.27340866621836
    Total Energy =                       -418.2734086662183017
    Molecular point group: c1
  Basis Set: 6-31G*
  Basis Set:
  Basis Set: 6-31G*
  Basis Set:
  @DF-RHF Final Energy:  -418.27384036157156
    Total Energy =                       -418.2738403615718425
  Basis Set: 6-31G*
  Basis Set:
  Basis Set: 6-31G*
  Basis Set:
  @DF-RHF Final Energy:  -418.27408929912053
    Total Energy =                       -418.2740892991207602
  Basis Set: 6-31G*
  Basis Set:
  Basis Set: 6-31G*
  Basis Set:
  @DF-RHF Final Energy:  -418.27417495933582
    Total Energy =                       -418.2741749593359373
  Basis Set: 6-31G*
  Basis Set:
  Basis Set: 6-31G*
  Basis Set:
  @DF-RHF Final Energy:  -418.27417729115024
    Total Energy =                       -418.2741772911498401
  Basis Set: 6-31G*
  Basis Set:
  Charge       = 0
  Multiplicity = 1
  Basis Set: 6-31G*
  Basis Set:

    Orbital Energies (a.u.)
    -----------------------

    Doubly Occupied:

       1A    -20.603123     2A    -20.570984     3A    -11.334695
       4A    -11.313300     5A    -11.256211     6A    -11.252843
       7A    -11.243995     8A    -11.243158     9A    -11.236468
      10A     -1.422857    11A     -1.409724    12A     -1.167876
      13A     -1.037825    14A     -1.035024    15A     -0.887492
      16A     -0.858711    17A     -0.801623    18A     -0.751966
      19A     -0.704286    20A     -0.677743    21A     -0.652032
      22A     -0.628082    23A     -0.605067    24A     -0.600757
      25A     -0.589850    26A     -0.560410    27A     -0.528267
      28A     -0.502097    29A     -0.492269    30A     -0.421888
      31A     -0.353966    32A     -0.323426

  @DF-RHF Final Energy:  -418.27417766670970

   => Energetics <=

    Nuclear Repulsion Energy =            400.2857869290837129
    One-Electron Energy =               -1362.9839045484468443
    Two-Electron Energy =                 544.4239399526531997
    DFT Exchange-Correlation Energy =       0.0000000000000000
    Empirical Dispersion Energy =           0.0000000000000000
    PCM Polarization Energy =               0.0000000000000000
    EFP Energy =                            0.0000000000000000
    Total Energy =                       -418.2741776667098748
    Molecular point group: c1
  Basis Set: 6-31G*
  Basis Set:

  -Total Gradient:
     Atom            X                  Y                   Z
    ------   -----------------  -----------------  -----------------
       1        0.000000454928     0.000012041602     0.000004301747
       2       -0.000008980607     0.000014115375    -0.000011495488
       3        0.000026899729    -0.000096148220     0.000081783432
       4        0.000057746500     0.000036884065    -0.000023436974
       5       -0.000107192809     0.000017003171    -0.000042453842
       6       -0.000005390904    -0.000002067663     0.000008273637
       7        0.000177241936    -0.003117009158    -0.000519505506
       8        0.000004131472     0.000000004691    -0.000002342963
       9        0.000075329958     0.000065695730    -0.000052919936
      10        0.000009928751     0.000008576483     0.000009960560
      11       -0.000323192826     0.004471251139    -0.000908425487
      12       -0.000005567887    -0.000002130331    -0.000002488277
      13        0.000104992861    -0.001366126803     0.005312709449
      14       -0.000028475869    -0.000041612918    -0.003847493108
      15        0.000022074763    -0.000000477165    -0.000006467245

  **** Optimization is complete! (in 6 steps) ****
    Final optimized geometry and variables:
    Molecular point group: c1

    Geometry (in Angstrom), charge = 0, multiplicity = 1:

    H           -3.507803722274    -0.132192296590    -0.806391692846
    O           -3.119158787927    -0.228302429931     0.051893755924
    C           -1.780392942867    -0.067713417679    -0.004486784872
    C           -1.112467648936     0.218030345136    -1.184303249256
    C           -1.069938783433    -0.200253761455     1.181381941241
    H           -1.659012923609     0.311923926692    -2.107257609270
    C            0.263713186165     0.378092760641    -1.174435216996
    H           -1.602679545667    -0.429174227033     2.085145107000
    C            0.301512832867    -0.049213815287     1.176699381012
    H            0.771126057176     0.598001695677    -2.097609069393
    C            0.982406474667     0.254931948281     0.002651120816
    H            0.847529089201    -0.171068445876     2.095217693157
    C            2.477453931725     0.376790277354    -0.006653685015
    O            3.215542775291    -0.553854861116     0.011374132989
    H            2.879515985745     1.392788904723    -0.064306012027

  Mulliken Charges: (a.u.)
   Center  Symbol    Alpha    Beta     Spin     Total
       1     H     0.27017  0.27017  0.00000  0.45966
       2     O     4.37605  4.37605  0.00000 -0.75211
       3     C     2.79216  2.79216  0.00000  0.41567
       4     C     3.14221  3.14221  0.00000 -0.28441
       5     C     3.12172  3.12172  0.00000 -0.24343
       6     H     0.39974  0.39974  0.00000  0.20052
       7     C     3.09537  3.09537  0.00000 -0.19075
       8     H     0.38687  0.38687  0.00000  0.22627
       9     C     3.09250  3.09250  0.00000 -0.18500
      10     H     0.39116  0.39116  0.00000  0.21769
      11     C     3.04310  3.04310  0.00000 -0.08620
      12     H     0.38858  0.38858  0.00000  0.22284
      13     C     2.85505  2.85505  0.00000  0.28990
      14     O     4.22075  4.22075  0.00000 -0.44151
      15     H     0.42457  0.42457  0.00000  0.15085

   Total alpha = 32.00000, Total beta = 32.00000, Total charge = -0.00000
