                              Psi4 1.0.54 Driver

  ==> Input File <==

--------------------------------------------------------------------------
set {
	reference rhf
	basis cc-pvtz
}

set_num_threads( 4 )
memory 2 gb

molecule MOL {
0 1

H	 -2.698799	 -0.000846	 0.036018
C	 -1.694291	 -0.000483	 0.434279
O	 -0.828718	 -0.000608	 -0.655022
H	 -1.576855	 0.881100	 1.056504
H	 -1.576401	 -0.881658	 1.057001
C	 0.557892	 0.000078	 -0.420099
C	 1.369124	 0.144391	 -1.702811
C	 0.971248	 1.011452	 0.643155
H	 0.742048	 -0.990314	 -0.022822
H	 1.024791	 -0.562050	 -2.448086
H	 2.414833	 -0.056708	 -1.500825
H	 1.303429	 1.142815	 -2.119245
H	 0.351055	 0.906270	 1.524824
H	 2.002538	 0.841961	 0.930360
H	 0.894890	 2.032866	 0.289003

	symmetry c1
}
set optking {
	frozen_dihedral = ("
		9 6 3 2
	")
}

ee,wfn = optimize('scf', return_wfn=True)
oeprop( wfn, 'DIPOLE', 'QUADRUPOLE', 'MULLIKEN_CHARGES')
f=open( 'psi4out.xyz', 'w' )
f.write( "15  " )
f.write( str(ee) + "\n" )
f.write( MOL.save_string_xyz() )
f.close()
--------------------------------------------------------------------------

    Molecular point group: c1
  Charge       = 0
  Multiplicity = 1
  Basis Set: CC-PVTZ
  Basis Set:
  @DF-RHF Final Energy:  -232.22293476730522
    Total Energy =                       -232.2229347673053326
    Molecular point group: c1
  Basis Set: CC-PVTZ
  Basis Set:
  Basis Set: CC-PVTZ
  Basis Set:
  @DF-RHF Final Energy:  -232.21148877427657
    Total Energy =                       -232.2114887742764608
  Basis Set: CC-PVTZ
  Basis Set:
  Basis Set: CC-PVTZ
  Basis Set:
  @DF-RHF Final Energy:  -232.22782936068546
    Total Energy =                       -232.2278293606854618
  Basis Set: CC-PVTZ
  Basis Set:
  Basis Set: CC-PVTZ
  Basis Set:
  @DF-RHF Final Energy:  -232.22854410525622
    Total Energy =                       -232.2285441052561623
  Basis Set: CC-PVTZ
  Basis Set:
  Basis Set: CC-PVTZ
  Basis Set:
  @DF-RHF Final Energy:  -232.22859186886757
    Total Energy =                       -232.2285918688675679
  Basis Set: CC-PVTZ
  Basis Set:
  Basis Set: CC-PVTZ
  Basis Set:
  @DF-RHF Final Energy:  -232.22860275484035
    Total Energy =                       -232.2286027548403240
  Basis Set: CC-PVTZ
  Basis Set:
  Basis Set: CC-PVTZ
  Basis Set:
  @DF-RHF Final Energy:  -232.22860557228486
    Total Energy =                       -232.2286055722851756
  Basis Set: CC-PVTZ
  Basis Set:
  Charge       = 0
  Multiplicity = 1
  Basis Set: CC-PVTZ
  Basis Set:

    Orbital Energies (a.u.)
    -----------------------

    Doubly Occupied:

       1A    -20.543810     2A    -11.273017     3A    -11.260047
       4A    -11.210246     5A    -11.203838     6A     -1.377209
       7A     -1.053928     8A     -0.947501     9A     -0.913732
      10A     -0.789768    11A     -0.677246    12A     -0.641377
      13A     -0.635271    14A     -0.593377    15A     -0.550326
      16A     -0.543453    17A     -0.526322    18A     -0.498459
      19A     -0.495851    20A     -0.452227    21A     -0.411148

  @DF-RHF Final Energy:  -232.22860560378373

   => Energetics <=

    Nuclear Repulsion Energy =            198.1324847439849179
    One-Electron Energy =                -707.5258805529352912
    Two-Electron Energy =                 277.1647902051666392
    DFT Exchange-Correlation Energy =       0.0000000000000000
    Empirical Dispersion Energy =           0.0000000000000000
    PCM Polarization Energy =               0.0000000000000000
    EFP Energy =                            0.0000000000000000
    Total Energy =                       -232.2286056037837056
    Molecular point group: c1
  Basis Set: CC-PVTZ
  Basis Set:

  -Total Gradient:
     Atom            X                  Y                   Z
    ------   -----------------  -----------------  -----------------
       1        0.000002913213    -0.000000390086    -0.000001566199
       2        0.000347250460     0.002896154379    -0.000342860669
       3       -0.000159377716    -0.004647207526    -0.000148523429
       4       -0.000001366587    -0.000002850595    -0.000000398285
       5        0.000001426773    -0.000001464929     0.000001866379
       6       -0.001588177324     0.003475722411     0.003189776596
       7        0.000010484448    -0.000017689276    -0.000001129419
       8        0.000004776436    -0.000001756710     0.000012350022
       9        0.001390610022    -0.001697833816    -0.002713619071
      10        0.000002344874    -0.000000867600    -0.000009819994
      11        0.000001689991    -0.000004189231    -0.000000856439
      12       -0.000006991273    -0.000001010492     0.000010583682
      13       -0.000008682324     0.000001848246     0.000011527082
      14        0.000004707706    -0.000003322306     0.000002144918
      15       -0.000001608701     0.000004857531    -0.000009475175

  **** Optimization is complete! (in 8 steps) ****
    Final optimized geometry and variables:
    Molecular point group: c1

    Geometry (in Angstrom), charge = 0, multiplicity = 1:

    H           -2.746937485913    -0.163288762763    -0.405311972742
    C           -1.893229891789     0.004635208120     0.235797699061
    O           -0.753933855871    -0.223513266828    -0.526204729416
    H           -1.941906144720     1.021212103051     0.611340903101
    H           -1.957919689575    -0.679646905442     1.079958973800
    C            0.476002071560    -0.292794816097     0.146521418734
    C            1.537894214805    -0.412597266384    -0.933492504779
    C            0.740879325924     0.895927033582     1.061357490085
    H            0.495632144011    -1.212439528347     0.732721293453
    H            1.315594988316    -1.248889613538    -1.583427345398
    H            2.516557668552    -0.566838070146    -0.494113094193
    H            1.567319912482     0.487288359538    -1.536825243399
    H            0.047101566456     0.940748974795     1.890807943266
    H            1.739251339584     0.820188973396     1.475331573057
    H            0.672505812637     1.825124563583     0.506093169483

  Mulliken Charges: (a.u.)
   Center  Symbol    Alpha    Beta     Spin     Total
       1     H     0.44337  0.44337  0.00000  0.11326
       2     C     3.04051  3.04051  0.00000 -0.08102
       3     O     4.18081  4.18081  0.00000 -0.36162
       4     H     0.46782  0.46782  0.00000  0.06436
       5     H     0.47140  0.47140  0.00000  0.05719
       6     C     2.92304  2.92304  0.00000  0.15392
       7     C     3.14097  3.14097  0.00000 -0.28194
       8     C     3.16243  3.16243  0.00000 -0.32485
       9     H     0.46418  0.46418  0.00000  0.07164
      10     H     0.44630  0.44630  0.00000  0.10741
      11     H     0.45923  0.45923  0.00000  0.08154
      12     H     0.45439  0.45439  0.00000  0.09122
      13     H     0.44862  0.44862  0.00000  0.10277
      14     H     0.44723  0.44723  0.00000  0.10555
      15     H     0.44972  0.44972  0.00000  0.10056

   Total alpha = 21.00000, Total beta = 21.00000, Total charge =  0.00000

*** Psi4 exiting successfully. Buy a developer a beer!
