                              Psi4 1.0.54 Driver

  ==> Input File <==

--------------------------------------------------------------------------
set {
	reference rhf
	basis cc-pvtz
}

set_num_threads( 4 )
memory 2 gb

molecule MOL {
0 1

O	 2.868453	 1.353349	 -0.000734
C	 2.841259	 0.166180	 -0.000295
C	 1.542794	 -0.614730	 -0.000853
C	 4.113372	 -0.651103	 0.000743
C	 0.288398	 0.247429	 0.000314
H	 1.557171	 -1.273139	 -0.866508
H	 1.557484	 -1.274998	 0.863344
C	 -0.993089	 -0.581367	 -0.000217
H	 0.305153	 0.900562	 -0.864701
H	 0.305567	 0.898805	 0.866656
C	 -2.258482	 0.271340	 0.000669
H	 -1.002280	 -1.233920	 -0.870484
H	 -1.002061	 -1.235367	 0.868958
C	 -3.308516	 -0.199125	 -1.001742
H	 -1.994905	 1.303934	 -0.214711
H	 -2.690231	 0.270887	 0.998527
C	 -4.569972	 0.657889	 -0.995051
H	 -2.878192	 -0.197861	 -1.999619
H	 -3.573525	 -1.230788	 -0.786427
H	 -4.343100	 1.689886	 -1.241126
H	 -5.293899	 0.297577	 -1.716942
H	 -5.043705	 0.649120	 -0.019068
H	 4.145311	 -1.294584	 -0.871587
H	 4.970080	 0.004978	 -0.000091
H	 4.145223	 -1.291980	 0.874988

	symmetry c1
}
set optking {
	frozen_dihedral = ("
		15 11 8 12
	")
}

ee,wfn = optimize('scf', return_wfn=True)
oeprop( wfn, 'DIPOLE', 'QUADRUPOLE', 'MULLIKEN_CHARGES')
f=open( 'psi4out.xyz', 'w' )
f.write( "25  " )
f.write( str(ee) + "\n" )
f.write( MOL.save_string_xyz() )
f.close()
--------------------------------------------------------------------------

    Molecular point group: c1
  Charge       = 0
  Multiplicity = 1
  Basis Set: CC-PVTZ
  Basis Set:
  @DF-RHF Final Energy:  -387.26986620522331
    Total Energy =                       -387.2698662052233658
    Molecular point group: c1
  Basis Set: CC-PVTZ
  Basis Set:
  Basis Set: CC-PVTZ
  Basis Set:
  @DF-RHF Final Energy:  -387.27009885787726
    Total Energy =                       -387.2700988578772012
  Basis Set: CC-PVTZ
  Basis Set:
  Basis Set: CC-PVTZ
  Basis Set:
  @DF-RHF Final Energy:  -387.27016793455533
    Total Energy =                       -387.2701679345551611
  Basis Set: CC-PVTZ
  Basis Set:
  Basis Set: CC-PVTZ
  Basis Set:
  @DF-RHF Final Energy:  -387.26995211269627
    Total Energy =                       -387.2699521126957052
  Basis Set: CC-PVTZ
  Basis Set:
  Charge       = 0
  Multiplicity = 1
  Basis Set: CC-PVTZ
  Basis Set:

    Orbital Energies (a.u.)
    -----------------------

    Doubly Occupied:

       1A    -20.538918     2A    -11.320592     3A    -11.230081
       4A    -11.226599     5A    -11.215613     6A    -11.214594
       7A    -11.213981     8A    -11.211248     9A    -11.206199
      10A     -1.398984    11A     -1.093788    12A     -1.057365
      13A     -1.015382    14A     -0.969176    15A     -0.891877
      16A     -0.817088    17A     -0.791264    18A     -0.731408
      19A     -0.657195    20A     -0.654402    21A     -0.634873
      22A     -0.624119    23A     -0.600391    24A     -0.583725
      25A     -0.567071    26A     -0.562399    27A     -0.539815
      28A     -0.530048    29A     -0.510977    30A     -0.492850
      31A     -0.488016    32A     -0.478703    33A     -0.465064
      34A     -0.455457    35A     -0.451188    36A     -0.401480

  @DF-RHF Final Energy:  -387.27017209234543

   => Energetics <=

    Nuclear Repulsion Energy =            439.6483993784109998
    One-Electron Energy =               -1396.1532753451626832
    Two-Electron Energy =                 569.2347038744053407
    DFT Exchange-Correlation Energy =       0.0000000000000000
    Empirical Dispersion Energy =           0.0000000000000000
    PCM Polarization Energy =               0.0000000000000000
    EFP Energy =                            0.0000000000000000
    Total Energy =                       -387.2701720923463427
    Molecular point group: c1
  Basis Set: CC-PVTZ
  Basis Set:

  -Total Gradient:
     Atom            X                  Y                   Z
    ------   -----------------  -----------------  -----------------
       1        0.000095887368    -0.000025300015    -0.000059147414
       2       -0.000133532000    -0.000084520176     0.000162291362
       3       -0.000031800466     0.000019300787    -0.000050544596
       4        0.000048232708     0.000073183338    -0.000050173831
       5        0.000141179596     0.000081598453     0.000031304209
       6       -0.000006996212    -0.000003287411     0.000001392274
       7       -0.000004597928     0.000004981953     0.000000411555
       8        0.001817620016     0.002640610766    -0.001364636407
       9        0.000003194469    -0.000005254604    -0.000006517536
      10        0.000024579005    -0.000010074699    -0.000008105293
      11       -0.000795000195    -0.000996854223    -0.003233341752
      12       -0.001432732485    -0.002195346238     0.001722514853
      13        0.000026123596     0.000043529554    -0.000059310286
      14       -0.000131820217    -0.000094276367    -0.000086576669
      15        0.000353079134     0.000502093416     0.003080258820
      16       -0.000007080921     0.000006659873    -0.000083504564
      17        0.000022951709     0.000014861687     0.000014266004
      18       -0.000015521868     0.000015798409     0.000003964651
      19       -0.000032889810     0.000022982462    -0.000016438784
      20        0.000012951711    -0.000011033983     0.000006943735
      21        0.000033459149    -0.000020914684     0.000000475172
      22        0.000016463445    -0.000009612580    -0.000002873382
      23       -0.000007740920     0.000020163199    -0.000002818977
      24        0.000017961941    -0.000014027035    -0.000001960444
      25       -0.000013970830     0.000024738122     0.000002127300

  **** Optimization is complete! (in 5 steps) ****
    Final optimized geometry and variables:
    Molecular point group: c1

    Geometry (in Angstrom), charge = 0, multiplicity = 1:

    O            2.835587107669     1.266508013302     0.232870727675
    C            2.801964480295     0.079590663253     0.243243400594
    C            1.499576097713    -0.694709395051     0.226064449865
    C            4.069792485821    -0.743827731436     0.273031889873
    C            0.250444485339     0.173830397495     0.197350423978
    H            1.525623684807    -1.360302891435    -0.633862062178
    H            1.495128369809    -1.347884687561     1.095724135822
    C           -1.035880812349    -0.646535135728     0.172873060889
    H            0.287084265145     0.823584034027    -0.669639243995
    H            0.251762661284     0.828997820278     1.061315097024
    C           -2.314590461006     0.210596476390     0.186501177814
    H           -1.042912753347    -1.299985286420    -0.695617428744
    H           -1.045999023880    -1.317100378280     1.028028667224
    C           -3.392544896661    -0.270390701469    -0.780291124292
    H           -2.064462026875     1.245687057285    -0.027810813026
    H           -2.726237617106     0.223783669880     1.191764921994
    C           -4.667091783009     0.563895777703    -0.721554691809
    H           -2.996632981616    -0.254617256694    -1.792192528776
    H           -3.630539608119    -1.308571058886    -0.563513893081
    H           -4.465705732585     1.602417894640    -0.962330959360
    H           -5.408033071234     0.199227028003    -1.423720874853
    H           -5.108065033552     0.535484391770     0.269321486465
    H            4.112948756258    -1.395023564310    -0.593038104952
    H            4.929892972233    -0.092193216724     0.280892308738
    H            4.083494437468    -1.376998571025     1.153335399236

  Mulliken Charges: (a.u.)
   Center  Symbol    Alpha    Beta     Spin     Total
       1     O     4.17062  4.17062  0.00000 -0.34125
       2     C     2.86212  2.86212  0.00000  0.27576
       3     C     3.11479  3.11479  0.00000 -0.22958
       4     C     3.15135  3.15135  0.00000 -0.30270
       5     C     3.08282  3.08282  0.00000 -0.16564
       6     H     0.44510  0.44510  0.00000  0.10980
       7     H     0.44552  0.44552  0.00000  0.10895
       8     C     3.09565  3.09565  0.00000 -0.19130
       9     H     0.44596  0.44596  0.00000  0.10809
      10     H     0.44472  0.44472  0.00000  0.11056
      11     C     3.09156  3.09156  0.00000 -0.18313
      12     H     0.45510  0.45510  0.00000  0.08981
      13     H     0.45335  0.45335  0.00000  0.09330
      14     C     3.08335  3.08335  0.00000 -0.16669
      15     H     0.45167  0.45167  0.00000  0.09665
      16     H     0.45257  0.45257  0.00000  0.09486
      17     C     3.15048  3.15048  0.00000 -0.30095
      18     H     0.45478  0.45478  0.00000  0.09043
      19     H     0.45426  0.45426  0.00000  0.09148
      20     H     0.45414  0.45414  0.00000  0.09171
      21     H     0.44879  0.44879  0.00000  0.10241
      22     H     0.45516  0.45516  0.00000  0.08968
      23     H     0.45042  0.45042  0.00000  0.09915
      24     H     0.43533  0.43533  0.00000  0.12935
      25     H     0.45038  0.45038  0.00000  0.09925

   Total alpha = 36.00000, Total beta = 36.00000, Total charge = -0.00000

*** Psi4 exiting successfully. Buy a developer a beer!
