  ==> Input File <==

--------------------------------------------------------------------------
set {
	reference rhf
	basis cc-pvtz
}

set_num_threads( 4 )
memory 2 gb

molecule MOL {
0 1

H	 2.342730	 0.877684	 -1.045694
C	 2.360424	 0.000000	 -0.411793
C	 1.173749	 0.000000	 0.526870
H	 3.286567	 0.000000	 0.151574
H	 2.342730	 -0.877684	 -1.045694
O	 -0.000000	 0.000000	 -0.223739
H	 1.203779	 0.876757	 1.172538
H	 1.203779	 -0.876757	 1.172538
C	 -1.173749	 0.000000	 0.526870
C	 -2.074340	 -1.112134	 0.035565
H	 -1.676686	 0.961635	 0.433040
H	 -0.942027	 -0.140786	 1.581847
H	 -2.319439	 -0.968225	 -1.009274
H	 -2.995612	 -1.131067	 0.606548
H	 -1.584004	 -2.071812	 0.140747

	symmetry c1
}
set optking {
	frozen_dihedral = ("
		11 9 6 3
	")
}

ee = optimize('scf')
oeprop('DIPOLE', 'QUADRUPOLE', 'MULLIKEN_CHARGES')
f=open( 'psi4out.xyz', 'w' )
f.write( "15  " )
f.write( str(ee) + "\n" )
f.write( MOL.save_string_xyz() )
f.close()
--------------------------------------------------------------------------

    Molecular point group: c1
  Charge       = 0
  Multiplicity = 1
  Basis Set: CC-PVTZ
  Basis Set:
  @DF-RHF Final Energy:  -232.22976155649181
    Total Energy =                       -232.2297615564917805
    Molecular point group: c1
  Basis Set: CC-PVTZ
  Basis Set:
  Basis Set: CC-PVTZ
  Basis Set:
  @DF-RHF Final Energy:  -232.23003267014309
    Total Energy =                       -232.2300326701432027
  Basis Set: CC-PVTZ
  Basis Set:
  Basis Set: CC-PVTZ
  Basis Set:
  @DF-RHF Final Energy:  -232.23010972663559
    Total Energy =                       -232.2301097266353622
  Basis Set: CC-PVTZ
  Basis Set:
  Charge       = 0
  Multiplicity = 1
  Basis Set: CC-PVTZ
  Basis Set:

    Orbital Energies (a.u.)
    -----------------------

    Doubly Occupied:

       1A    -20.542346     2A    -11.266998     3A    -11.265841
       4A    -11.207006     5A    -11.206853     6A     -1.376926
       7A     -1.043891     8A     -0.983912     9A     -0.851374
      10A     -0.823249    11A     -0.673335    12A     -0.663988
      13A     -0.627323    14A     -0.580683    15A     -0.551036
      16A     -0.536901    17A     -0.522656    18A     -0.499334
      19A     -0.486572    20A     -0.464779    21A     -0.407629

  @DF-RHF Final Energy:  -232.23011065255110

   => Energetics <=

    Nuclear Repulsion Energy =            191.4697623819612318
    One-Electron Energy =                -694.2344820898553053
    Two-Electron Energy =                 270.5346090553428553
    DFT Exchange-Correlation Energy =       0.0000000000000000
    Empirical Dispersion Energy =           0.0000000000000000
    PCM Polarization Energy =               0.0000000000000000
    EFP Energy =                            0.0000000000000000
    Total Energy =                       -232.2301106525512182
    Molecular point group: c1
  Basis Set: CC-PVTZ
  Basis Set:

  -Total Gradient:
     Atom            X                  Y                   Z
    ------   -----------------  -----------------  -----------------
       1       -0.000008383359    -0.000011471690     0.000014594198
       2        0.000006536193    -0.000011861034     0.000005841340
       3        0.000072624878    -0.001224718382    -0.000023432679
       4        0.000032846367    -0.000002519913    -0.000001341686
       5        0.000000880046     0.000005832994     0.000001538134
       6       -0.000290400670     0.001683887129    -0.000268684451
       7       -0.000012051024    -0.000012237903    -0.000001518290
       8       -0.000023278172     0.000009001088    -0.000024839468
       9        0.001028583951     0.000049338105     0.001485326528
      10       -0.000015464612     0.000050961364     0.000010768732
      11       -0.000778985988    -0.000549249043    -0.001229574143
      12       -0.000029468841    -0.000003020535     0.000029183264
      13       -0.000003093606    -0.000007280359    -0.000009279270
      14       -0.000001774447     0.000003179578     0.000000835558
      15        0.000021429280     0.000020158601     0.000010582232

  **** Optimization is complete! (in 4 steps) ****
    Final optimized geometry and variables:
    Molecular point group: c1

    Geometry (in Angstrom), charge = 0, multiplicity = 1:

    H            2.275411888386     1.106966427981    -1.155442813642
    C            2.304607284143     0.231847604924    -0.518376200920
    C            1.134069897226     0.234895695195     0.440076167988
    H            3.240214612776     0.234787870386     0.029555304839
    H            2.276507738317    -0.648247227038    -1.148691937150
    O           -0.050875303854     0.227682149511    -0.295079295344
    H            1.177060863190     1.115115933939     1.079855424014
    H            1.177609398283    -0.638719826135     1.088434537703
    C           -1.239869806554     0.210414048414     0.442378652171
    C           -2.151207592536    -0.889397579220    -0.066522148505
    H           -1.733834194422     1.172004767207     0.335464190297
    H           -1.032872645973     0.063960464270     1.498411520334
    H           -2.352754104085    -0.752430724417    -1.121710088695
    H           -3.095244726179    -0.878277425368     0.467727303411
    H           -1.691433291813    -1.861533131855     0.066565189009

  Mulliken Charges: (a.u.)
   Center  Symbol    Alpha    Beta     Spin     Total
       1     H     0.45142  0.45142  0.00000  0.09716
       2     C     3.13741  3.13741  0.00000 -0.27482
       3     C     2.96440  2.96440  0.00000  0.07119
       4     H     0.45929  0.45929  0.00000  0.08142
       5     H     0.45180  0.45180  0.00000  0.09641
       6     O     4.18454  4.18454  0.00000 -0.36908
       7     H     0.47213  0.47213  0.00000  0.05574
       8     H     0.47451  0.47451  0.00000  0.05098
       9     C     2.97368  2.97368  0.00000  0.05264
      10     C     3.13386  3.13386  0.00000 -0.26772
      11     H     0.46021  0.46021  0.00000  0.07957
      12     H     0.47164  0.47164  0.00000  0.05672
      13     H     0.45082  0.45082  0.00000  0.09836
      14     H     0.45875  0.45875  0.00000  0.08249
      15     H     0.45553  0.45553  0.00000  0.08894

   Total alpha = 21.00000, Total beta = 21.00000, Total charge = -0.00000
