                              Psi4 1.0.54 Driver

  ==> Input File <==

--------------------------------------------------------------------------
set {
	reference rhf
	basis cc-pvtz
}

set_num_threads( 4 )
memory 2 gb

molecule MOL {
0 1

H	 1.467064	 -2.914303	 -0.956265
C	 1.328421	 -1.838522	 -0.972331
C	 0.256367	 -1.431278	 0.029346
H	 1.037802	 -1.543987	 -1.973186
H	 2.286529	 -1.382370	 -0.756258
N	 0.000297	 0.000045	 0.046090
H	 -0.660367	 -1.939075	 -0.236845
H	 0.523309	 -1.792351	 1.026491
C	 -1.359159	 0.315706	 0.454404
C	 0.994364	 0.732740	 0.813887
C	 -2.416729	 -0.286720	 -0.460525
H	 -1.478729	 1.390261	 0.442008
H	 -1.539692	 0.003361	 1.486761
C	 1.183416	 2.166913	 0.338654
H	 1.942645	 0.221647	 0.721117
H	 0.749282	 0.724035	 1.879612
H	 -2.285276	 0.073129	 -1.473515
H	 -2.371743	 -1.368476	 -0.483209
H	 -3.408658	 -0.007405	 -0.121593
H	 1.493882	 2.180356	 -0.698813
H	 0.274550	 2.749890	 0.421573
H	 1.944707	 2.661302	 0.932646

	symmetry c1
}
set optking {
	frozen_dihedral = ("
		3 6 9 11
	")
}

ee,wfn = optimize('scf', return_wfn=True)
oeprop( wfn, 'DIPOLE', 'QUADRUPOLE', 'MULLIKEN_CHARGES')
f=open( 'psi4out.xyz', 'w' )
f.write( "22  " )
f.write( str(ee) + "\n" )
f.write( MOL.save_string_xyz() )
f.close()
--------------------------------------------------------------------------

    Molecular point group: c1
  Charge       = 0
  Multiplicity = 1
  Basis Set: CC-PVTZ
  Basis Set:
  @DF-RHF Final Energy:  -290.47363022838903
    Total Energy =                       -290.4736302283889700
    Molecular point group: c1
  Basis Set: CC-PVTZ
  Basis Set:
  Basis Set: CC-PVTZ
  Basis Set:
  @DF-RHF Final Energy:  -289.98196830914242
    Total Energy =                       -289.9819683091426441
  Basis Set: CC-PVTZ
  Basis Set:
  Basis Set: CC-PVTZ
  Basis Set:
  @DF-RHF Final Energy:  -290.16869602295742
    Total Energy =                       -290.1686960229573629
  Basis Set: CC-PVTZ
  Basis Set:
  Basis Set: CC-PVTZ
  Basis Set:
  @DF-RHF Final Energy:  -290.40584572813265
    Total Energy =                       -290.4058457281328174
  Basis Set: CC-PVTZ
  Basis Set:
  @DF-RHF Final Energy:  -290.47228244800050
    Total Energy =                       -290.4722824480004419
  @DF-RHF Final Energy:  -290.47438523916327
    Total Energy =                       -290.4743852391633254
  @DF-RHF Final Energy:  -290.47511451638098
    Total Energy =                       -290.4751145163809269
  Basis Set: CC-PVTZ
  Basis Set:
  @DF-RHF Final Energy:  -290.47519310703865
    Total Energy =                       -290.4751931070385922
  Basis Set: CC-PVTZ
  Basis Set:
  Basis Set: CC-PVTZ
  Basis Set:
  @DF-RHF Final Energy:  -290.47521423200493
    Total Energy =                       -290.4752142320051007
  Basis Set: CC-PVTZ
  Basis Set:
  Basis Set: CC-PVTZ
  Basis Set:
  @DF-RHF Final Energy:  -290.47521551691312
    Total Energy =                       -290.4752155169130674
  Basis Set: CC-PVTZ
  Basis Set:
  Charge       = 0
  Multiplicity = 1
  Basis Set: CC-PVTZ
  Basis Set:

    Orbital Energies (a.u.)
    -----------------------

    Doubly Occupied:

       1A    -15.532820     2A    -11.239146     3A    -11.237991
       4A    -11.237628     5A    -11.206228     6A    -11.203468
       7A    -11.203381     8A     -1.225499     9A     -1.025084
      10A     -1.024181    11A     -0.957786    12A     -0.852068
      13A     -0.845044    14A     -0.768453    15A     -0.649279
      16A     -0.641455    17A     -0.628771    18A     -0.594872
      19A     -0.591502    20A     -0.548850    21A     -0.531299
      22A     -0.522238    23A     -0.517806    24A     -0.498477
      25A     -0.493186    26A     -0.487694    27A     -0.462751
      28A     -0.461692    29A     -0.341656

  @DF-RHF Final Energy:  -290.47521624173891

   => Energetics <=

    Nuclear Repulsion Energy =            337.7458349808129583
    One-Electron Energy =               -1061.3814825024501260
    Two-Electron Energy =                 433.1604312798984324
    DFT Exchange-Correlation Energy =       0.0000000000000000
    Empirical Dispersion Energy =           0.0000000000000000
    PCM Polarization Energy =               0.0000000000000000
    EFP Energy =                            0.0000000000000000
    Total Energy =                       -290.4752162417386785
    Molecular point group: c1
  Basis Set: CC-PVTZ
  Basis Set:

  -Total Gradient:
     Atom            X                  Y                   Z
    ------   -----------------  -----------------  -----------------
       1        0.000005404459    -0.000017338221    -0.000027104334
       2       -0.000046803150    -0.000030561123     0.000014353886
       3       -0.001759662913     0.000922326672    -0.001987827334
       4       -0.000002712879     0.000002754127     0.000001365495
       5        0.000046719184     0.000019108291     0.000003704827
       6        0.002645591095    -0.002454493950     0.003055407840
       7        0.000002720714    -0.000008303525     0.000007269215
       8       -0.000001834740    -0.000009758676    -0.000005492015
       9       -0.001017735939     0.004252478817    -0.001540226455
      10       -0.000034883200    -0.000014823583    -0.000068110879
      11        0.000157478638    -0.002655968888     0.000532399803
      12        0.000031791656     0.000043260590     0.000018639466
      13       -0.000009489070    -0.000013040610     0.000004463477
      14        0.000004666063     0.000002726807    -0.000030462233
      15        0.000012156825     0.000008055417     0.000007547841
      16       -0.000014794578    -0.000023945743     0.000007361644
      17        0.000012731591     0.000015038384     0.000011651740
      18       -0.000024867656    -0.000038872268    -0.000011580638
      19        0.000006929509    -0.000003046139    -0.000024076046
      20        0.000004758917     0.000005562205     0.000002793068
      21       -0.000010104467     0.000004824363     0.000018902234
      22       -0.000008060056    -0.000005982946     0.000009019400

  **** Optimization is complete! (in 11 steps) ****
    Final optimized geometry and variables:
    Molecular point group: c1

    Geometry (in Angstrom), charge = 0, multiplicity = 1:

    H            0.621001798832    -2.191012616918    -2.497992361692
    C            0.635059163059    -1.208235220075    -2.038770733242
    C            0.051581800291    -1.279156473399    -0.633070603116
    H            0.050949805234    -0.533652981032    -2.652597918982
    H            1.660517732203    -0.860654967921    -2.044698573373
    N            0.007118132910     0.012752946314     0.029618550043
    H           -0.952776686380    -1.662965159095    -0.715059358863
    H            0.608840024033    -2.010293667761    -0.039339360549
    C           -1.028739624948     0.139688854706     1.039887432850
    C            1.303341395397     0.433281137623     0.534517821673
    C           -2.452427683671    -0.051710666897     0.531646441545
    H           -0.955313522308     1.133419638547     1.459006796642
    H           -0.854590747689    -0.554772443813     1.869864079295
    C            1.490726356329     1.945135523582     0.554049954157
    H            2.071152110179     0.011190276450    -0.098106687710
    H            1.479344068662     0.027394861035     1.534749578413
    H           -2.633350286380     0.563163413007    -0.342247389279
    H           -2.676484296466    -1.078882952303     0.278131652697
    H           -3.151309953405     0.245613611697     1.305393828286
    H            1.364032764791     2.352549648738    -0.441422527640
    H            0.786362463887     2.440214736178     1.210331340334
    H            2.488183287663     2.191500530038     0.902238825280

  Mulliken Charges: (a.u.)
   Center  Symbol    Alpha    Beta     Spin     Total
       1     H     0.45286  0.45286  0.00000  0.09428
       2     C     3.14239  3.14239  0.00000 -0.28478
       3     C     3.03984  3.03984  0.00000 -0.07969
       4     H     0.45184  0.45184  0.00000  0.09631
       5     H     0.45577  0.45577  0.00000  0.08845
       6     N     3.62177  3.62177  0.00000 -0.24354
       7     H     0.44976  0.44976  0.00000  0.10049
       8     H     0.46588  0.46588  0.00000  0.06824
       9     C     3.03334  3.03334  0.00000 -0.06669
      10     C     3.04552  3.04552  0.00000 -0.09103
      11     C     3.15401  3.15401  0.00000 -0.30803
      12     H     0.45205  0.45205  0.00000  0.09590
      13     H     0.47024  0.47024  0.00000  0.05952
      14     C     3.14042  3.14042  0.00000 -0.28084
      15     H     0.44850  0.44850  0.00000  0.10301
      16     H     0.46268  0.46268  0.00000  0.07465
      17     H     0.44939  0.44939  0.00000  0.10121
      18     H     0.45401  0.45401  0.00000  0.09199
      19     H     0.44859  0.44859  0.00000  0.10283
      20     H     0.45166  0.45166  0.00000  0.09668
      21     H     0.45625  0.45625  0.00000  0.08750
      22     H     0.45323  0.45323  0.00000  0.09354

   Total alpha = 29.00000, Total beta = 29.00000, Total charge =  0.00000

*** Psi4 exiting successfully. Buy a developer a beer!
