  ==> Input File <==

--------------------------------------------------------------------------
set {
	reference rhf
	basis 6-31G*
}

set_num_threads( 1 )
memory 2 gb

molecule MOL {
0 1

O	 -0.988096	 -1.408613	 0.050699
C	 -0.676749	 -0.249230	 -0.009274
C	 -1.746085	 0.827156	 -0.009539
N	 0.623947	 0.147590	 -0.102813
H	 -1.701500	 1.431508	 -0.908902
H	 -2.703425	 0.330732	 0.036390
H	 -1.647323	 1.487769	 0.845106
C	 0.930423	 1.558899	 0.024296
C	 1.681874	 -0.668348	 -0.657143
H	 1.855574	 1.679217	 0.577138
H	 0.132680	 2.052953	 0.551039
H	 1.050621	 2.026449	 -0.950574
H	 2.613693	 -0.425886	 -0.160188
H	 1.494497	 -1.719234	 -0.503965
H	 1.814618	 -0.492337	 -1.723075

	symmetry c1
}
set optking {
	frozen_dihedral = ("
		2 4 8 10
	")
}

ee = energy('scf')
oeprop('DIPOLE', 'QUADRUPOLE', 'MULLIKEN_CHARGES')
f=open( 'psi4out.xyz', 'w' )
f.write( "15  " )
f.write( str(ee) + "\n" )
f.write( MOL.save_string_xyz() )
f.close()
--------------------------------------------------------------------------

    Molecular point group: c1

    Geometry (in Angstrom), charge = 0, multiplicity = 1:

       Center              X                  Y                   Z               Mass
    ------------   -----------------  -----------------  -----------------  -----------------
           O         -0.966715367989    -1.449716524021     0.173627938632    15.994914619560
           C         -0.655368367989    -0.290333524021     0.113654938632    12.000000000000
           C         -1.724704367989     0.786052475979     0.113389938632    12.000000000000
           N          0.645327632011     0.106486475979     0.020115938632    14.003074004780
           H         -1.680119367989     1.390404475979    -0.785973061368     1.007825032070
           H         -2.682044367989     0.289628475979     0.159318938632     1.007825032070
           H         -1.625942367989     1.446665475979     0.968034938632     1.007825032070
           C          0.951803632011     1.517795475979     0.147224938632    12.000000000000
           C          1.703254632011    -0.709451524021    -0.534214061368    12.000000000000
           H          1.876954632011     1.638113475979     0.700066938632     1.007825032070
           H          0.154060632011     2.011849475979     0.673967938632     1.007825032070
           H          1.072001632011     1.985345475979    -0.827645061368     1.007825032070
           H          2.635073632011    -0.466989524021    -0.037259061368     1.007825032070
           H          1.515877632011    -1.760337524021    -0.381036061368     1.007825032070
           H          1.835998632011    -0.533440524021    -1.600146061368     1.007825032070

  Charge       = 0
  Multiplicity = 1
  Basis Set: 6-31G*
  Basis Set:

    Orbital Energies (a.u.)
    -----------------------

    Doubly Occupied:

       1A    -20.514259     2A    -15.581669     3A    -11.341493
       4A    -11.262393     5A    -11.255305     6A    -11.229634
       7A     -1.382168     8A     -1.245025     9A     -1.017835
      10A     -0.968809    11A     -0.923696    12A     -0.738994
      13A     -0.680553    14A     -0.660493    15A     -0.652131
      16A     -0.592236    17A     -0.575589    18A     -0.566583
      19A     -0.564242    20A     -0.555275    21A     -0.527180
      22A     -0.501339    23A     -0.409942    24A     -0.364054

  @DF-RHF Final Energy:  -286.02166511376311

   => Energetics <=

    Nuclear Repulsion Energy =            252.4395937364330109
    One-Electron Energy =                -888.7005740331309198
    Two-Electron Energy =                 350.2393151829347744
    DFT Exchange-Correlation Energy =       0.0000000000000000
    Empirical Dispersion Energy =           0.0000000000000000
    PCM Polarization Energy =               0.0000000000000000
    EFP Energy =                            0.0000000000000000
    Total Energy =                       -286.0216651137631061

  Mulliken Charges: (a.u.)
   Center  Symbol    Alpha    Beta     Spin     Total
       1     O     4.30022  4.30022  0.00000 -0.60043
       2     C     2.62682  2.62682  0.00000  0.74636
       3     C     3.30294  3.30294  0.00000 -0.60588
       4     N     3.82052  3.82052  0.00000 -0.64105
       5     H     0.40566  0.40566  0.00000  0.18868
       6     H     0.38966  0.38966  0.00000  0.22068
       7     H     0.40623  0.40623  0.00000  0.18753
       8     C     3.14110  3.14110  0.00000 -0.28221
       9     C     3.14192  3.14192  0.00000 -0.28384
      10     H     0.41041  0.41041  0.00000  0.17918
      11     H     0.40955  0.40955  0.00000  0.18089
      12     H     0.41970  0.41970  0.00000  0.16060
      13     H     0.41667  0.41667  0.00000  0.16666
      14     H     0.38955  0.38955  0.00000  0.22089
      15     H     0.41904  0.41904  0.00000  0.16192

   Total alpha = 24.00000, Total beta = 24.00000, Total charge = -0.00000
