  ==> Input File <==

--------------------------------------------------------------------------
set {
	reference rhf
	basis cc-pvtz
}

set_num_threads( 4 )
memory 2 gb

molecule MOL {
0 1

H	 2.342730	 0.877684	 -1.045694
C	 2.360424	 0.000000	 -0.411793
C	 1.173749	 0.000000	 0.526870
H	 3.286567	 0.000000	 0.151574
H	 2.342730	 -0.877684	 -1.045694
O	 -0.000000	 0.000000	 -0.223739
H	 1.203779	 0.876757	 1.172538
H	 1.203779	 -0.876757	 1.172538
C	 -1.173749	 0.000000	 0.526870
C	 -1.105552	 1.112134	 1.550487
H	 -1.299551	 -0.961635	 1.022776
H	 -2.034210	 0.140786	 -0.126031
H	 -0.259905	 0.968225	 2.211279
H	 -2.010332	 1.131067	 2.147260
H	 -0.995341	 2.071812	 1.061257

	symmetry c1
}
set optking {
	frozen_dihedral = ("
		11 9 6 3
	")
}

ee = optimize('scf')
oeprop('DIPOLE', 'QUADRUPOLE', 'MULLIKEN_CHARGES')
f=open( 'psi4out.xyz', 'w' )
f.write( "15  " )
f.write( str(ee) + "\n" )
f.write( MOL.save_string_xyz() )
f.close()
--------------------------------------------------------------------------

    Molecular point group: c1
  Charge       = 0
  Multiplicity = 1
  Basis Set: CC-PVTZ
  Basis Set:
  @DF-RHF Final Energy:  -232.22188442989761
    Total Energy =                       -232.2218844298977842
    Molecular point group: c1
  Basis Set: CC-PVTZ
  Basis Set:
  Basis Set: CC-PVTZ
  Basis Set:
  @DF-RHF Final Energy:  -232.22276778591868
    Total Energy =                       -232.2227677859189043
  Basis Set: CC-PVTZ
  Basis Set:
  Basis Set: CC-PVTZ
  Basis Set:
  @DF-RHF Final Energy:  -232.22854100128467
    Total Energy =                       -232.2285410012846114
  Basis Set: CC-PVTZ
  Basis Set:
  Basis Set: CC-PVTZ
  Basis Set:
  @DF-RHF Final Energy:  -232.22938267089705
    Total Energy =                       -232.2293826708971665
  Basis Set: CC-PVTZ
  Basis Set:
  Basis Set: CC-PVTZ
  Basis Set:
  @DF-RHF Final Energy:  -232.22953149531801
    Total Energy =                       -232.2295314953181560
  Basis Set: CC-PVTZ
  Basis Set:
  Basis Set: CC-PVTZ
  Basis Set:
  @DF-RHF Final Energy:  -232.22955030388897
    Total Energy =                       -232.2295503038890274
  Basis Set: CC-PVTZ
  Basis Set:
  Charge       = 0
  Multiplicity = 1
  Basis Set: CC-PVTZ
  Basis Set:

    Orbital Energies (a.u.)
    -----------------------

    Doubly Occupied:

       1A    -20.543448     2A    -11.266307     3A    -11.265039
       4A    -11.211776     5A    -11.206146     6A     -1.377286
       7A     -1.040963     8A     -0.989386     9A     -0.868913
      10A     -0.804708    11A     -0.676060    12A     -0.656898
      13A     -0.632203    14A     -0.588418    15A     -0.547798
      16A     -0.540440    17A     -0.524919    18A     -0.504570
      19A     -0.489746    20A     -0.454142    21A     -0.410840

  @DF-RHF Final Energy:  -232.22955110004531

   => Energetics <=

    Nuclear Repulsion Energy =            193.3380628751504844
    One-Electron Energy =                -697.9352209260946438
    Two-Electron Energy =                 272.3676069508989031
    DFT Exchange-Correlation Energy =       0.0000000000000000
    Empirical Dispersion Energy =           0.0000000000000000
    PCM Polarization Energy =               0.0000000000000000
    EFP Energy =                            0.0000000000000000
    Total Energy =                       -232.2295511000452279
    Molecular point group: c1
  Basis Set: CC-PVTZ
  Basis Set:

  -Total Gradient:
     Atom            X                  Y                   Z
    ------   -----------------  -----------------  -----------------
       1       -0.000000770434     0.000000069632    -0.000001701849
       2       -0.000042643106    -0.000007148153    -0.000017282283
       3       -0.000023805140     0.002606350881     0.000274122724
       4       -0.000015213563     0.000003073724     0.000012315564
       5        0.000006007605    -0.000001217887    -0.000006325318
       6       -0.000488023706    -0.004044853033    -0.001039491463
       7       -0.000002134380     0.000008770443     0.000011734290
       8       -0.000000981965     0.000000223704    -0.000011316263
       9        0.002074440709     0.002307501555     0.003392983531
      10       -0.000002343211     0.000007336059     0.000027263195
      11       -0.001571837958    -0.000882176544    -0.002603020562
      12        0.000058297341    -0.000007769725    -0.000046565735
      13        0.000011194682     0.000008714869     0.000004117106
      14       -0.000003018382     0.000004752965     0.000007679067
      15        0.000000831505    -0.000003628489    -0.000004512002

  **** Optimization is complete! (in 7 steps) ****
    Final optimized geometry and variables:
    Molecular point group: c1

    Geometry (in Angstrom), charge = 0, multiplicity = 1:

    H            2.137450789735     0.482228262109    -1.587711574953
    C            2.123940069190    -0.347463637937    -0.891807920802
    C            0.992804391059    -0.184749165440     0.100775670898
    H            3.077053930222    -0.379627512834    -0.375859224180
    H            2.005747385646    -1.263066704136    -1.457629309298
    O           -0.210108384385    -0.130498313453    -0.603012814046
    H            1.140291571426     0.720417248920     0.682644406137
    H            0.983085428327    -1.022227821125     0.798294201805
    C           -1.388405366067    -0.197484774937     0.143531624853
    C           -1.526015064396     0.851323469852     1.235487317143
    H           -1.507054137503    -1.199449734086     0.554972274302
    H           -2.185735496456    -0.064614680016    -0.576080980667
    H           -0.821461042570     0.703717087966     2.044209658172
    H           -2.523943675833     0.799542602312     1.656059363085
    H           -1.379899782149     1.846005531616     0.830295329087

  Mulliken Charges: (a.u.)
   Center  Symbol    Alpha    Beta     Spin     Total
       1     H     0.45126  0.45126  0.00000  0.09747
       2     C     3.13571  3.13571  0.00000 -0.27142
       3     C     2.96710  2.96710  0.00000  0.06580
       4     H     0.45951  0.45951  0.00000  0.08099
       5     H     0.45163  0.45163  0.00000  0.09674
       6     O     4.18003  4.18003  0.00000 -0.36006
       7     H     0.47007  0.47007  0.00000  0.05986
       8     H     0.47419  0.47419  0.00000  0.05163
       9     C     2.98258  2.98258  0.00000  0.03485
      10     C     3.15558  3.15558  0.00000 -0.31117
      11     H     0.46877  0.46877  0.00000  0.06247
      12     H     0.45235  0.45235  0.00000  0.09530
      13     H     0.45357  0.45357  0.00000  0.09286
      14     H     0.44825  0.44825  0.00000  0.10350
      15     H     0.44941  0.44941  0.00000  0.10119

   Total alpha = 21.00000, Total beta = 21.00000, Total charge =  0.00000
