  ==> Input File <==

--------------------------------------------------------------------------
set {
	reference rhf
	basis 6-31G*
}

set_num_threads( 1 )
memory 2 gb

molecule MOL {
0 1

H	 -1.097331	 -0.823443	 -0.861516
N	 -0.626943	 -0.667432	 -0.000092
C	 -1.147624	 -1.304312	 1.188181
C	 0.469286	 0.129090	 0.000148
H	 -2.164451	 -0.982777	 1.387388
H	 -0.522909	 -1.025559	 2.021101
H	 -1.137758	 -2.384412	 1.086604
C	 1.788933	 -0.616240	 -0.000037
O	 0.411098	 1.327768	 -0.000049
H	 1.872803	 -1.245775	 -0.880381
H	 2.595421	 0.101576	 0.003713
H	 1.870096	 -1.252171	 0.875943

	symmetry c1
}
set optking {
	frozen_dihedral = ("
		4 2 3 5
	")
}

ee = energy('scf')
oeprop('DIPOLE', 'QUADRUPOLE', 'MULLIKEN_CHARGES')
f=open( 'psi4out.xyz', 'w' )
f.write( "12  " )
f.write( str(ee) + "\n" )
f.write( MOL.save_string_xyz() )
f.close()
--------------------------------------------------------------------------

    Molecular point group: c1

    Geometry (in Angstrom), charge = 0, multiplicity = 1:

       Center              X                  Y                   Z               Mass
    ------------   -----------------  -----------------  -----------------  -----------------
           H         -1.269130638498    -0.586925768916    -1.106800506783     1.007825032070
           N         -0.798742638498    -0.430914768916    -0.245376506783    14.003074004780
           C         -1.319423638498    -1.067794768916     0.942896493217    12.000000000000
           C          0.297486361502     0.365607231084    -0.245136506783    12.000000000000
           H         -2.336250638498    -0.746259768916     1.142103493217     1.007825032070
           H         -0.694708638498    -0.789041768916     1.775816493217     1.007825032070
           H         -1.309557638498    -2.147894768916     0.841319493217     1.007825032070
           C          1.617133361502    -0.379722768916    -0.245321506783    12.000000000000
           O          0.239298361502     1.564285231084    -0.245333506783    15.994914619560
           H          1.701003361502    -1.009257768916    -1.125665506783     1.007825032070
           H          2.423621361502     0.338093231084    -0.241571506783     1.007825032070
           H          1.698296361502    -1.015653768916     0.630658493217     1.007825032070

  Charge       = 0
  Multiplicity = 1
  Basis Set: 6-31G*
  Basis Set:

    Orbital Energies (a.u.)
    -----------------------

    Doubly Occupied:

       1A    -20.547031     2A    -15.544675     3A    -11.347901
       4A    -11.263185     5A    -11.223835     6A     -1.397542
       7A     -1.219786     8A     -1.003447     9A     -0.940223
      10A     -0.781765    11A     -0.682161    12A     -0.649796
      13A     -0.642226    14A     -0.591249    15A     -0.579295
      16A     -0.567053    17A     -0.550704    18A     -0.486648
      19A     -0.425709    20A     -0.369115

  @DF-RHF Final Energy:  -246.96414962301486

   => Energetics <=

    Nuclear Repulsion Energy =            181.0939148790899367
    One-Electron Energy =                -694.4894240562230152
    Two-Electron Energy =                 266.4313595541181598
    DFT Exchange-Correlation Energy =       0.0000000000000000
    Empirical Dispersion Energy =           0.0000000000000000
    PCM Polarization Energy =               0.0000000000000000
    EFP Energy =                            0.0000000000000000
    Total Energy =                       -246.9641496230149755

  Mulliken Charges: (a.u.)
   Center  Symbol    Alpha    Beta     Spin     Total
       1     H     0.30847  0.30847  0.00000  0.38305
       2     N     3.90483  3.90483  0.00000 -0.80965
       3     C     3.13108  3.13108  0.00000 -0.26217
       4     C     2.66474  2.66474  0.00000  0.67053
       5     H     0.41097  0.41097  0.00000  0.17806
       6     H     0.41249  0.41249  0.00000  0.17502
       7     H     0.41962  0.41962  0.00000  0.16076
       8     C     3.27714  3.27714  0.00000 -0.55428
       9     O     4.24939  4.24939  0.00000 -0.49878
      10     H     0.40868  0.40868  0.00000  0.18263
      11     H     0.40227  0.40227  0.00000  0.19547
      12     H     0.41032  0.41032  0.00000  0.17937

   Total alpha = 20.00000, Total beta = 20.00000, Total charge =  0.00000
