                              Psi4 1.0.54 Driver

  ==> Input File <==

--------------------------------------------------------------------------
set {
	reference rhf
	basis cc-pvtz
}

set_num_threads( 4 )
memory 2 gb

molecule MOL {
0 1

H	 -1.445884	 -2.964250	 1.856217
O	 -1.459717	 -2.377729	 1.114921
C	 -0.363124	 -1.626047	 1.152229
C	 -0.310616	 -0.658853	 0.000791
O	 0.445639	 -1.735451	 2.007743
C	 0.926581	 0.227233	 0.000178
H	 -1.219738	 -0.067447	 0.039040
H	 -0.377595	 -1.243978	 -0.910724
C	 2.220156	 -0.582071	 -0.000088
H	 0.899945	 0.878221	 -0.866390
H	 0.900542	 0.878581	 0.866486
C	 3.466689	 0.296012	 -0.000457
H	 2.239073	 -1.234095	 -0.869382
H	 2.239505	 -1.233985	 0.869270
H	 3.493549	 0.935857	 -0.875887
H	 4.368821	 -0.304526	 -0.001199
H	 3.494559	 0.935166	 0.875458

	symmetry c1
}
set optking {
	frozen_dihedral = ("
		7 4 6 10
	")
}

ee,wfn = optimize('scf', return_wfn=True)
oeprop( wfn, 'DIPOLE', 'QUADRUPOLE', 'MULLIKEN_CHARGES')
f=open( 'psi4out.xyz', 'w' )
f.write( "17  " )
f.write( str(ee) + "\n" )
f.write( MOL.save_string_xyz() )
f.close()
--------------------------------------------------------------------------

    Molecular point group: c1
  Charge       = 0
  Multiplicity = 1
  Basis Set: CC-PVTZ
  Basis Set:
  @DF-RHF Final Energy:  -345.04421372930415
    Total Energy =                       -345.0442137293041469
    Molecular point group: c1
  Basis Set: CC-PVTZ
  Basis Set:
  Basis Set: CC-PVTZ
  Basis Set:
  @DF-RHF Final Energy:  -345.04684417475971
    Total Energy =                       -345.0468441747595989
  Basis Set: CC-PVTZ
  Basis Set:
  Basis Set: CC-PVTZ
  Basis Set:
  @DF-RHF Final Energy:  -345.04700287524753
    Total Energy =                       -345.0470028752476992
  Basis Set: CC-PVTZ
  Basis Set:
  Basis Set: CC-PVTZ
  Basis Set:
  @DF-RHF Final Energy:  -345.04671790435418
    Total Energy =                       -345.0467179043540114
  Basis Set: CC-PVTZ
  Basis Set:
  @DF-RHF Final Energy:  -345.04757271617621
    Total Energy =                       -345.0475727161763189
  Basis Set: CC-PVTZ
  Basis Set:
  @DF-RHF Final Energy:  -345.04765150390062
    Total Energy =                       -345.0476515039006813
  Basis Set: CC-PVTZ
  Basis Set:
  Basis Set: CC-PVTZ
  Basis Set:
  @DF-RHF Final Energy:  -345.04768192497875
    Total Energy =                       -345.0476819249786899
  Basis Set: CC-PVTZ
  Basis Set:
  Basis Set: CC-PVTZ
  Basis Set:
  @DF-RHF Final Energy:  -345.04768409107868
    Total Energy =                       -345.0476840910786223
  Basis Set: CC-PVTZ
  Basis Set:
  Charge       = 0
  Multiplicity = 1
  Basis Set: CC-PVTZ
  Basis Set:

    Orbital Energies (a.u.)
    -----------------------

    Doubly Occupied:

       1A    -20.605390     2A    -20.540209     3A    -11.374372
       4A    -11.239993     5A    -11.223048     6A    -11.214506
       7A    -11.207457     8A     -1.478575     9A     -1.369525
      10A     -1.090920    11A     -1.016978    12A     -0.913302
      13A     -0.829904    14A     -0.785143    15A     -0.706184
      16A     -0.693816    17A     -0.659184    18A     -0.631115
      19A     -0.589503    20A     -0.584116    21A     -0.578402
      22A     -0.533096    23A     -0.519887    24A     -0.489359
      25A     -0.479292    26A     -0.471955    27A     -0.467828
      28A     -0.442905

  @DF-RHF Final Energy:  -345.04768434551522

   => Energetics <=

    Nuclear Repulsion Energy =            311.6238027165298945
    One-Electron Energy =               -1087.8710485403375969
    Two-Electron Energy =                 431.1995614782925941
    DFT Exchange-Correlation Energy =       0.0000000000000000
    Empirical Dispersion Energy =           0.0000000000000000
    PCM Polarization Energy =               0.0000000000000000
    EFP Energy =                            0.0000000000000000
    Total Energy =                       -345.0476843455151084
    Molecular point group: c1
  Basis Set: CC-PVTZ
  Basis Set:

  -Total Gradient:
     Atom            X                  Y                   Z
    ------   -----------------  -----------------  -----------------
       1        0.000000853009     0.000007790487    -0.000021133234
       2       -0.000002145168    -0.000008888893    -0.000036041406
       3       -0.000060460817    -0.000022790940     0.000015196897
       4        0.000395998240    -0.000436354706    -0.003906844424
       5        0.000068104312     0.000043129240     0.000037385193
       6       -0.001739022020     0.002476954012     0.002438255946
       7       -0.000080742436     0.000006019413     0.002896156308
       8       -0.000004185680    -0.000012349719    -0.000006476763
       9        0.000005495119     0.000022095453    -0.000043562905
      10        0.001406564382    -0.002062692251    -0.001405112749
      11        0.000002849541     0.000003676826     0.000001979900
      12        0.000004929155     0.000000765658     0.000002879870
      13        0.000002279663     0.000001162630    -0.000001805210
      14       -0.000007250326    -0.000017698722     0.000024176694
      15        0.000001398098    -0.000002918467     0.000001834873
      16        0.000006812263    -0.000003175991     0.000003479216
      17       -0.000001477338     0.000005275970    -0.000000368202

  **** Optimization is complete! (in 9 steps) ****
    Final optimized geometry and variables:
    Molecular point group: c1

    Geometry (in Angstrom), charge = 0, multiplicity = 1:

    H           -2.095668922113    -2.085803160902     1.119976948895
    O           -1.973793786480    -1.607850098901     0.313267599149
    C           -1.128639941625    -0.607706571952     0.541564001728
    C           -0.933112025819     0.255191596723    -0.678673929444
    O           -0.642359773144    -0.426489261289     1.604664048355
    C            0.330545880174     1.108764803289    -0.649572991491
    H           -1.813566567004     0.892038645095    -0.698467383007
    H           -0.977224110380    -0.372614255482    -1.558906172455
    C            1.628680180889     0.302181605203    -0.627127485869
    H            0.331110343956     1.720646407008    -1.546590580757
    H            0.297954196386     1.776428358515     0.202585903789
    C            2.867276519534     1.191153731304    -0.662712765750
    H            1.645011372272    -0.370513117373    -1.481421659757
    H            1.658322247100    -0.317244455904     0.260631541551
    H            2.885889306379     1.806138022314    -1.556599645837
    H            3.774141614549     0.597933438576    -0.650757487578
    H            2.894874101973     1.854006884197     0.195387133314

  Mulliken Charges: (a.u.)
   Center  Symbol    Alpha    Beta     Spin     Total
       1     H     0.38168  0.38168  0.00000  0.23664
       2     O     4.15952  4.15952  0.00000 -0.31904
       3     C     2.80308  2.80308  0.00000  0.39383
       4     C     3.11621  3.11621  0.00000 -0.23243
       5     O     4.19543  4.19543  0.00000 -0.39086
       6     C     3.08724  3.08724  0.00000 -0.17448
       7     H     0.43349  0.43349  0.00000  0.13302
       8     H     0.43450  0.43450  0.00000  0.13099
       9     C     3.08940  3.08940  0.00000 -0.17880
      10     H     0.44738  0.44738  0.00000  0.10525
      11     H     0.44554  0.44554  0.00000  0.10891
      12     C     3.15083  3.15083  0.00000 -0.30167
      13     H     0.45639  0.45639  0.00000  0.08723
      14     H     0.44241  0.44241  0.00000  0.11519
      15     H     0.45658  0.45658  0.00000  0.08683
      16     H     0.44775  0.44775  0.00000  0.10450
      17     H     0.45255  0.45255  0.00000  0.09489

   Total alpha = 28.00000, Total beta = 28.00000, Total charge = -0.00000

*** Psi4 exiting successfully. Buy a developer a beer!
