  ==> Input File <==

--------------------------------------------------------------------------
set {
	reference rhf
	basis 6-31G*
}

set_num_threads( 1 )
memory 2 gb

molecule MOL {
0 1

H	 2.005350	 -3.583195	 1.183805
C	 2.222516	 -2.610844	 0.753546
C	 0.955862	 -1.763494	 0.641531
H	 2.962678	 -2.128636	 1.385893
H	 2.676227	 -2.774767	 -0.219862
C	 1.217350	 -0.386724	 0.039429
H	 0.504536	 -1.632810	 1.620109
H	 0.224046	 -2.289203	 0.030412
N	 0.000003	 0.397874	 -0.023260
H	 1.928089	 0.148327	 0.663556
H	 1.691157	 -0.499897	 -0.941426
C	 -1.217365	 -0.386708	 0.039277
H	 -0.000031	 1.072115	 0.718656
C	 -2.452633	 0.504241	 -0.042481
H	 -1.215291	 -1.074557	 -0.802042
H	 -1.269739	 -1.003477	 0.942735
C	 -3.758029	 -0.289423	 -0.010781
H	 -2.394220	 1.093569	 -0.952170
H	 -2.440793	 1.210787	 0.785871
H	 -3.816659	 -0.981993	 -0.845726
H	 -4.617837	 0.370165	 -0.069296
H	 -3.847478	 -0.867502	 0.904682

	symmetry c1
}
set optking {
	frozen_dihedral = ("
		15 12 14 18
	")
}

ee = energy('scf')
oeprop('DIPOLE', 'QUADRUPOLE', 'MULLIKEN_CHARGES')
f=open( 'psi4out.xyz', 'w' )
f.write( "22  " )
f.write( str(ee) + "\n" )
f.write( MOL.save_string_xyz() )
f.close()
--------------------------------------------------------------------------

    Molecular point group: c1

    Geometry (in Angstrom), charge = 0, multiplicity = 1:

       Center              X                  Y                   Z               Mass
    ------------   -----------------  -----------------  -----------------  -----------------
           H          2.441038917869    -2.923918823999     0.974547541058     1.007825032070
           C          2.658204917869    -1.951567823999     0.544288541058    12.000000000000
           C          1.391550917869    -1.104217823999     0.432273541058    12.000000000000
           H          3.398366917869    -1.469359823999     1.176635541058     1.007825032070
           H          3.111915917869    -2.115490823999    -0.429119458942     1.007825032070
           C          1.653038917869     0.272552176001    -0.169828458942    12.000000000000
           H          0.940224917869    -0.973533823999     1.410851541058     1.007825032070
           H          0.659734917869    -1.629926823999    -0.178845458942     1.007825032070
           N          0.435691917869     1.057150176001    -0.232517458942    14.003074004780
           H          2.363777917869     0.807603176001     0.454298541058     1.007825032070
           H          2.126845917869     0.159379176001    -1.150683458942     1.007825032070
           C         -0.781676082131     0.272568176001    -0.169980458942    12.000000000000
           H          0.435657917869     1.731391176001     0.509398541058     1.007825032070
           C         -2.016944082131     1.163517176001    -0.251738458942    12.000000000000
           H         -0.779602082131    -0.415280823999    -1.011299458942     1.007825032070
           H         -0.834050082131    -0.344200823999     0.733477541058     1.007825032070
           C         -3.322340082131     0.369853176001    -0.220038458942    12.000000000000
           H         -1.958531082131     1.752845176001    -1.161427458942     1.007825032070
           H         -2.005104082131     1.870063176001     0.576613541058     1.007825032070
           H         -3.380970082131    -0.322716823999    -1.054983458942     1.007825032070
           H         -4.182148082131     1.029441176001    -0.278553458942     1.007825032070
           H         -3.411789082131    -0.208225823999     0.695424541058     1.007825032070

  Charge       = 0
  Multiplicity = 1
  Basis Set: 6-31G*
  Basis Set:

    Orbital Energies (a.u.)
    -----------------------

    Doubly Occupied:

       1A    -15.531345     2A    -11.238428     3A    -11.235524
       4A    -11.212123     5A    -11.211770     6A    -11.209345
       7A    -11.209011     8A     -1.207801     9A     -1.054778
      10A     -1.026923    11A     -0.928718    12A     -0.879010
      13A     -0.819282    14A     -0.776931    15A     -0.671879
      16A     -0.625188    17A     -0.621501    18A     -0.609375
      19A     -0.574590    20A     -0.561066    21A     -0.541056
      22A     -0.530191    23A     -0.501973    24A     -0.492479
      25A     -0.482641    26A     -0.469854    27A     -0.465766
      28A     -0.455279    29A     -0.350742

  @DF-RHF Final Energy:  -290.36600699018550

   => Energetics <=

    Nuclear Repulsion Energy =            322.5795282565760544
    One-Electron Energy =               -1030.9020192841589960
    Two-Electron Energy =                 417.9564840373978996
    DFT Exchange-Correlation Energy =       0.0000000000000000
    Empirical Dispersion Energy =           0.0000000000000000
    PCM Polarization Energy =               0.0000000000000000
    EFP Energy =                            0.0000000000000000
    Total Energy =                       -290.3660069901850420

  Mulliken Charges: (a.u.)
   Center  Symbol    Alpha    Beta     Spin     Total
       1     H     0.41883  0.41883  0.00000  0.16235
       2     C     3.23932  3.23932  0.00000 -0.47864
       3     C     3.17105  3.17105  0.00000 -0.34211
       4     H     0.42266  0.42266  0.00000  0.15468
       5     H     0.42089  0.42089  0.00000  0.15822
       6     C     3.04475  3.04475  0.00000 -0.08950
       7     H     0.42102  0.42102  0.00000  0.15795
       8     H     0.41649  0.41649  0.00000  0.16702
       9     N     3.85623  3.85623  0.00000 -0.71247
      10     H     0.42494  0.42494  0.00000  0.15012
      11     H     0.42267  0.42267  0.00000  0.15467
      12     C     3.05952  3.05952  0.00000 -0.11904
      13     H     0.33322  0.33322  0.00000  0.33356
      14     C     3.15189  3.15189  0.00000 -0.30379
      15     H     0.41970  0.41970  0.00000  0.16059
      16     H     0.43129  0.43129  0.00000  0.13742
      17     C     3.24311  3.24311  0.00000 -0.48622
      18     H     0.41346  0.41346  0.00000  0.17308
      19     H     0.42773  0.42773  0.00000  0.14454
      20     H     0.42111  0.42111  0.00000  0.15778
      21     H     0.41781  0.41781  0.00000  0.16438
      22     H     0.42229  0.42229  0.00000  0.15541

   Total alpha = 29.00000, Total beta = 29.00000, Total charge =  0.00000
