  ==> Input File <==

--------------------------------------------------------------------------
set {
	reference rhf
	basis 6-31G*
}

set_num_threads( 4 )
memory 2 gb

molecule MOL {
0 1

O	 -1.487788	 1.240889	 -0.102860
C	 -1.083277	 0.139568	 0.115197
C	 0.323299	 -0.082943	 0.642902
C	 -1.933017	 -1.084621	 -0.143902
C	 1.355627	 -0.005344	 -0.493127
H	 0.396251	 -1.044647	 1.143147
H	 0.528637	 0.693580	 1.371677
C	 1.848830	 1.420142	 -0.733935
H	 2.203759	 -0.646401	 -0.262928
H	 0.903920	 -0.398546	 -1.397833
H	 2.571098	 1.449252	 -1.543362
H	 2.327255	 1.826715	 0.152423
H	 1.026661	 2.078110	 -0.998819
H	 -1.393885	 -1.806447	 -0.750509
H	 -2.850323	 -0.799888	 -0.640100
H	 -2.169004	 -1.571158	 0.798858

	symmetry c1
}
set optking {
	frozen_dihedral = ("
		9 5 3 2
	")
}

ee = optimize('scf')
oeprop('DIPOLE', 'QUADRUPOLE', 'MULLIKEN_CHARGES')
f=open( 'psi4out.xyz', 'w' )
f.write( "16  " )
f.write( str(ee) + "\n" )
f.write( MOL.save_string_xyz() )
f.close()
--------------------------------------------------------------------------

    Molecular point group: c1
  Charge       = 0
  Multiplicity = 1
  Basis Set: 6-31G*
  Basis Set:
  @DF-RHF Final Energy:  -270.02753420533406
    Total Energy =                       -270.0275342053338363
    Molecular point group: c1
  Basis Set: 6-31G*
  Basis Set:
  Basis Set: 6-31G*
  Basis Set:
  @DF-RHF Final Energy:  -270.02786176520254
    Total Energy =                       -270.0278617652023740
  Basis Set: 6-31G*
  Basis Set:
  Basis Set: 6-31G*
  Basis Set:
  @DF-RHF Final Energy:  -270.02609017340922
    Total Energy =                       -270.0260901734091021
  Basis Set: 6-31G*
  Basis Set:
  Basis Set: 6-31G*
  Basis Set:
  @DF-RHF Final Energy:  -270.02799596313002
    Total Energy =                       -270.0279959631297970
  Basis Set: 6-31G*
  Basis Set:
  @DF-RHF Final Energy:  -270.02803087823918
    Total Energy =                       -270.0280308782391785
  Basis Set: 6-31G*
  Basis Set:
  @DF-RHF Final Energy:  -270.02804581261620
    Total Energy =                       -270.0280458126164831
  Basis Set: 6-31G*
  Basis Set:
  Basis Set: 6-31G*
  Basis Set:
  @DF-RHF Final Energy:  -270.02805470020837
    Total Energy =                       -270.0280547002084290
  Basis Set: 6-31G*
  Basis Set:
  Basis Set: 6-31G*
  Basis Set:
  @DF-RHF Final Energy:  -270.02805733373964
    Total Energy =                       -270.0280573337394117
  Basis Set: 6-31G*
  Basis Set:
  Charge       = 0
  Multiplicity = 1
  Basis Set: 6-31G*
  Basis Set:

    Orbital Energies (a.u.)
    -----------------------

    Doubly Occupied:

       1A    -20.548637     2A    -11.325374     3A    -11.234536
       4A    -11.230129     5A    -11.228819     6A    -11.212327
       7A     -1.393826     8A     -1.080907     9A     -1.011963
      10A     -0.946710    11A     -0.830641    12A     -0.734319
      13A     -0.657499    14A     -0.644277    15A     -0.617154
      16A     -0.590623    17A     -0.586254    18A     -0.559973
      19A     -0.541574    20A     -0.508675    21A     -0.494601
      22A     -0.487983    23A     -0.471658    24A     -0.397377

  @DF-RHF Final Energy:  -270.02805749632603

   => Energetics <=

    Nuclear Repulsion Energy =            240.5422711481255078
    One-Electron Energy =                -842.4689884112635809
    Two-Electron Energy =                 331.8986597668120453
    DFT Exchange-Correlation Energy =       0.0000000000000000
    Empirical Dispersion Energy =           0.0000000000000000
    PCM Polarization Energy =               0.0000000000000000
    EFP Energy =                            0.0000000000000000
    Total Energy =                       -270.0280574963259710
    Molecular point group: c1
  Basis Set: 6-31G*
  Basis Set:

  -Total Gradient:
     Atom            X                  Y                   Z
    ------   -----------------  -----------------  -----------------
       1        0.000005176772    -0.000015054078     0.000002212390
       2       -0.000280647580    -0.002553317562    -0.000348353409
       3       -0.000015654866     0.002848510439     0.000123117200
       4       -0.000015429286    -0.000009752511     0.000017231207
       5        0.001965215627     0.002489129355     0.001798057648
       6       -0.000005206966     0.000004602509    -0.000006958017
       7        0.000006849479    -0.000000110273    -0.000000924041
       8        0.000003993890    -0.000000714944     0.000002093569
       9       -0.001670305283    -0.002764862440    -0.001577321370
      10        0.000001551706     0.000004939384     0.000006739210
      11       -0.000000054751     0.000001021727    -0.000001564209
      12       -0.000000060790    -0.000002311164     0.000001881550
      13       -0.000001690825    -0.000002560395    -0.000001349643
      14        0.000001923840     0.000002563464    -0.000004434122
      15        0.000000017975     0.000000418365    -0.000004865959
      16        0.000004321063    -0.000002501875    -0.000005562004

  **** Optimization is complete! (in 9 steps) ****
    Final optimized geometry and variables:
    Molecular point group: c1

    Geometry (in Angstrom), charge = 0, multiplicity = 1:

    O           -1.375756234473     0.972061832622     0.169519639585
    C           -0.916925478047    -0.124964860277     0.276766091377
    C            0.493603928954    -0.348078471185     0.789692668059
    C           -1.710541591667    -1.354163496131    -0.111570220789
    C            1.519032298994    -0.306737166511    -0.366470198668
    H            0.544887682960    -1.311255143079     1.288659748160
    H            0.719176473248     0.420686257820     1.519325980024
    C            1.999303227502     1.105782708358    -0.691204180792
    H            2.356544389196    -0.951946037196    -0.120627435045
    H            1.076068006942    -0.747175085673    -1.257648591149
    H            2.675715010203     1.099635465581    -1.540136611396
    H            2.527599957954     1.538657992006     0.152950995814
    H            1.163899012475     1.755159565844    -0.927975069098
    H           -1.123260875954    -2.021519622599    -0.734491261402
    H           -2.611720362137    -1.061451238209    -0.632100933881
    H           -1.979335006366    -1.905978557516     0.785496878079

  Mulliken Charges: (a.u.)
   Center  Symbol    Alpha    Beta     Spin     Total
       1     O     4.26110  4.26110  0.00000 -0.52220
       2     C     2.73908  2.73908  0.00000  0.52184
       3     C     3.20241  3.20241  0.00000 -0.40482
       4     C     3.28922  3.28922  0.00000 -0.57844
       5     C     3.16256  3.16256  0.00000 -0.32512
       6     H     0.41454  0.41454  0.00000  0.17091
       7     H     0.39976  0.39976  0.00000  0.20048
       8     C     3.24164  3.24164  0.00000 -0.48327
       9     H     0.41395  0.41395  0.00000  0.17209
      10     H     0.41895  0.41895  0.00000  0.16209
      11     H     0.41898  0.41898  0.00000  0.16204
      12     H     0.41989  0.41989  0.00000  0.16023
      13     H     0.40505  0.40505  0.00000  0.18990
      14     H     0.40988  0.40988  0.00000  0.18024
      15     H     0.39686  0.39686  0.00000  0.20629
      16     H     0.40613  0.40613  0.00000  0.18774

   Total alpha = 24.00000, Total beta = 24.00000, Total charge = -0.00000
