  ==> Input File <==

--------------------------------------------------------------------------
set {
	reference rhf
	basis 6-31G*
}

set_num_threads( 1 )
memory 2 gb

molecule MOL {
0 1

O	 -0.988096	 -1.408613	 0.050699
C	 -0.676749	 -0.249230	 -0.009274
C	 -1.746085	 0.827156	 -0.009539
N	 0.623947	 0.147590	 -0.102813
H	 -1.701500	 1.431508	 -0.908902
H	 -2.703425	 0.330732	 0.036390
H	 -1.647323	 1.487769	 0.845106
C	 1.290645	 0.629594	 1.090947
C	 1.290091	 0.452513	 -1.350018
H	 2.318508	 0.283909	 1.095102
H	 0.783423	 0.252508	 1.961850
H	 1.294694	 1.716753	 1.129536
H	 2.341550	 0.207051	 -1.259344
H	 0.889199	 -0.127042	 -2.166312
H	 1.212872	 1.508038	 -1.604413

	symmetry c1
}
set optking {
	frozen_dihedral = ("
		2 4 8 10
	")
}

ee = energy('scf')
oeprop('DIPOLE', 'QUADRUPOLE', 'MULLIKEN_CHARGES')
f=open( 'psi4out.xyz', 'w' )
f.write( "15  " )
f.write( str(ee) + "\n" )
f.write( MOL.save_string_xyz() )
f.close()
--------------------------------------------------------------------------

    Molecular point group: c1

    Geometry (in Angstrom), charge = 0, multiplicity = 1:

       Center              X                  Y                   Z               Mass
    ------------   -----------------  -----------------  -----------------  -----------------
           O         -0.960959902535    -1.484451984535     0.106301050790    15.994914619560
           C         -0.649612902535    -0.325068984535     0.046328050790    12.000000000000
           C         -1.718948902535     0.751317015465     0.046063050790    12.000000000000
           N          0.651083097465     0.071751015465    -0.047210949210    14.003074004780
           H         -1.674363902535     1.355669015465    -0.853299949210     1.007825032070
           H         -2.676288902535     0.254893015465     0.091992050790     1.007825032070
           H         -1.620186902535     1.411930015465     0.900708050790     1.007825032070
           C          1.317781097465     0.553755015465     1.146549050790    12.000000000000
           C          1.317227097465     0.376674015465    -1.294415949210    12.000000000000
           H          2.345644097465     0.208070015465     1.150704050790     1.007825032070
           H          0.810559097465     0.176669015465     2.017452050790     1.007825032070
           H          1.321830097465     1.640914015465     1.185138050790     1.007825032070
           H          2.368686097465     0.131212015465    -1.203741949210     1.007825032070
           H          0.916335097465    -0.202880984535    -2.110709949210     1.007825032070
           H          1.240008097465     1.432199015465    -1.548810949210     1.007825032070

  Charge       = 0
  Multiplicity = 1
  Basis Set: 6-31G*
  Basis Set:

    Orbital Energies (a.u.)
    -----------------------

    Doubly Occupied:

       1A    -20.547793     2A    -15.547691     3A    -11.348160
       4A    -11.259846     5A    -11.259008     6A    -11.225131
       7A     -1.397801     8A     -1.236517     9A     -1.006528
      10A     -0.973580    11A     -0.917453    12A     -0.739966
      13A     -0.675434    14A     -0.660101    15A     -0.644111
      16A     -0.601737    17A     -0.583024    18A     -0.579656
      19A     -0.557865    20A     -0.547338    21A     -0.536016
      22A     -0.483922    23A     -0.424623    24A     -0.350387

  @DF-RHF Final Energy:  -285.99259609656326

   => Energetics <=

    Nuclear Repulsion Energy =            251.0581673027849092
    One-Electron Energy =                -885.8940981304731395
    Two-Electron Energy =                 348.8433347311247417
    DFT Exchange-Correlation Energy =       0.0000000000000000
    Empirical Dispersion Energy =           0.0000000000000000
    PCM Polarization Energy =               0.0000000000000000
    EFP Energy =                            0.0000000000000000
    Total Energy =                       -285.9925960965634886

  Mulliken Charges: (a.u.)
   Center  Symbol    Alpha    Beta     Spin     Total
       1     O     4.24824  4.24824  0.00000 -0.49648
       2     C     2.66000  2.66000  0.00000  0.68000
       3     C     3.28478  3.28478  0.00000 -0.56955
       4     N     3.82604  3.82604  0.00000 -0.65208
       5     H     0.40843  0.40843  0.00000  0.18314
       6     H     0.39865  0.39865  0.00000  0.20270
       7     H     0.40877  0.40877  0.00000  0.18246
       8     C     3.13774  3.13774  0.00000 -0.27548
       9     C     3.13530  3.13530  0.00000 -0.27060
      10     H     0.41103  0.41103  0.00000  0.17794
      11     H     0.40876  0.40876  0.00000  0.18249
      12     H     0.42636  0.42636  0.00000  0.14728
      13     H     0.41201  0.41201  0.00000  0.17597
      14     H     0.40688  0.40688  0.00000  0.18625
      15     H     0.42701  0.42701  0.00000  0.14598

   Total alpha = 24.00000, Total beta = 24.00000, Total charge =  0.00000
