                              Psi4 1.0.54 Driver

  ==> Input File <==

--------------------------------------------------------------------------
set {
	reference rhf
	basis cc-pvtz
}

set_num_threads( 4 )
memory 2 gb

molecule MOL {
0 1

H	 -3.162190	 0.493205	 -0.000107
C	 -2.363908	 -0.234727	 0.000005
O	 -1.158738	 0.454634	 -0.000087
H	 -2.464314	 -0.863616	 -0.882153
H	 -2.464327	 -0.863359	 0.882345
C	 -0.028611	 -0.359694	 0.000037
C	 1.212847	 0.509314	 -0.000053
H	 -0.034155	 -1.007047	 -0.877198
H	 -0.034195	 -1.006836	 0.877430
C	 0.969034	 1.873121	 0.636292
H	 2.001111	 -0.014394	 0.529376
H	 1.550126	 0.629672	 -1.023629
H	 0.653613	 1.776468	 1.669856
H	 1.871108	 2.472377	 0.623026
H	 0.199839	 2.424953	 0.106304

	symmetry c1
}
set optking {
	frozen_dihedral = ("
		11 7 6 8
	")
}

ee,wfn = optimize('scf', return_wfn=True)
oeprop( wfn, 'DIPOLE', 'QUADRUPOLE', 'MULLIKEN_CHARGES')
f=open( 'psi4out.xyz', 'w' )
f.write( "15  " )
f.write( str(ee) + "\n" )
f.write( MOL.save_string_xyz() )
f.close()
--------------------------------------------------------------------------

    Molecular point group: c1
  Charge       = 0
  Multiplicity = 1
  Basis Set: CC-PVTZ
  Basis Set:
  @DF-RHF Final Energy:  -232.22193860165095
    Total Energy =                       -232.2219386016508906
    Molecular point group: c1
  Basis Set: CC-PVTZ
  Basis Set:
  Basis Set: CC-PVTZ
  Basis Set:
  @DF-RHF Final Energy:  -232.22259189239190
    Total Energy =                       -232.2225918923917902
  Basis Set: CC-PVTZ
  Basis Set:
  Basis Set: CC-PVTZ
  Basis Set:
  @DF-RHF Final Energy:  -232.22335936008466
    Total Energy =                       -232.2233593600846575
  Basis Set: CC-PVTZ
  Basis Set:
  Basis Set: CC-PVTZ
  Basis Set:
  @DF-RHF Final Energy:  -232.22338681481131
    Total Energy =                       -232.2233868148112492
  Basis Set: CC-PVTZ
  Basis Set:
  Basis Set: CC-PVTZ
  Basis Set:
  @DF-RHF Final Energy:  -232.22338945857163
    Total Energy =                       -232.2233894585717735
  Basis Set: CC-PVTZ
  Basis Set:
  Charge       = 0
  Multiplicity = 1
  Basis Set: CC-PVTZ
  Basis Set:

    Orbital Energies (a.u.)
    -----------------------

    Doubly Occupied:

       1A    -20.546977     2A    -11.265550     3A    -11.261996
       4A    -11.214248     5A    -11.199458     6A     -1.381461
       7A     -1.051604     8A     -0.949305     9A     -0.889095
      10A     -0.794494    11A     -0.676133    12A     -0.657972
      13A     -0.634985    14A     -0.602084    15A     -0.554736
      16A     -0.544289    17A     -0.503608    18A     -0.483344
      19A     -0.474954    20A     -0.460122    21A     -0.414497

  @DF-RHF Final Energy:  -232.22338970499055

   => Energetics <=

    Nuclear Repulsion Energy =            193.6547981921345922
    One-Electron Energy =                -698.6345552008025379
    Two-Electron Energy =                 272.7563673036771661
    DFT Exchange-Correlation Energy =       0.0000000000000000
    Empirical Dispersion Energy =           0.0000000000000000
    PCM Polarization Energy =               0.0000000000000000
    EFP Energy =                            0.0000000000000000
    Total Energy =                       -232.2233897049907796
    Molecular point group: c1
  Basis Set: CC-PVTZ
  Basis Set:

  -Total Gradient:
     Atom            X                  Y                   Z
    ------   -----------------  -----------------  -----------------
       1        0.000014772517     0.000010927460    -0.000000641505
       2        0.000000098182    -0.000018121068     0.000008353557
       3        0.000021012475     0.000014705211    -0.000001530474
       4        0.000009046622     0.000003562230    -0.000003019327
       5        0.000001999797     0.000000124217     0.000001619020
       6        0.003393044248    -0.004875623918     0.005275836775
       7        0.001442725179    -0.002291353856    -0.007318197030
       8       -0.003086110875     0.004408062772    -0.003318724642
       9        0.000009273732    -0.000011782157     0.000002562565
      10       -0.000001385748    -0.000014584561     0.000005463367
      11       -0.001807831196     0.002770508259     0.005347634098
      12        0.000008879217     0.000000740117    -0.000006871829
      13        0.000000919996     0.000011788184    -0.000001124721
      14       -0.000009730468     0.000000880017     0.000001412740
      15        0.000003286320    -0.000009832903     0.000007227404

  **** Optimization is complete! (in 6 steps) ****
    Final optimized geometry and variables:
    Molecular point group: c1

    Geometry (in Angstrom), charge = 0, multiplicity = 1:

    H           -2.885069329348     0.015374668564    -0.218570514801
    C           -2.074614460535    -0.698083523767    -0.177290053339
    O           -0.882243401766     0.010964457700    -0.159555065592
    H           -2.139239616160    -1.350812162991    -1.045649763796
    H           -2.190665381538    -1.306986121373     0.717171937917
    C            0.260182137823    -0.791317462400    -0.099803925430
    C            1.520077124388     0.075319818902    -0.126766078871
    H            0.250295406621    -1.450303877875    -0.965966449844
    H            0.231987901992    -1.400021721274     0.801892631104
    C            1.354892067470     1.433484268143     0.554363332134
    H            2.297926896519    -0.458689485180     0.409646351105
    H            1.852662647746     0.218772945607    -1.147749426674
    H            1.024591688588     1.319432167586     1.580948715918
    H            2.302743823995     1.959787125657     0.565822316519
    H            0.628978162218     2.048403162779     0.042692174026

  Mulliken Charges: (a.u.)
   Center  Symbol    Alpha    Beta     Spin     Total
       1     H     0.44765  0.44765  0.00000  0.10471
       2     C     3.03047  3.03047  0.00000 -0.06093
       3     O     4.17255  4.17255  0.00000 -0.34509
       4     H     0.47228  0.47228  0.00000  0.05544
       5     H     0.47251  0.47251  0.00000  0.05498
       6     C     2.97026  2.97026  0.00000  0.05948
       7     C     3.08859  3.08859  0.00000 -0.17719
       8     H     0.46795  0.46795  0.00000  0.06410
       9     H     0.47140  0.47140  0.00000  0.05720
      10     C     3.14170  3.14170  0.00000 -0.28340
      11     H     0.45619  0.45619  0.00000  0.08762
      12     H     0.45217  0.45217  0.00000  0.09566
      13     H     0.45676  0.45676  0.00000  0.08649
      14     H     0.45337  0.45337  0.00000  0.09326
      15     H     0.44616  0.44616  0.00000  0.10768

   Total alpha = 21.00000, Total beta = 21.00000, Total charge = -0.00000

*** Psi4 exiting successfully. Buy a developer a beer!
