                              Psi4 1.0.54 Driver

  ==> Input File <==

--------------------------------------------------------------------------
set {
	reference rhf
	basis cc-pvtz
}

set_num_threads( 4 )
memory 2 gb

molecule MOL {
0 1

H	 -4.024094	 -0.454727	 0.000004
C	 -2.962215	 -0.297920	 0.000004
C	 -2.454736	 0.988978	 0.000025
C	 -2.105837	 -1.382632	 -0.000016
H	 -3.120052	 1.830438	 0.000041
C	 -1.090106	 1.189676	 0.000026
H	 -2.500390	 -2.380229	 -0.000033
C	 -0.739175	 -1.183302	 -0.000016
H	 -0.680214	 2.179144	 0.000042
C	 -0.227341	 0.104540	 0.000006
H	 -0.073209	 -2.021168	 -0.000032
C	 1.238974	 0.374429	 0.000004
O	 1.786712	 0.260897	 1.195445
O	 1.856540	 0.662003	 -0.970096
C	 3.177080	 0.499267	 1.293509
H	 3.725988	 -0.197674	 0.678408
H	 3.428488	 0.359168	 2.332141
H	 3.412268	 1.506442	 0.984183

	symmetry c1
}
set optking {
	frozen_dihedral = ("
		13 12 10 6
	")
}

ee,wfn = optimize('scf', return_wfn=True)
oeprop( wfn, 'DIPOLE', 'QUADRUPOLE', 'MULLIKEN_CHARGES')
f=open( 'psi4out.xyz', 'w' )
f.write( "18  " )
f.write( str(ee) + "\n" )
f.write( MOL.save_string_xyz() )
f.close()
--------------------------------------------------------------------------

    Molecular point group: c1
  Charge       = 0
  Multiplicity = 1
  Basis Set: CC-PVTZ
  Basis Set:
  @DF-RHF Final Energy:  -457.49903856566669
    Total Energy =                       -457.4990385656661829
    Molecular point group: c1
  Basis Set: CC-PVTZ
  Basis Set:
  Basis Set: CC-PVTZ
  Basis Set:
  @DF-RHF Final Energy:  -457.49824255252116
    Total Energy =                       -457.4982425525211056
  Basis Set: CC-PVTZ
  Basis Set:
  Basis Set: CC-PVTZ
  Basis Set:
  @DF-RHF Final Energy:  -457.49922870635754
    Total Energy =                       -457.4992287063573713
  Basis Set: CC-PVTZ
  Basis Set:
  Basis Set: CC-PVTZ
  Basis Set:
  @DF-RHF Final Energy:  -457.49942728180247
    Total Energy =                       -457.4994272818028094
  Basis Set: CC-PVTZ
  Basis Set:
  Basis Set: CC-PVTZ
  Basis Set:
  @DF-RHF Final Energy:  -457.49943483959407
    Total Energy =                       -457.4994348395938459
  Basis Set: CC-PVTZ
  Basis Set:
  Charge       = 0
  Multiplicity = 1
  Basis Set: CC-PVTZ
  Basis Set:

    Orbital Energies (a.u.)
    -----------------------

    Doubly Occupied:

       1A    -20.604231     2A    -20.541319     3A    -11.374970
       4A    -11.282634     5A    -11.250753     6A    -11.241732
       7A    -11.241355     8A    -11.238528     9A    -11.237846
      10A    -11.236633    11A     -1.480351    12A     -1.373096
      13A     -1.171702    14A     -1.052450    15A     -1.029573
      16A     -0.982640    17A     -0.862584    18A     -0.842158
      19A     -0.784099    20A     -0.742632    21A     -0.688759
      22A     -0.685147    23A     -0.682509    24A     -0.636270
      25A     -0.632158    26A     -0.600165    27A     -0.594671
      28A     -0.551956    29A     -0.539814    30A     -0.522410
      31A     -0.512600    32A     -0.504885    33A     -0.465515
      34A     -0.449644    35A     -0.347619    36A     -0.347110

  @DF-RHF Final Energy:  -457.49943582877603

   => Energetics <=

    Nuclear Repulsion Energy =            492.6646645872236263
    One-Electron Energy =               -1599.6631677635969027
    Two-Electron Energy =                 649.4990673475977019
    DFT Exchange-Correlation Energy =       0.0000000000000000
    Empirical Dispersion Energy =           0.0000000000000000
    PCM Polarization Energy =               0.0000000000000000
    EFP Energy =                            0.0000000000000000
    Total Energy =                       -457.4994358287756313
    Molecular point group: c1
  Basis Set: CC-PVTZ
  Basis Set:

  -Total Gradient:
     Atom            X                  Y                   Z
    ------   -----------------  -----------------  -----------------
       1       -0.000004722435     0.000010228993     0.000002885569
       2        0.000011187979    -0.000102803085    -0.000007039719
       3        0.000075810136     0.000064291274    -0.000000909398
       4       -0.000116249872     0.000034307395     0.000003301840
       5       -0.000008564428    -0.000001368300    -0.000000647523
       6       -0.000089460601     0.000042261251     0.002170707146
       7        0.000007960773    -0.000000849483     0.000001754119
       8        0.000102061982     0.000087188719    -0.000013826645
       9       -0.000001342638    -0.000002205723     0.000002135488
      10       -0.000176340970     0.000539696064    -0.003032155798
      11       -0.000006560904    -0.000005026220     0.000004530084
      12        0.000596587271    -0.002747847174     0.000574758227
      13       -0.000416005648     0.002090000616     0.000238043791
      14       -0.000015531707    -0.000010396096     0.000051772955
      15        0.000059351320    -0.000005828711     0.000025706061
      16       -0.000006831892    -0.000009953992    -0.000007961429
      17        0.000000452367     0.000003196291    -0.000007245312
      18       -0.000011800736     0.000015108183    -0.000005809458

  **** Optimization is complete! (in 6 steps) ****
    Final optimized geometry and variables:
    Molecular point group: c1

    Geometry (in Angstrom), charge = 0, multiplicity = 1:

    H           -3.998249349830    -0.597066965882    -0.149063139615
    C           -2.937809954887    -0.433112287172    -0.155154449039
    C           -2.436884684923     0.854752454976    -0.169276939589
    C           -2.071118243195    -1.509343106670    -0.147802071302
    H           -3.106695282604     1.692988348675    -0.172240589269
    C           -1.071994219599     1.067554203752    -0.182025965832
    H           -2.456095151018    -2.510814835352    -0.136076789088
    C           -0.705630532779    -1.299406196890    -0.150475657933
    H           -0.683454208812     2.067664847940    -0.202968441500
    C           -0.206522645626    -0.010555850170    -0.178571631213
    H           -0.034015649037    -2.136466845540    -0.135081270331
    C            1.273485940316     0.227896673695    -0.188267680430
    O            1.802252225984     0.106144249613     1.013291996934
    O            1.895276073736     0.513494895590    -1.152613749141
    C            3.198296536268     0.310466737204     1.129036476542
    H            3.737985554709    -0.398372412243     0.518960343650
    H            3.432963102126     0.162974580030     2.170311225803
    H            3.461277338300     1.312170697480     0.823787682846

  Mulliken Charges: (a.u.)
   Center  Symbol    Alpha    Beta     Spin     Total
       1     H     0.42155  0.42155  0.00000  0.15691
       2     C     3.08439  3.08439  0.00000 -0.16878
       3     C     3.06521  3.06521  0.00000 -0.13043
       4     C     3.06504  3.06504  0.00000 -0.13009
       5     H     0.42170  0.42170  0.00000  0.15661
       6     C     3.09256  3.09256  0.00000 -0.18513
       7     H     0.42180  0.42180  0.00000  0.15640
       8     C     3.09208  3.09208  0.00000 -0.18416
       9     H     0.42256  0.42256  0.00000  0.15487
      10     C     2.91509  2.91509  0.00000  0.16982
      11     H     0.42461  0.42461  0.00000  0.15077
      12     C     2.84600  2.84600  0.00000  0.30801
      13     O     4.14302  4.14302  0.00000 -0.28604
      14     O     4.19685  4.19685  0.00000 -0.39371
      15     C     3.03745  3.03745  0.00000 -0.07491
      16     H     0.45398  0.45398  0.00000  0.09205
      17     H     0.44297  0.44297  0.00000  0.11407
      18     H     0.45314  0.45314  0.00000  0.09373

   Total alpha = 36.00000, Total beta = 36.00000, Total charge =  0.00000

*** Psi4 exiting successfully. Buy a developer a beer!
