                              Psi4 1.0.54 Driver

  ==> Input File <==

--------------------------------------------------------------------------
set {
	reference rhf
	basis cc-pvtz
}

set_num_threads( 4 )
memory 2 gb

molecule MOL {
0 1

H	 3.459101	 0.139266	 -0.762951
C	 2.749156	 -0.051729	 0.031265
C	 1.322304	 0.099773	 -0.484271
H	 2.929445	 -1.053887	 0.403481
H	 2.954281	 0.646699	 0.834672
C	 0.308557	 -0.162619	 0.622645
H	 1.143368	 -0.594400	 -1.295960
H	 1.169532	 1.100095	 -0.870217
N	 -1.069352	 -0.004081	 0.085342
H	 0.371632	 -1.172932	 0.991288
H	 0.400391	 0.548875	 1.426218
O	 -1.193426	 0.621732	 -0.913427
O	 -1.953739	 -0.489481	 0.707586

	symmetry c1
}
set optking {
	frozen_dihedral = ("
		12 9 6 3
	")
}

ee,wfn = optimize('scf', return_wfn=True)
oeprop( wfn, 'DIPOLE', 'QUADRUPOLE', 'MULLIKEN_CHARGES')
f=open( 'psi4out.xyz', 'w' )
f.write( "13  " )
f.write( str(ee) + "\n" )
f.write( MOL.save_string_xyz() )
f.close()
--------------------------------------------------------------------------

    Molecular point group: c1
  Charge       = 0
  Multiplicity = 1
  Basis Set: CC-PVTZ
  Basis Set:
  @DF-RHF Final Energy:  -321.85890508874445
    Total Energy =                       -321.8589050887442227
    Molecular point group: c1
  Basis Set: CC-PVTZ
  Basis Set:
  Basis Set: CC-PVTZ
  Basis Set:
  @DF-RHF Final Energy:  -321.85939933175104
    Total Energy =                       -321.8593993317512059
  Basis Set: CC-PVTZ
  Basis Set:
  Basis Set: CC-PVTZ
  Basis Set:
  @DF-RHF Final Energy:  -321.86047569410107
    Total Energy =                       -321.8604756941013534
  Basis Set: CC-PVTZ
  Basis Set:
  Basis Set: CC-PVTZ
  Basis Set:
  @DF-RHF Final Energy:  -321.86057415586146
    Total Energy =                       -321.8605741558611726
  Basis Set: CC-PVTZ
  Basis Set:
  Basis Set: CC-PVTZ
  Basis Set:
  @DF-RHF Final Energy:  -321.85978692711058
    Total Energy =                       -321.8597869271103491
  Basis Set: CC-PVTZ
  Basis Set:
  Basis Set: CC-PVTZ
  Basis Set:
  @DF-RHF Final Energy:  -321.86059510543851
    Total Energy =                       -321.8605951054386196
  Basis Set: CC-PVTZ
  Basis Set:
  Basis Set: CC-PVTZ
  Basis Set:
  @DF-RHF Final Energy:  -321.86059794533543
    Total Energy =                       -321.8605979453353143
  Basis Set: CC-PVTZ
  Basis Set:
  Charge       = 0
  Multiplicity = 1
  Basis Set: CC-PVTZ
  Basis Set:

    Orbital Energies (a.u.)
    -----------------------

    Doubly Occupied:

       1A    -20.592815     2A    -20.588562     3A    -15.838423
       4A    -11.298998     5A    -11.247398     6A    -11.235038
       7A     -1.637184     8A     -1.421284     9A     -1.131747
      10A     -1.026764    11A     -0.884868    12A     -0.827100
      13A     -0.763335    14A     -0.751342    15A     -0.730866
      16A     -0.658507    17A     -0.607150    18A     -0.577210
      19A     -0.553525    20A     -0.522319    21A     -0.509740
      22A     -0.488113    23A     -0.474494    24A     -0.453898

  @DF-RHF Final Energy:  -321.86059829669580

   => Energetics <=

    Nuclear Repulsion Energy =            247.6362665641077854
    One-Electron Energy =                -929.3523745707252601
    Two-Electron Energy =                 359.8555097099217619
    DFT Exchange-Correlation Energy =       0.0000000000000000
    Empirical Dispersion Energy =           0.0000000000000000
    PCM Polarization Energy =               0.0000000000000000
    EFP Energy =                            0.0000000000000000
    Total Energy =                       -321.8605982966956844
    Molecular point group: c1
  Basis Set: CC-PVTZ
  Basis Set:

  -Total Gradient:
     Atom            X                  Y                   Z
    ------   -----------------  -----------------  -----------------
       1       -0.000012776115     0.000000061778    -0.000002735445
       2       -0.000009194421    -0.000005398264     0.000011622089
       3        0.000006744950     0.000201581061     0.000026715342
       4        0.000000574450    -0.000002724565     0.000001152814
       5        0.000002041035     0.000002558180     0.000001387453
       6        0.000001264130    -0.000368218947    -0.000091321532
       7       -0.000000296329    -0.000002432822     0.000001816321
       8       -0.000008207606     0.000001987925     0.000005383773
       9       -0.000020124773     0.000400417121     0.000164222694
      10        0.000008831682     0.000000760848    -0.000003684820
      11        0.000007231653     0.000002551205    -0.000004782154
      12        0.000031650765    -0.000227527650    -0.000128038680
      13       -0.000007739418    -0.000003615870     0.000018262146

  **** Optimization is complete! (in 8 steps) ****
    Final optimized geometry and variables:
    Molecular point group: c1

    Geometry (in Angstrom), charge = 0, multiplicity = 1:

    H            3.453414551243     0.262514209585    -0.934532145038
    C            2.770147525211     0.067224209454    -0.118395311738
    C            1.325520829032     0.167995961662    -0.600490034116
    H            2.992516211995    -0.920408899210     0.270189233755
    H            2.977119734927     0.787916706862     0.665208019371
    C            0.364836166823    -0.106302806826     0.538723946270
    H            1.149684346390    -0.543266793044    -1.398067098557
    H            1.133873500745     1.150073221736    -1.007983552575
    N           -1.073777690578    -0.055562952579     0.139140229412
    H            0.496641843419    -1.082773150274     0.975526650925
    H            0.448101779247     0.629347369400     1.327209830286
    O           -1.364701520046     0.518889122952    -0.853996159445
    O           -1.838830115386    -0.584821111942     0.873802241694

  Mulliken Charges: (a.u.)
   Center  Symbol    Alpha    Beta     Spin     Total
       1     H     0.44129  0.44129  0.00000  0.11743
       2     C     3.15253  3.15253  0.00000 -0.30507
       3     C     3.09167  3.09167  0.00000 -0.18335
       4     H     0.45293  0.45293  0.00000  0.09415
       5     H     0.45306  0.45306  0.00000  0.09389
       6     C     3.04594  3.04594  0.00000 -0.09187
       7     H     0.44211  0.44211  0.00000  0.11578
       8     H     0.43633  0.43633  0.00000  0.12734
       9     N     3.27363  3.27363  0.00000  0.45274
      10     H     0.43207  0.43207  0.00000  0.13585
      11     H     0.43520  0.43520  0.00000  0.12961
      12     O     4.16979  4.16979  0.00000 -0.33958
      13     O     4.17346  4.17346  0.00000 -0.34691

   Total alpha = 24.00000, Total beta = 24.00000, Total charge =  0.00000

*** Psi4 exiting successfully. Buy a developer a beer!
