  ==> Input File <==

--------------------------------------------------------------------------
set {
	reference rhf
	basis 6-31G*
}

set_num_threads( 4 )
memory 2 gb

molecule MOL {
0 1

H	 -3.407059	 -1.043082	 0.000000
O	 -3.119761	 -0.140267	 0.000000
C	 -1.777559	 -0.059267	 0.000000
C	 -1.083053	 0.741106	 0.902256
C	 -1.092509	 -0.812493	 -0.945210
H	 -1.621665	 1.321765	 1.631669
C	 0.294523	 0.785018	 0.855598
H	 -1.650611	 -1.422026	 -1.630238
C	 0.285281	 -0.758028	 -0.979330
H	 0.843176	 1.398173	 1.545612
C	 0.995144	 0.036729	 -0.084857
H	 0.816635	 -1.341539	 -1.711614
C	 2.469706	 0.084871	 -0.133447
O	 3.152277	 0.737460	 0.593864
H	 2.926845	 -0.539130	 -0.908570

	symmetry c1
}
set optking {
	frozen_dihedral = ("
		5 3 2 1
	")
}

ee = optimize('scf')
oeprop('DIPOLE', 'QUADRUPOLE', 'MULLIKEN_CHARGES')
f=open( 'psi4out.xyz', 'w' )
f.write( "15  " )
f.write( str(ee) + "\n" )
f.write( MOL.save_string_xyz() )
f.close()
--------------------------------------------------------------------------

    Molecular point group: c1
  Charge       = 0
  Multiplicity = 1
  Basis Set: 6-31G*
  Basis Set:
  @DF-RHF Final Energy:  -418.28466701484086
    Total Energy =                       -418.2846670148414887
    Molecular point group: c1
  Basis Set: 6-31G*
  Basis Set:
  Basis Set: 6-31G*
  Basis Set:
  @DF-RHF Final Energy:  -418.28628399207940
    Total Energy =                       -418.2862839920799161
  Basis Set: 6-31G*
  Basis Set:
  Basis Set: 6-31G*
  Basis Set:
  @DF-RHF Final Energy:  -418.28633096152407
    Total Energy =                       -418.2863309615242997
  Basis Set: 6-31G*
  Basis Set:
  Basis Set: 6-31G*
  Basis Set:
  @DF-RHF Final Energy:  -418.28594470563547
    Total Energy =                       -418.2859447056358704
  Basis Set: 6-31G*
  Basis Set:
  Basis Set: 6-31G*
  Basis Set:
  @DF-RHF Final Energy:  -418.28641297331950
    Total Energy =                       -418.2864129733193295
  Basis Set: 6-31G*
  Basis Set:
  Charge       = 0
  Multiplicity = 1
  Basis Set: 6-31G*
  Basis Set:

    Orbital Energies (a.u.)
    -----------------------

    Doubly Occupied:

       1A    -20.600779     2A    -20.558675     3A    -11.329927
       4A    -11.317604     5A    -11.261805     6A    -11.253339
       7A    -11.244758     8A    -11.242340     9A    -11.239288
      10A     -1.419598    11A     -1.399790    12A     -1.170638
      13A     -1.042029    14A     -1.036786    15A     -0.890487
      16A     -0.856643    17A     -0.800241    18A     -0.753543
      19A     -0.698958    20A     -0.680412    21A     -0.642308
      22A     -0.627511    23A     -0.618197    24A     -0.607161
      25A     -0.562880    26A     -0.552901    27A     -0.544499
      28A     -0.502002    29A     -0.483513    30A     -0.420465
      31A     -0.355772    32A     -0.334516

  @DF-RHF Final Energy:  -418.28641495632291

   => Energetics <=

    Nuclear Repulsion Energy =            401.0055620861750185
    One-Electron Energy =               -1364.4852208338447781
    Two-Electron Energy =                 545.1932437913465037
    DFT Exchange-Correlation Energy =       0.0000000000000000
    Empirical Dispersion Energy =           0.0000000000000000
    PCM Polarization Energy =               0.0000000000000000
    EFP Energy =                            0.0000000000000000
    Total Energy =                       -418.2864149563232559
    Molecular point group: c1
  Basis Set: 6-31G*
  Basis Set:

  -Total Gradient:
     Atom            X                  Y                   Z
    ------   -----------------  -----------------  -----------------
       1        0.000091487485    -0.000120514351     0.003333125255
       2       -0.000171468679     0.001178396933    -0.004985983982
       3        0.000194127953    -0.002852414666     0.003363560403
       4       -0.000273469996    -0.000104178336    -0.000081491164
       5        0.000151130697     0.001916613640    -0.001633437127
       6        0.000005782764    -0.000000683362    -0.000004801676
       7        0.000289662704    -0.000102406936    -0.000135564970
       8       -0.000002419660    -0.000000738038    -0.000001498896
       9       -0.000241748700    -0.000146729349    -0.000067529250
      10       -0.000019183095     0.000007743057     0.000008125045
      11       -0.000024676352     0.000209778173     0.000250774500
      12        0.000010762912     0.000019105525    -0.000002077714
      13        0.000023241679     0.000031864446    -0.000079976117
      14       -0.000023212825    -0.000015573989     0.000024433541
      15       -0.000010016879    -0.000020262747     0.000012342151

  **** Optimization is complete! (in 6 steps) ****
    Final optimized geometry and variables:
    Molecular point group: c1

    Geometry (in Angstrom), charge = 0, multiplicity = 1:

    H           -3.465177254317    -1.041804680577    -0.008042140678
    O           -3.123744329851    -0.157900086962     0.009282396689
    C           -1.767433809562    -0.162123304262    -0.031750717345
    C           -1.085020077953     0.652521382625     0.864540192849
    C           -1.077223540770    -0.897044932561    -0.983763567574
    H           -1.648017091241     1.219961317256     1.581382599682
    C            0.290712623244     0.714775099076     0.815812652975
    H           -1.619044396877    -1.500137510583    -1.690312393132
    C            0.304404564070    -0.836380181368    -1.015696676336
    H            0.834406838331     1.336112097524     1.502369919136
    C            0.999442586278    -0.033722088521    -0.122084170708
    H            0.842206466320    -1.410265704895    -1.750757839706
    C            2.475807972907     0.027026319933    -0.171377590883
    O            3.151595780692     0.684540949607     0.556779458654
    H            2.938427185202    -0.592507503660    -0.946646177359

  Mulliken Charges: (a.u.)
   Center  Symbol    Alpha    Beta     Spin     Total
       1     H     0.26935  0.26935  0.00000  0.46130
       2     O     4.37931  4.37931  0.00000 -0.75862
       3     C     2.79939  2.79939  0.00000  0.40123
       4     C     3.12252  3.12252  0.00000 -0.24504
       5     C     3.13509  3.13509  0.00000 -0.27018
       6     H     0.38601  0.38601  0.00000  0.22799
       7     C     3.08235  3.08235  0.00000 -0.16471
       8     H     0.39446  0.39446  0.00000  0.21107
       9     C     3.09570  3.09570  0.00000 -0.19140
      10     H     0.37481  0.37481  0.00000  0.25038
      11     C     3.06353  3.06353  0.00000 -0.12705
      12     H     0.39004  0.39004  0.00000  0.21991
      13     C     2.83081  2.83081  0.00000  0.33837
      14     O     4.25216  4.25216  0.00000 -0.50433
      15     H     0.42446  0.42446  0.00000  0.15107

   Total alpha = 32.00000, Total beta = 32.00000, Total charge = -0.00000
