  ==> Input File <==

--------------------------------------------------------------------------
set {
	reference rhf
	basis 6-31G*
}

set_num_threads( 1 )
memory 2 gb

molecule MOL {
0 1

H	 -2.798360	 -0.862255	 -0.071053
N	 -1.863561	 -0.715187	 0.256814
C	 -1.344686	 0.554728	 -0.219830
H	 -1.300452	 -1.461917	 -0.101532
C	 -0.262860	 0.316431	 -1.252303
H	 -2.104358	 1.201576	 -0.660839
H	 -0.909583	 1.088713	 0.619412
O	 -0.845856	 -0.301465	 -2.363791
H	 0.192579	 1.262018	 -1.545694
H	 0.511850	 -0.319801	 -0.830084
C	 0.056575	 -0.657405	 -3.362038
H	 -0.504954	 -1.120508	 -4.161987
H	 0.577319	 0.213256	 -3.756698
H	 0.796869	 -1.365162	 -2.994813

	symmetry c1
}
set optking {
	frozen_dihedral = ("
		8 5 3 6,
		5 8 11 13,
		11 8 5 3
	")
}

ee = energy('scf')
oeprop('DIPOLE', 'QUADRUPOLE', 'MULLIKEN_CHARGES')
f=open( 'psi4out.xyz', 'w' )
f.write( "14  " )
f.write( str(ee) + "\n" )
f.write( MOL.save_string_xyz() )
f.close()
--------------------------------------------------------------------------

    Molecular point group: c1

    Geometry (in Angstrom), charge = 0, multiplicity = 1:

       Center              X                  Y                   Z               Mass
    ------------   -----------------  -----------------  -----------------  -----------------
           H         -1.948214654892    -0.680468431156     1.338747046666     1.007825032070
           N         -1.013415654892    -0.533400431156     1.666614046666    14.003074004780
           C         -0.494540654892     0.736514568844     1.189970046666    12.000000000000
           H         -0.450306654892    -1.280130431156     1.308268046666     1.007825032070
           C          0.587285345108     0.498217568844     0.157497046666    12.000000000000
           H         -1.254212654892     1.383362568844     0.748961046666     1.007825032070
           H         -0.059437654892     1.270499568844     2.029212046666     1.007825032070
           O          0.004289345108    -0.119678431156    -0.953990953334    15.994914619560
           H          1.042724345108     1.443804568844    -0.135893953334     1.007825032070
           H          1.361995345108    -0.138014431156     0.579716046666     1.007825032070
           C          0.906720345108    -0.475618431156    -1.952237953334    12.000000000000
           H          0.345191345108    -0.938721431156    -2.752186953334     1.007825032070
           H          1.427464345108     0.395042568844    -2.346897953334     1.007825032070
           H          1.647014345108    -1.183375431156    -1.585012953334     1.007825032070

  Charge       = 0
  Multiplicity = 1
  Basis Set: 6-31G*
  Basis Set:

    Orbital Energies (a.u.)
    -----------------------

    Doubly Occupied:

       1A    -20.561097     2A    -15.526124     3A    -11.270835
       4A    -11.270127     5A    -11.240757     6A     -1.385698
       7A     -1.174415     8A     -1.000175     9A     -0.910053
      10A     -0.823070    11A     -0.690939    12A     -0.666287
      13A     -0.651336    14A     -0.629055    15A     -0.582060
      16A     -0.549257    17A     -0.535429    18A     -0.506610
      19A     -0.472268    20A     -0.422968    21A     -0.376205

  @DF-RHF Final Energy:  -248.11864852852514

   => Energetics <=

    Nuclear Repulsion Energy =            195.3114093617412266
    One-Electron Energy =                -724.3705175646756516
    Two-Electron Energy =                 280.9404596744090554
    DFT Exchange-Correlation Energy =       0.0000000000000000
    Empirical Dispersion Energy =           0.0000000000000000
    PCM Polarization Energy =               0.0000000000000000
    EFP Energy =                            0.0000000000000000
    Total Energy =                       -248.1186485285253980

  Mulliken Charges: (a.u.)
   Center  Symbol    Alpha    Beta     Spin     Total
       1     H     0.32876  0.32876  0.00000  0.34247
       2     N     3.92593  3.92593  0.00000 -0.85186
       3     C     3.05727  3.05727  0.00000 -0.11454
       4     H     0.32794  0.32794  0.00000  0.34412
       5     C     3.01130  3.01130  0.00000 -0.02261
       6     H     0.41657  0.41657  0.00000  0.16687
       7     H     0.41972  0.41972  0.00000  0.16056
       8     O     4.30543  4.30543  0.00000 -0.61085
       9     H     0.42764  0.42764  0.00000  0.14471
      10     H     0.42973  0.42973  0.00000  0.14055
      11     C     3.07966  3.07966  0.00000 -0.15931
      12     H     0.41140  0.41140  0.00000  0.17719
      13     H     0.42883  0.42883  0.00000  0.14235
      14     H     0.42982  0.42982  0.00000  0.14037

   Total alpha = 21.00000, Total beta = 21.00000, Total charge = -0.00000
