  ==> Input File <==

--------------------------------------------------------------------------
set {
	reference rhf
	basis 6-31G*
}

set_num_threads( 4 )
memory 2 gb

molecule MOL {
0 1

H	 -2.798360	 -0.862255	 -0.071053
N	 -1.863561	 -0.715187	 0.256814
C	 -1.344686	 0.554728	 -0.219830
H	 -1.300452	 -1.461917	 -0.101532
C	 0.081427	 0.741154	 0.254071
H	 -1.362155	 0.656231	 -1.305829
H	 -1.952773	 1.354456	 0.191809
O	 0.941013	 0.302304	 -0.758652
H	 0.270183	 1.791197	 0.476376
H	 0.243257	 0.164878	 1.162339
C	 2.291059	 0.338043	 -0.421505
H	 2.851783	 -0.019236	 -1.274522
H	 2.615928	 1.350069	 -0.186461
H	 2.504352	 -0.300174	 0.433477

	symmetry c1
}
set optking {
	frozen_dihedral = ("
		8 5 3 6
	")
}

ee = optimize('scf')
oeprop('DIPOLE', 'QUADRUPOLE', 'MULLIKEN_CHARGES')
f=open( 'psi4out.xyz', 'w' )
f.write( "14  " )
f.write( str(ee) + "\n" )
f.write( MOL.save_string_xyz() )
f.close()
--------------------------------------------------------------------------

    Molecular point group: c1
  Charge       = 0
  Multiplicity = 1
  Basis Set: 6-31G*
  Basis Set:
  @DF-RHF Final Energy:  -248.12071818862282
    Total Energy =                       -248.1207181886227886
    Molecular point group: c1
  Basis Set: 6-31G*
  Basis Set:
  Basis Set: 6-31G*
  Basis Set:
  @DF-RHF Final Energy:  -248.12113746195945
    Total Energy =                       -248.1211374619595631
  Basis Set: 6-31G*
  Basis Set:
  Basis Set: 6-31G*
  Basis Set:
  @DF-RHF Final Energy:  -248.12124423584669
    Total Energy =                       -248.1212442358465751
  Basis Set: 6-31G*
  Basis Set:
  Charge       = 0
  Multiplicity = 1
  Basis Set: 6-31G*
  Basis Set:

    Orbital Energies (a.u.)
    -----------------------

    Doubly Occupied:

       1A    -20.556115     2A    -15.532459     3A    -11.265443
       4A    -11.264831     5A    -11.241050     6A     -1.379820
       7A     -1.175333     8A     -0.997884     9A     -0.903725
      10A     -0.819635    11A     -0.682789    12A     -0.670216
      13A     -0.647166    14A     -0.615198    15A     -0.597214
      16A     -0.549246    17A     -0.523711    18A     -0.498617
      19A     -0.470804    20A     -0.417240    21A     -0.382234

  @DF-RHF Final Energy:  -248.12124696574605

   => Energetics <=

    Nuclear Repulsion Energy =            192.7533822252622429
    One-Electron Energy =                -719.3677993207541022
    Two-Electron Energy =                 278.4931701297459199
    DFT Exchange-Correlation Energy =       0.0000000000000000
    Empirical Dispersion Energy =           0.0000000000000000
    PCM Polarization Energy =               0.0000000000000000
    EFP Energy =                            0.0000000000000000
    Total Energy =                       -248.1212469657459110
    Molecular point group: c1
  Basis Set: 6-31G*
  Basis Set:

  -Total Gradient:
     Atom            X                  Y                   Z
    ------   -----------------  -----------------  -----------------
       1       -0.000037496740    -0.000048808051     0.000001716746
       2       -0.000050822449     0.000137138446     0.000021598818
       3       -0.001155427407     0.008104414675     0.000005766763
       4        0.000023474905     0.000005673272    -0.000021034120
       5        0.000081127109    -0.006532206012     0.002190186436
       6        0.000906580421    -0.005727009599    -0.000484854201
       7        0.000010171042    -0.000076206803     0.000028260648
       8       -0.000018885715     0.004188880643    -0.001671599481
       9        0.000036525870     0.000019198095     0.000024790620
      10        0.000065173523    -0.000027565003    -0.000028500030
      11        0.000074219290    -0.000047533184    -0.000097058264
      12        0.000077838485    -0.000003046924     0.000020185692
      13       -0.000010989577    -0.000003982298     0.000015836870
      14       -0.000001488759     0.000011052743    -0.000005296496

  **** Optimization is complete! (in 4 steps) ****
    Final optimized geometry and variables:
    Molecular point group: c1

    Geometry (in Angstrom), charge = 0, multiplicity = 1:

    H           -2.847422721473    -1.073567256625     0.124584980726
    N           -1.899658867826    -0.951725309216     0.426624452853
    C           -1.382721819448     0.337081885318    -0.022530827878
    H           -1.368146867238    -1.690804328312     0.005534344482
    C            0.056457825339     0.520326159820     0.439893548781
    H           -1.389399677239     0.422598888376    -1.107474152042
    H           -2.009212842070     1.115517457245     0.396601452346
    O            0.912418195347     0.058369552926    -0.567448691088
    H            0.264012299170     1.573305426137     0.629807752898
    H            0.216822709154    -0.024306603758     1.366757402105
    C            2.263193713861     0.116062467171    -0.237449199576
    H            2.824571745556    -0.252460499946    -1.085292760664
    H            2.577074041668     1.136667211311    -0.024792787140
    H            2.489626464915    -0.500659270305     0.630227224916

  Mulliken Charges: (a.u.)
   Center  Symbol    Alpha    Beta     Spin     Total
       1     H     0.33276  0.33276  0.00000  0.33448
       2     N     3.92450  3.92450  0.00000 -0.84900
       3     C     3.07196  3.07196  0.00000 -0.14393
       4     H     0.33015  0.33015  0.00000  0.33971
       5     C     2.99612  2.99612  0.00000  0.00777
       6     H     0.41833  0.41833  0.00000  0.16335
       7     H     0.41857  0.41857  0.00000  0.16286
       8     O     4.30822  4.30822  0.00000 -0.61643
       9     H     0.43030  0.43030  0.00000  0.13940
      10     H     0.41820  0.41820  0.00000  0.16360
      11     C     3.07961  3.07961  0.00000 -0.15921
      12     H     0.41250  0.41250  0.00000  0.17499
      13     H     0.42999  0.42999  0.00000  0.14001
      14     H     0.42879  0.42879  0.00000  0.14242

   Total alpha = 21.00000, Total beta = 21.00000, Total charge = -0.00000
