  ==> Input File <==

--------------------------------------------------------------------------
set {
	reference rhf
	basis 6-31G*
}

set_num_threads( 4 )
memory 2 gb

molecule MOL {
0 1

O	 -1.543250	 1.238399	 0.043922
C	 -1.083277	 0.139568	 0.115197
C	 0.323299	 -0.082943	 0.642902
C	 -1.859872	 -1.077507	 -0.335865
C	 1.355627	 -0.005344	 -0.493127
H	 0.396251	 -1.044647	 1.143147
H	 0.528637	 0.693580	 1.371677
C	 2.786168	 -0.195604	 0.007473
H	 1.132807	 -0.760304	 -1.243899
H	 1.259610	 0.958506	 -0.981915
H	 3.495561	 -0.130713	 -0.811210
H	 2.912696	 -1.165395	 0.480041
H	 3.049284	 0.565503	 0.735850
H	 -1.270906	 -1.677139	 -1.023781
H	 -2.781981	 -0.772780	 -0.810831
H	 -2.086409	 -1.704511	 0.522477

	symmetry c1
}
set optking {
	frozen_dihedral = ("
		4 2 3 5
	")
}

ee = optimize('scf')
oeprop('DIPOLE', 'QUADRUPOLE', 'MULLIKEN_CHARGES')
f=open( 'psi4out.xyz', 'w' )
f.write( "16  " )
f.write( str(ee) + "\n" )
f.write( MOL.save_string_xyz() )
f.close()
--------------------------------------------------------------------------

    Molecular point group: c1
  Charge       = 0
  Multiplicity = 1
  Basis Set: 6-31G*
  Basis Set:
  @DF-RHF Final Energy:  -270.03031106781242
    Total Energy =                       -270.0303110678121925
    Molecular point group: c1
  Basis Set: 6-31G*
  Basis Set:
  Basis Set: 6-31G*
  Basis Set:
  @DF-RHF Final Energy:  -270.03019607314320
    Total Energy =                       -270.0301960731434292
  Basis Set: 6-31G*
  Basis Set:
  Basis Set: 6-31G*
  Basis Set:
  @DF-RHF Final Energy:  -270.03018559714053
    Total Energy =                       -270.0301855971406439
  Basis Set: 6-31G*
  Basis Set:
  Basis Set: 6-31G*
  Basis Set:
  @DF-RHF Final Energy:  -270.03022926713425
    Total Energy =                       -270.0302292671344730
  Basis Set: 6-31G*
  Basis Set:
  Basis Set: 6-31G*
  Basis Set:
  @DF-RHF Final Energy:  -270.03030344736771
    Total Energy =                       -270.0303034473676576
  Basis Set: 6-31G*
  Basis Set:
  Basis Set: 6-31G*
  Basis Set:
  @DF-RHF Final Energy:  -270.03032952166251
    Total Energy =                       -270.0303295216625656
  Basis Set: 6-31G*
  Basis Set:
  Basis Set: 6-31G*
  Basis Set:
  @DF-RHF Final Energy:  -270.03033070852041
    Total Energy =                       -270.0303307085204096
  Basis Set: 6-31G*
  Basis Set:
  Charge       = 0
  Multiplicity = 1
  Basis Set: 6-31G*
  Basis Set:

    Orbital Energies (a.u.)
    -----------------------

    Doubly Occupied:

       1A    -20.548140     2A    -11.324849     3A    -11.234311
       4A    -11.229999     5A    -11.228386     6A    -11.220034
       7A     -1.393661     8A     -1.083318     9A     -1.012685
      10A     -0.949818    11A     -0.829907    12A     -0.735454
      13A     -0.659703    14A     -0.648639    15A     -0.611329
      16A     -0.608405    17A     -0.576427    18A     -0.557917
      19A     -0.536341    20A     -0.518828    21A     -0.504558
      22A     -0.484969    23A     -0.471935    24A     -0.398182

  @DF-RHF Final Energy:  -270.03033093915849

   => Energetics <=

    Nuclear Repulsion Energy =            237.0134575121045657
    One-Electron Energy =                -835.3519868989276347
    Two-Electron Energy =                 328.3081984476647222
    DFT Exchange-Correlation Energy =       0.0000000000000000
    Empirical Dispersion Energy =           0.0000000000000000
    PCM Polarization Energy =               0.0000000000000000
    EFP Energy =                            0.0000000000000000
    Total Energy =                       -270.0303309391583753
    Molecular point group: c1
  Basis Set: 6-31G*
  Basis Set:

  -Total Gradient:
     Atom            X                  Y                   Z
    ------   -----------------  -----------------  -----------------
       1        0.000001809971     0.000000464702    -0.000018658735
       2       -0.000151818039    -0.000131335104     0.000359999465
       3        0.000086951796     0.000368879963    -0.000063312651
       4        0.000067245930     0.000027468172    -0.000191577577
       5       -0.000033069116    -0.000259014148    -0.000037118700
       6       -0.000000581681    -0.000010156936    -0.000008610459
       7        0.000001162506    -0.000006467684    -0.000007599655
       8        0.000003142886     0.000006427982     0.000007546732
       9       -0.000000969065     0.000000654831     0.000010146406
      10        0.000001680821     0.000005544883    -0.000006224862
      11       -0.000001117431    -0.000000080263    -0.000000396080
      12        0.000000521105    -0.000000607885     0.000000431935
      13        0.000002023378    -0.000001983233     0.000000409711
      14        0.000007267569     0.000006787843    -0.000017611342
      15        0.000005762149     0.000003703034    -0.000008483690
      16        0.000009987223    -0.000010286160    -0.000018940497

  **** Optimization is complete! (in 8 steps) ****
    Final optimized geometry and variables:
    Molecular point group: c1

    Geometry (in Angstrom), charge = 0, multiplicity = 1:

    O           -1.551754904619     1.235508071031     0.058994225727
    C           -1.086400520371     0.138633266384     0.124928991524
    C            0.321915466946    -0.084032694932     0.645742395888
    C           -1.862954280378    -1.079480848817    -0.326307278289
    C            1.355271921913    -0.003464166284    -0.489741491784
    H            0.393693849779    -1.051060243588     1.136927759403
    H            0.527184049365     0.686509902270     1.379945926291
    C            2.784937511543    -0.194686896060     0.013530460591
    H            1.135511515714    -0.755639762164    -1.243561841385
    H            1.262852549952     0.962437709523    -0.976446685735
    H            3.496161109058    -0.127209959030    -0.803321138808
    H            2.910034178789    -1.165963243950     0.483349956581
    H            3.046061431192     0.564114155231     0.744870397346
    H           -1.268983639823    -1.696888761406    -0.993077290099
    H           -2.772832883719    -0.772653168493    -0.823048778712
    H           -2.114500157582    -1.689631665067     0.537276366966

  Mulliken Charges: (a.u.)
   Center  Symbol    Alpha    Beta     Spin     Total
       1     O     4.26111  4.26111  0.00000 -0.52222
       2     C     2.73770  2.73770  0.00000  0.52460
       3     C     3.19908  3.19908  0.00000 -0.39817
       4     C     3.28962  3.28962  0.00000 -0.57925
       5     C     3.16253  3.16253  0.00000 -0.32506
       6     H     0.41693  0.41693  0.00000  0.16614
       7     H     0.40068  0.40068  0.00000  0.19864
       8     C     3.23951  3.23951  0.00000 -0.47901
       9     H     0.41958  0.41958  0.00000  0.16084
      10     H     0.40682  0.40682  0.00000  0.18636
      11     H     0.41540  0.41540  0.00000  0.16921
      12     H     0.42058  0.42058  0.00000  0.15884
      13     H     0.41723  0.41723  0.00000  0.16555
      14     H     0.40990  0.40990  0.00000  0.18020
      15     H     0.39679  0.39679  0.00000  0.20643
      16     H     0.40655  0.40655  0.00000  0.18690

   Total alpha = 24.00000, Total beta = 24.00000, Total charge = -0.00000
