  ==> Input File <==

--------------------------------------------------------------------------
set {
	reference rhf
	basis 6-31G*
}

set_num_threads( 4 )
memory 2 gb

molecule MOL {
0 1

H	 -4.004798	 -0.685450	 -0.631219
C	 -2.939807	 -0.536648	 -0.652087
C	 -2.396743	 0.461580	 -1.446927
C	 -2.114812	 -1.343409	 0.115672
H	 -3.037687	 1.086558	 -2.041873
C	 -1.027285	 0.652303	 -1.473235
H	 -2.537586	 -2.116708	 0.731202
C	 -0.743679	 -1.154318	 0.090915
H	 -0.589568	 1.419801	 -2.082351
C	 -0.196302	 -0.154718	 -0.704661
H	 -0.101508	 -1.776298	 0.683433
C	 1.271984	 0.091687	 -0.768503
O	 1.970282	 -0.730723	 0.000018
O	 1.776327	 0.937993	 -1.438028
C	 3.377318	 -0.566646	 -0.000065
H	 3.695437	 -0.028981	 -0.881264
H	 3.789299	 -1.563704	 0.000236
H	 3.695516	 -0.028316	 0.880770

	symmetry c1
}
set optking {
	frozen_dihedral = ("
		12 13 15 16
	")
}

ee = optimize('scf')
oeprop('DIPOLE', 'QUADRUPOLE', 'MULLIKEN_CHARGES')
f=open( 'psi4out.xyz', 'w' )
f.write( "18  " )
f.write( str(ee) + "\n" )
f.write( MOL.save_string_xyz() )
f.close()
--------------------------------------------------------------------------

    Molecular point group: c1
  Charge       = 0
  Multiplicity = 1
  Basis Set: 6-31G*
  Basis Set:
  @DF-RHF Final Energy:  -457.34841179549858
    Total Energy =                       -457.3484117954984640
    Molecular point group: c1
  Basis Set: 6-31G*
  Basis Set:
  Basis Set: 6-31G*
  Basis Set:
  @DF-RHF Final Energy:  -457.34856637304188
    Total Energy =                       -457.3485663730422175
  Basis Set: 6-31G*
  Basis Set:
  Basis Set: 6-31G*
  Basis Set:
  @DF-RHF Final Energy:  -457.34886044583158
    Total Energy =                       -457.3488604458316331
  Basis Set: 6-31G*
  Basis Set:
  Basis Set: 6-31G*
  Basis Set:
  @DF-RHF Final Energy:  -457.34864897670570
    Total Energy =                       -457.3486489767058174
  Basis Set: 6-31G*
  Basis Set:
  Basis Set: 6-31G*
  Basis Set:
  @DF-RHF Final Energy:  -457.34895561296401
    Total Energy =                       -457.3489556129641187
  Basis Set: 6-31G*
  Basis Set:
  Charge       = 0
  Multiplicity = 1
  Basis Set: 6-31G*
  Basis Set:

    Orbital Energies (a.u.)
    -----------------------

    Doubly Occupied:

       1A    -20.606891     2A    -20.543804     3A    -11.379120
       4A    -11.281822     5A    -11.245139     6A    -11.244955
       7A    -11.243694     8A    -11.241283     9A    -11.237087
      10A    -11.236324    11A     -1.470672    12A     -1.364365
      13A     -1.164842    14A     -1.047844    15A     -1.024410
      16A     -0.979093    17A     -0.859768    18A     -0.833897
      19A     -0.777168    20A     -0.739923    21A     -0.683758
      22A     -0.675351    23A     -0.671608    24A     -0.631238
      25A     -0.623612    26A     -0.597404    27A     -0.585096
      28A     -0.565900    29A     -0.525076    30A     -0.516331
      31A     -0.503671    32A     -0.498287    33A     -0.456253
      34A     -0.444532    35A     -0.344602    36A     -0.340585

  @DF-RHF Final Energy:  -457.34895639134760

   => Energetics <=

    Nuclear Repulsion Energy =            492.6619962697023425
    One-Electron Energy =               -1599.6510981029946379
    Two-Electron Energy =                 649.6401454419448100
    DFT Exchange-Correlation Energy =       0.0000000000000000
    Empirical Dispersion Energy =           0.0000000000000000
    PCM Polarization Energy =               0.0000000000000000
    EFP Energy =                            0.0000000000000000
    Total Energy =                       -457.3489563913475422
    Molecular point group: c1
  Basis Set: 6-31G*
  Basis Set:

  -Total Gradient:
     Atom            X                  Y                   Z
    ------   -----------------  -----------------  -----------------
       1        0.000000304784     0.000000782667    -0.000000439077
       2       -0.000002029839     0.000003414798    -0.000004222586
       3       -0.000004048139     0.000002431136     0.000004246426
       4        0.000009507673    -0.000000482043    -0.000002314499
       5        0.000000429897     0.000000057054    -0.000001025258
       6        0.000009211315    -0.000003031476    -0.000002179999
       7        0.000001889884     0.000000625824     0.000000797054
       8       -0.000003135871     0.000000574734     0.000003582635
       9       -0.000000308176     0.000002257450    -0.000002285684
      10        0.000008222903    -0.000017403729     0.000012267152
      11        0.000002453962    -0.000000025852     0.000000187202
      12        0.000087180936    -0.000726388809    -0.000955786712
      13       -0.000096494689     0.001491526760     0.001538478920
      14       -0.000004698833    -0.000037565471     0.000037032172
      15        0.000105154021    -0.001953809670    -0.001267537705
      16       -0.000109379315     0.001224820687     0.000647532084
      17        0.000040170947     0.000005449556    -0.000003842072
      18       -0.000044431464     0.000006766384    -0.000004490050

  **** Optimization is complete! (in 6 steps) ****
    Final optimized geometry and variables:
    Molecular point group: c1

    Geometry (in Angstrom), charge = 0, multiplicity = 1:

    H           -4.026598478540    -0.481907837773    -0.000512839311
    C           -2.962891718965    -0.324861718249    -0.024666837383
    C           -2.430101760249     0.679086096686    -0.819253443876
    C           -2.129130276073    -1.126629778559     0.738763668949
    H           -3.077718658281     1.300440280229    -1.410834917077
    C           -1.062306876331     0.880454115942    -0.849593578323
    H           -2.543871481023    -1.904292942167     1.354251038471
    C           -0.759573769975    -0.926915012645     0.709815487468
    H           -0.632859703098     1.652591619200    -1.458594977962
    C           -0.222268620301     0.078306811158    -0.085630474040
    H           -0.111061625151    -1.544918077054     1.299349143798
    C            1.244409168442     0.337234366451    -0.155315837090
    O            1.944853009520    -0.481187922681     0.616451865035
    O            1.733298391009     1.188333335743    -0.829925179565
    C            3.358124874769    -0.368958175334     0.626706801104
    H            3.708945036084     0.142638444963    -0.253601557617
    H            3.751041930436    -1.373424839433     0.673178166457
    H            3.659580734238     0.181407367450     1.507953840822

  Mulliken Charges: (a.u.)
   Center  Symbol    Alpha    Beta     Spin     Total
       1     H     0.39547  0.39547  0.00000  0.20906
       2     C     3.09000  3.09000  0.00000 -0.18001
       3     C     3.10704  3.10704  0.00000 -0.21408
       4     C     3.10710  3.10710  0.00000 -0.21420
       5     H     0.39547  0.39547  0.00000  0.20907
       6     C     3.08653  3.08653  0.00000 -0.17307
       7     H     0.39638  0.39638  0.00000  0.20724
       8     C     3.08695  3.08695  0.00000 -0.17390
       9     H     0.37595  0.37595  0.00000  0.24811
      10     C     3.07776  3.07776  0.00000 -0.15552
      11     H     0.38060  0.38060  0.00000  0.23879
      12     C     2.57939  2.57939  0.00000  0.84123
      13     O     4.31629  4.31629  0.00000 -0.63257
      14     O     4.29145  4.29145  0.00000 -0.58290
      15     C     3.09708  3.09708  0.00000 -0.19417
      16     H     0.39461  0.39461  0.00000  0.21077
      17     H     0.40981  0.40981  0.00000  0.18038
      18     H     0.41211  0.41211  0.00000  0.17577

   Total alpha = 36.00000, Total beta = 36.00000, Total charge = -0.00000
