                              Psi4 1.0.54 Driver

  ==> Input File <==

--------------------------------------------------------------------------
set {
	reference rhf
	basis cc-pvtz
}

set_num_threads( 4 )
memory 2 gb

molecule MOL {
0 1

O	 -2.691915	 0.145918	 0.496886
C	 -2.165460	 -0.900175	 0.296967
C	 -0.902337	 -0.993271	 -0.536040
C	 -2.711462	 -2.184546	 0.874063
C	 0.340553	 -0.700851	 0.313994
H	 -0.979223	 -0.261988	 -1.330662
H	 -0.819158	 -1.977466	 -0.984712
C	 1.630207	 -0.772146	 -0.501001
H	 0.225640	 0.280236	 0.757267
H	 0.398168	 -1.410938	 1.135429
C	 2.907848	 -0.545876	 0.309149
H	 1.583163	 -0.044410	 -1.307329
H	 1.689922	 -1.747953	 -0.975173
C	 3.373802	 0.906639	 0.372125
H	 3.699140	 -1.146831	 -0.127906
H	 2.764321	 -0.923458	 1.318191
H	 3.519798	 1.311927	 -0.623875
H	 4.316899	 0.983758	 0.900700
H	 2.661122	 1.540651	 0.885346
H	 -3.082448	 -2.808758	 0.067386
H	 -3.514382	 -1.971195	 1.562809
H	 -1.928669	 -2.741993	 1.376136

	symmetry c1
}
set optking {
	frozen_dihedral = ("
		12 8 11 15
	")
}

ee,wfn = optimize('scf', return_wfn=True)
oeprop( wfn, 'DIPOLE', 'QUADRUPOLE', 'MULLIKEN_CHARGES')
f=open( 'psi4out.xyz', 'w' )
f.write( "22  " )
f.write( str(ee) + "\n" )
f.write( MOL.save_string_xyz() )
f.close()
--------------------------------------------------------------------------

    Molecular point group: c1
  Charge       = 0
  Multiplicity = 1
  Basis Set: CC-PVTZ
  Basis Set:
  @DF-RHF Final Energy:  -348.22147671420322
    Total Energy =                       -348.2214767142031633
    Molecular point group: c1
  Basis Set: CC-PVTZ
  Basis Set:
  Basis Set: CC-PVTZ
  Basis Set:
  @DF-RHF Final Energy:  -348.19756661118640
    Total Energy =                       -348.1975666111860619
  Basis Set: CC-PVTZ
  Basis Set:
  Basis Set: CC-PVTZ
  Basis Set:
  @DF-RHF Final Energy:  -348.22163292930827
    Total Energy =                       -348.2216329293084414
  Basis Set: CC-PVTZ
  Basis Set:
  Basis Set: CC-PVTZ
  Basis Set:
  @DF-RHF Final Energy:  -348.22200993411985
    Total Energy =                       -348.2220099341191144
  Basis Set: CC-PVTZ
  Basis Set:
  @DF-RHF Final Energy:  -348.22080036753215
    Total Energy =                       -348.2208003675324335
  @DF-RHF Final Energy:  -348.22203861391063
    Total Energy =                       -348.2220386139107404
  Basis Set: CC-PVTZ
  Basis Set:
  @DF-RHF Final Energy:  -348.22202724489961
    Total Energy =                       -348.2220272448993228
  Basis Set: CC-PVTZ
  Basis Set:
  Basis Set: CC-PVTZ
  Basis Set:
  @DF-RHF Final Energy:  -348.22203610129924
    Total Energy =                       -348.2220361012991248
  Basis Set: CC-PVTZ
  Basis Set:
  Basis Set: CC-PVTZ
  Basis Set:
  @DF-RHF Final Energy:  -348.22204758408378
    Total Energy =                       -348.2220475840838390
  Basis Set: CC-PVTZ
  Basis Set:
  Charge       = 0
  Multiplicity = 1
  Basis Set: CC-PVTZ
  Basis Set:

    Orbital Energies (a.u.)
    -----------------------

    Doubly Occupied:

       1A    -20.536737     2A    -11.319298     3A    -11.228209
       4A    -11.227423     5A    -11.226890     6A    -11.220433
       7A    -11.218600     8A    -11.210050     9A     -1.396848
      10A     -1.097082    11A     -1.045691    12A     -1.000559
      13A     -0.939047    14A     -0.853584    15A     -0.793088
      16A     -0.734087    17A     -0.663816    18A     -0.647064
      19A     -0.627118    20A     -0.621704    21A     -0.599281
      22A     -0.582002    23A     -0.564734    24A     -0.545939
      25A     -0.533870    26A     -0.513229    27A     -0.504217
      28A     -0.490950    29A     -0.472920    30A     -0.464375
      31A     -0.461162    32A     -0.398376

  @DF-RHF Final Energy:  -348.22204777596426

   => Energetics <=

    Nuclear Repulsion Energy =            372.6073648777739891
    One-Electron Energy =               -1210.1820525131763588
    Two-Electron Energy =                 489.3526398594383977
    DFT Exchange-Correlation Energy =       0.0000000000000000
    Empirical Dispersion Energy =           0.0000000000000000
    PCM Polarization Energy =               0.0000000000000000
    EFP Energy =                            0.0000000000000000
    Total Energy =                       -348.2220477759639721
    Molecular point group: c1
  Basis Set: CC-PVTZ
  Basis Set:

  -Total Gradient:
     Atom            X                  Y                   Z
    ------   -----------------  -----------------  -----------------
       1        0.000012342358     0.000016448846     0.000011103922
       2       -0.000001017367    -0.000024554601     0.000015370877
       3        0.000006464533    -0.000007645491     0.000003760731
       4       -0.000044264003     0.000013029625    -0.000026956337
       5        0.000009936283     0.000015008867    -0.000011815232
       6       -0.000002528679    -0.000001072253    -0.000010158095
       7        0.000010416786     0.000003448168    -0.000003005669
       8        0.001110625980    -0.003418116114    -0.001390912853
       9       -0.000008393087    -0.000003404343    -0.000001725421
      10       -0.000001301571    -0.000002812389     0.000004060256
      11        0.000567838354     0.002838882471    -0.002568945228
      12       -0.001029548224     0.002420780538     0.001585927176
      13        0.000004835336    -0.000002043245    -0.000002653781
      14       -0.000005465627    -0.000001411390     0.000000852603
      15       -0.000655230045    -0.001843992435     0.002379879920
      16       -0.000000275121    -0.000000446753     0.000001575612
      17       -0.000000403317     0.000001298303    -0.000002438795
      18       -0.000002373917    -0.000004442478     0.000000260713
      19       -0.000001969820     0.000003907841     0.000000359359
      20        0.000011797405    -0.000008167791     0.000007679254
      21        0.000002450429     0.000000500917     0.000004783792
      22        0.000016063312     0.000004803711     0.000002997197

  **** Optimization is complete! (in 10 steps) ****
    Final optimized geometry and variables:
    Molecular point group: c1

    Geometry (in Angstrom), charge = 0, multiplicity = 1:

    O           -2.397944457751     1.251584464424     0.534558140402
    C           -2.093337939571     0.107836981023     0.432472157518
    C           -1.020850590303    -0.331223929567    -0.544594007921
    C           -2.741159604049    -0.962500486648     1.278167208774
    C            0.377382374930    -0.174464078036     0.065271878742
    H           -1.105649063031     0.291618394333    -1.425928135997
    H           -1.180032304269    -1.363219050421    -0.839339201086
    C            1.487903641362    -0.608831192511    -0.891077161056
    H            0.514217405906     0.862653275849     0.349626314564
    H            0.446733189741    -0.759169234083     0.978731547677
    C            2.896522559031    -0.379838016298    -0.326387597063
    H            1.375595745977    -0.049555057622    -1.815897632920
    H            1.352254600193    -1.657417812270    -1.135349571315
    C            3.454245729547     1.012679768798    -0.602964466989
    H            3.571897023013    -1.131217375429    -0.721816125620
    H            2.878580955388    -0.550678333853     0.746870897992
    H            3.558453836294     1.184413919286    -1.668883471090
    H            4.430872672897     1.138891364436    -0.150152181545
    H            2.806453588019     1.786688990821    -0.206464890679
    H           -3.340940991182    -1.605253514959     0.641718321823
    H           -3.370290028676    -0.512102207143     2.030415803930
    H           -1.989551890355    -1.587624268619     1.747098233370

  Mulliken Charges: (a.u.)
   Center  Symbol    Alpha    Beta     Spin     Total
       1     O     4.17780  4.17780  0.00000 -0.35561
       2     C     2.85805  2.85805  0.00000  0.28390
       3     C     3.09938  3.09938  0.00000 -0.19877
       4     C     3.15505  3.15505  0.00000 -0.31010
       5     C     3.10161  3.10161  0.00000 -0.20321
       6     H     0.43854  0.43854  0.00000  0.12293
       7     H     0.44906  0.44906  0.00000  0.10189
       8     C     3.09645  3.09645  0.00000 -0.19290
       9     H     0.43981  0.43981  0.00000  0.12038
      10     H     0.45206  0.45206  0.00000  0.09588
      11     C     3.09080  3.09080  0.00000 -0.18160
      12     H     0.45313  0.45313  0.00000  0.09374
      13     H     0.44699  0.44699  0.00000  0.10603
      14     C     3.14760  3.14760  0.00000 -0.29519
      15     H     0.44714  0.44714  0.00000  0.10573
      16     H     0.45610  0.45610  0.00000  0.08779
      17     H     0.45456  0.45456  0.00000  0.09088
      18     H     0.44771  0.44771  0.00000  0.10457
      19     H     0.45295  0.45295  0.00000  0.09411
      20     H     0.44835  0.44835  0.00000  0.10329
      21     H     0.43607  0.43607  0.00000  0.12786
      22     H     0.45081  0.45081  0.00000  0.09839

   Total alpha = 32.00000, Total beta = 32.00000, Total charge = -0.00000

*** Psi4 exiting successfully. Buy a developer a beer!
