                              Psi4 1.0.54 Driver

  ==> Input File <==

--------------------------------------------------------------------------
set {
	reference rhf
	basis cc-pvtz
}

set_num_threads( 4 )
memory 2 gb

molecule MOL {
0 1

H	 0.916015	 -2.632857	 0.633119
C	 0.801864	 -1.910825	 1.452443
C	 -0.447014	 -1.075305	 1.397591
O	 1.631470	 -1.832002	 2.290999
C	 -0.554654	 -0.292621	 0.086567
H	 -0.454748	 -0.413452	 2.253586
H	 -1.295022	 -1.751421	 1.484924
C	 -1.846385	 0.513195	 -0.016346
H	 0.296294	 0.376919	 -0.000273
H	 -0.492703	 -0.980176	 -0.753137
C	 -3.089953	 -0.365049	 -0.098564
H	 -1.798267	 1.154820	 -0.891143
H	 -1.925398	 1.173265	 0.842889
H	 -3.055079	 -1.012299	 -0.968245
H	 -3.988403	 0.236438	 -0.170014
H	 -3.183055	 -0.995885	 0.779079

	symmetry c1
}
set optking {
	frozen_dihedral = ("
		9 5 8 12
	")
}

ee,wfn = optimize('scf', return_wfn=True)
oeprop( wfn, 'DIPOLE', 'QUADRUPOLE', 'MULLIKEN_CHARGES')
f=open( 'psi4out.xyz', 'w' )
f.write( "16  " )
f.write( str(ee) + "\n" )
f.write( MOL.save_string_xyz() )
f.close()
--------------------------------------------------------------------------

    Molecular point group: c1
  Charge       = 0
  Multiplicity = 1
  Basis Set: CC-PVTZ
  Basis Set:
  @DF-RHF Final Energy:  -270.11707255593421
    Total Energy =                       -270.1170725559343282
    Molecular point group: c1
  Basis Set: CC-PVTZ
  Basis Set:
  Basis Set: CC-PVTZ
  Basis Set:
  @DF-RHF Final Energy:  -270.11727959765301
    Total Energy =                       -270.1172795976528960
  Basis Set: CC-PVTZ
  Basis Set:
  Basis Set: CC-PVTZ
  Basis Set:
  @DF-RHF Final Energy:  -270.11759575873509
    Total Energy =                       -270.1175957587349785
  Basis Set: CC-PVTZ
  Basis Set:
  Basis Set: CC-PVTZ
  Basis Set:
  @DF-RHF Final Energy:  -270.11663617813326
    Total Energy =                       -270.1166361781330352
  Basis Set: CC-PVTZ
  Basis Set:
  Basis Set: CC-PVTZ
  Basis Set:
  @DF-RHF Final Energy:  -270.11760915222766
    Total Energy =                       -270.1176091522274305
  Basis Set: CC-PVTZ
  Basis Set:
  Basis Set: CC-PVTZ
  Basis Set:
  @DF-RHF Final Energy:  -270.11761770502864
    Total Energy =                       -270.1176177050288061
  Basis Set: CC-PVTZ
  Basis Set:
  Charge       = 0
  Multiplicity = 1
  Basis Set: CC-PVTZ
  Basis Set:

    Orbital Energies (a.u.)
    -----------------------

    Doubly Occupied:

       1A    -20.551756     2A    -11.321140     3A    -11.234934
       4A    -11.233548     5A    -11.227843     6A    -11.217938
       7A     -1.406561     8A     -1.097686     9A     -1.017312
      10A     -0.914591    11A     -0.809260    12A     -0.792053
      13A     -0.679222    14A     -0.648633    15A     -0.638457
      16A     -0.600106    17A     -0.576071    18A     -0.569463
      19A     -0.522375    20A     -0.520363    21A     -0.489388
      22A     -0.482557    23A     -0.472132    24A     -0.411799

  @DF-RHF Final Energy:  -270.11761790846435

   => Energetics <=

    Nuclear Repulsion Energy =            231.9856205911966072
    One-Electron Energy =                -825.3360998462994758
    Two-Electron Energy =                 323.2328613466385150
    DFT Exchange-Correlation Energy =       0.0000000000000000
    Empirical Dispersion Energy =           0.0000000000000000
    PCM Polarization Energy =               0.0000000000000000
    EFP Energy =                            0.0000000000000000
    Total Energy =                       -270.1176179084643536
    Molecular point group: c1
  Basis Set: CC-PVTZ
  Basis Set:

  -Total Gradient:
     Atom            X                  Y                   Z
    ------   -----------------  -----------------  -----------------
       1       -0.000006130973     0.000006283865    -0.000008632861
       2       -0.000025062847    -0.000023385755    -0.000032961601
       3        0.000011691153    -0.000004038910    -0.000005305861
       4        0.000016142855     0.000013705600     0.000038674490
       5        0.000006281922     0.000046538318     0.000216006565
       6        0.000006176527     0.000001847385     0.000004669399
       7       -0.000008964864    -0.000002212806     0.000014466049
       8       -0.000082238446    -0.000154344844    -0.000131335648
       9       -0.000007496035    -0.000004678644    -0.000176451703
      10        0.000007906328    -0.000001721980    -0.000001333800
      11        0.000011937206    -0.000001677134    -0.000008964720
      12        0.000063764911     0.000117932106     0.000088882615
      13        0.000001769924     0.000000886374     0.000006022038
      14        0.000002174554    -0.000006870991    -0.000001871676
      15       -0.000002956869     0.000008986212    -0.000005913851
      16        0.000005004655     0.000002751202     0.000004050567

  **** Optimization is complete! (in 7 steps) ****
    Final optimized geometry and variables:
    Molecular point group: c1

    Geometry (in Angstrom), charge = 0, multiplicity = 1:

    H            1.549370881928    -1.801257188449    -0.199745930263
    C            1.411031611601    -1.077360962765     0.614217353394
    C            0.138058348471    -0.280081096117     0.549457585948
    O            2.235146618735    -0.968115731462     1.454881230376
    C            0.024852445212     0.493328493429    -0.768489239077
    H            0.109019797302     0.388710355401     1.399967873226
    H           -0.684938020744    -0.983270894440     0.641894453259
    C           -1.246566201552     1.334426719302    -0.891812419537
    H            0.885479618421     1.148271690780    -0.861178947818
    H            0.076766024789    -0.201900586792    -1.602695537048
    C           -2.538377338223     0.526799809444    -0.982382565838
    H           -1.157170237620     1.952978055061    -1.778788424896
    H           -1.304606732154     2.018753657589    -0.050364250202
    H           -2.505299806500    -0.170626443416    -1.813182971959
    H           -3.387772751712     1.181743693714    -1.136174569508
    H           -2.728235891125    -0.041156369091    -0.079442422749

  Mulliken Charges: (a.u.)
   Center  Symbol    Alpha    Beta     Spin     Total
       1     H     0.46553  0.46553  0.00000  0.06894
       2     C     2.90858  2.90858  0.00000  0.18285
       3     C     3.07865  3.07865  0.00000 -0.15730
       4     O     4.16392  4.16392  0.00000 -0.32783
       5     C     3.10935  3.10935  0.00000 -0.21871
       6     H     0.44262  0.44262  0.00000  0.11475
       7     H     0.44984  0.44984  0.00000  0.10032
       8     C     3.09043  3.09043  0.00000 -0.18086
       9     H     0.44035  0.44035  0.00000  0.11930
      10     H     0.45074  0.45074  0.00000  0.09851
      11     C     3.15262  3.15262  0.00000 -0.30523
      12     H     0.44543  0.44543  0.00000  0.10915
      13     H     0.45061  0.45061  0.00000  0.09878
      14     H     0.45388  0.45388  0.00000  0.09224
      15     H     0.44395  0.44395  0.00000  0.11210
      16     H     0.45351  0.45351  0.00000  0.09299

   Total alpha = 24.00000, Total beta = 24.00000, Total charge = -0.00000

*** Psi4 exiting successfully. Buy a developer a beer!
