  ==> Input File <==

--------------------------------------------------------------------------
set {
	reference rhf
	basis 6-31G*
}

set_num_threads( 4 )
memory 2 gb

molecule MOL {
0 1

H	 1.858495	 2.337772	 0.670268
N	 1.006958	 1.818808	 0.575011
C	 1.267428	 0.496480	 0.024474
H	 0.414763	 2.344629	 -0.039588
C	 -0.016086	 -0.325158	 -0.029487
H	 1.981906	 0.002810	 0.676275
H	 1.719965	 0.527108	 -0.969836
C	 -1.282277	 0.529072	 0.046735
H	 -0.012495	 -0.908639	 -0.945788
H	 -0.015903	 -1.041248	 0.791956
C	 -2.563920	 -0.301775	 -0.006060
H	 -1.284084	 1.244622	 -0.773004
H	 -1.271387	 1.115393	 0.963286
H	 -2.621848	 -0.873522	 -0.927727
H	 -3.445135	 0.329952	 0.047812
H	 -2.609542	 -1.004582	 0.821105

	symmetry c1
}
set optking {
	frozen_dihedral = ("
		6 3 5 9
	")
}

ee = optimize('scf')
oeprop('DIPOLE', 'QUADRUPOLE', 'MULLIKEN_CHARGES')
f=open( 'psi4out.xyz', 'w' )
f.write( "16  " )
f.write( str(ee) + "\n" )
f.write( MOL.save_string_xyz() )
f.close()
--------------------------------------------------------------------------

    Molecular point group: c1
  Charge       = 0
  Multiplicity = 1
  Basis Set: 6-31G*
  Basis Set:
  @DF-RHF Final Energy:  -212.30681849312003
    Total Energy =                       -212.3068184931198630
    Molecular point group: c1
  Basis Set: 6-31G*
  Basis Set:
  Basis Set: 6-31G*
  Basis Set:
  @DF-RHF Final Energy:  -212.30708151424781
    Total Energy =                       -212.3070815142478409
  Basis Set: 6-31G*
  Basis Set:
  Basis Set: 6-31G*
  Basis Set:
  @DF-RHF Final Energy:  -212.30926751112335
    Total Energy =                       -212.3092675111234939
  Basis Set: 6-31G*
  Basis Set:
  Basis Set: 6-31G*
  Basis Set:
  @DF-RHF Final Energy:  -212.30944010072307
    Total Energy =                       -212.3094401007231795
  Basis Set: 6-31G*
  Basis Set:
  Basis Set: 6-31G*
  Basis Set:
  @DF-RHF Final Energy:  -212.30944355136927
    Total Energy =                       -212.3094435513693270
  Basis Set: 6-31G*
  Basis Set:
  Basis Set: 6-31G*
  Basis Set:
  @DF-RHF Final Energy:  -212.30944459465354
    Total Energy =                       -212.3094445946536553
  Basis Set: 6-31G*
  Basis Set:
  Charge       = 0
  Multiplicity = 1
  Basis Set: 6-31G*
  Basis Set:

    Orbital Energies (a.u.)
    -----------------------

    Doubly Occupied:

       1A    -15.532066     2A    -11.241077     3A    -11.210206
       4A    -11.209093     5A    -11.204880     6A     -1.175432
       7A     -1.052322     8A     -0.956622     9A     -0.851811
      10A     -0.775606    11A     -0.665544    12A     -0.642564
      13A     -0.597382    14A     -0.581393    15A     -0.548517
      16A     -0.523545    17A     -0.505822    18A     -0.469773
      19A     -0.464004    20A     -0.451633    21A     -0.378008

  @DF-RHF Final Energy:  -212.30945358491448

   => Energetics <=

    Nuclear Repulsion Energy =            189.3421681026371175
    One-Electron Energy =                -661.2286476232361565
    Two-Electron Energy =                 259.5770259356843894
    DFT Exchange-Correlation Energy =       0.0000000000000000
    Empirical Dispersion Energy =           0.0000000000000000
    PCM Polarization Energy =               0.0000000000000000
    EFP Energy =                            0.0000000000000000
    Total Energy =                       -212.3094535849146496
    Molecular point group: c1
  Basis Set: 6-31G*
  Basis Set:

  -Total Gradient:
     Atom            X                  Y                   Z
    ------   -----------------  -----------------  -----------------
       1       -0.000011856372     0.000011155048     0.000005460103
       2        0.000004307039    -0.000027554594    -0.000027809713
       3        0.001693806176    -0.002619157282    -0.006010300003
       4        0.000005660782     0.000002583805     0.000009784711
       5        0.002752561018    -0.004494892023     0.004199048059
       6       -0.001851455536     0.002928265175     0.004454973255
       7        0.000002335633    -0.000020364207    -0.000010184563
       8        0.000043257974    -0.000000284155     0.000007433351
       9       -0.002612684861     0.004220406942    -0.002630646496
      10        0.000015224281    -0.000008090951     0.000007503012
      11       -0.000022677554    -0.000000655587    -0.000000798253
      12       -0.000016611050     0.000006046864     0.000003150173
      13       -0.000007378820    -0.000000864809    -0.000005028146
      14        0.000003609161     0.000003381747    -0.000001639298
      15       -0.000000482134    -0.000002944943    -0.000001371608
      16        0.000002384264     0.000002968970     0.000000425416

  **** Optimization is complete! (in 7 steps) ****
    Final optimized geometry and variables:
    Molecular point group: c1

    Geometry (in Angstrom), charge = 0, multiplicity = 1:

    H            2.307262068125     1.798205778835     0.604186584623
    N            1.410456100379     1.372360287274     0.471206085489
    C            1.570465720458     0.046417773974    -0.119280383353
    H            0.892304855030     1.978733793401    -0.134275377764
    C            0.258962124136    -0.771913116986    -0.123241930629
    H            2.291742232715    -0.459462952677     0.512498276275
    H            1.983249195996     0.084996565348    -1.127632460974
    C           -1.032532576594     0.053549230758    -0.082665513672
    H            0.227008396294    -1.361002407899    -1.036856376950
    H            0.253831328983    -1.464203532436     0.713131722170
    C           -2.279071873118    -0.829498501851    -0.138245319210
    H           -1.053986750338     0.745478419483    -0.923773494752
    H           -1.052105469240     0.657137385194     0.816819029469
    H           -2.305555280722    -1.421239376174    -1.049197509802
    H           -3.184879673456    -0.231689165739    -0.106090851695
    H           -2.308219084046    -1.517565234866     0.702107145109

  Mulliken Charges: (a.u.)
   Center  Symbol    Alpha    Beta     Spin     Total
       1     H     0.33198  0.33198  0.00000  0.33604
       2     N     3.92407  3.92407  0.00000 -0.84814
       3     C     3.06442  3.06442  0.00000 -0.12883
       4     H     0.33351  0.33351  0.00000  0.33298
       5     C     3.15391  3.15391  0.00000 -0.30782
       6     H     0.41854  0.41854  0.00000  0.16293
       7     H     0.43152  0.43152  0.00000  0.13695
       8     C     3.15687  3.15687  0.00000 -0.31374
       9     H     0.42467  0.42467  0.00000  0.15066
      10     H     0.41920  0.41920  0.00000  0.16160
      11     C     3.23926  3.23926  0.00000 -0.47851
      12     H     0.43067  0.43067  0.00000  0.13867
      13     H     0.40627  0.40627  0.00000  0.18745
      14     H     0.42366  0.42366  0.00000  0.15267
      15     H     0.41990  0.41990  0.00000  0.16021
      16     H     0.42155  0.42155  0.00000  0.15689

   Total alpha = 21.00000, Total beta = 21.00000, Total charge = -0.00000
