  ==> Input File <==

--------------------------------------------------------------------------
set {
	reference rhf
	basis 6-31G*
}

set_num_threads( 4 )
memory 2 gb

molecule MOL {
0 1

H	 -0.000158	 1.970498	 0.756846
O	 -0.000074	 1.880206	 -0.189275
C	 -0.000015	 0.544847	 -0.545111
C	 -0.979744	 -0.226326	 0.333189
C	 1.423676	 -0.001043	 -0.511847
H	 -0.351597	 0.474803	 -1.563731
F	 -2.191907	 0.261338	 0.177014
F	 -1.014659	 -1.507887	 0.035292
F	 -0.658640	 -0.108403	 1.611697
F	 2.174716	 0.670812	 -1.358067
F	 1.477619	 -1.274211	 -0.841260
F	 1.951977	 0.136042	 0.693841

	symmetry c1
}
set optking {
	frozen_dihedral = ("
		6 3 2 1
	")
}

ee = optimize('scf')
oeprop('DIPOLE', 'QUADRUPOLE', 'MULLIKEN_CHARGES')
f=open( 'psi4out.xyz', 'w' )
f.write( "12  " )
f.write( str(ee) + "\n" )
f.write( MOL.save_string_xyz() )
f.close()
--------------------------------------------------------------------------

    Molecular point group: c1
  Charge       = 0
  Multiplicity = 1
  Basis Set: 6-31G*
  Basis Set:
  @DF-RHF Final Energy:  -786.27709837548355
    Total Energy =                       -786.2770983754832059
    Molecular point group: c1
  Basis Set: 6-31G*
  Basis Set:
  Basis Set: 6-31G*
  Basis Set:
  @DF-RHF Final Energy:  -786.27722316453003
    Total Energy =                       -786.2772231645301417
  Basis Set: 6-31G*
  Basis Set:
  Basis Set: 6-31G*
  Basis Set:
  @DF-RHF Final Energy:  -786.27724692450226
    Total Energy =                       -786.2772469245027196
  Basis Set: 6-31G*
  Basis Set:
  Basis Set: 6-31G*
  Basis Set:
  @DF-RHF Final Energy:  -786.27724934071409
    Total Energy =                       -786.2772493407143202
  Basis Set: 6-31G*
  Basis Set:
  Charge       = 0
  Multiplicity = 1
  Basis Set: 6-31G*
  Basis Set:

    Orbital Energies (a.u.)
    -----------------------

    Doubly Occupied:

       1A    -26.367344     2A    -26.365755     3A    -26.361997
       4A    -26.358572     5A    -26.358230     6A    -26.354817
       7A    -20.616338     8A    -11.529944     9A    -11.522309
      10A    -11.349352    11A     -1.766849    12A     -1.757083
      13A     -1.664612    14A     -1.660515    15A     -1.654827
      16A     -1.652991    17A     -1.434703    18A     -1.102231
      19A     -0.997305    20A     -0.938377    21A     -0.865455
      22A     -0.862750    23A     -0.853384    24A     -0.843451
      25A     -0.831638    26A     -0.814320    27A     -0.744220
      28A     -0.729561    29A     -0.722261    30A     -0.717573
      31A     -0.690298    32A     -0.688471    33A     -0.683886
      34A     -0.673382    35A     -0.668912    36A     -0.664957
      37A     -0.655146    38A     -0.653302    39A     -0.619635
      40A     -0.550804    41A     -0.505464

  @DF-RHF Final Energy:  -786.27724966237736

   => Energetics <=

    Nuclear Repulsion Energy =            670.5557243587605853
    One-Electron Energy =               -2427.9599065695110767
    Two-Electron Energy =                 971.1269325483732473
    DFT Exchange-Correlation Energy =       0.0000000000000000
    Empirical Dispersion Energy =           0.0000000000000000
    PCM Polarization Energy =               0.0000000000000000
    EFP Energy =                            0.0000000000000000
    Total Energy =                       -786.2772496623773577
    Molecular point group: c1
  Basis Set: 6-31G*
  Basis Set:

  -Total Gradient:
     Atom            X                  Y                   Z
    ------   -----------------  -----------------  -----------------
       1       -0.002748133809     0.000009901917     0.000069154277
       2        0.002872895608    -0.000046388341     0.000133411308
       3        0.002109404519     0.000271028712    -0.001048827578
       4        0.000021693160     0.000010373686     0.000054404150
       5        0.000015675775    -0.000000782990    -0.000018818162
       6       -0.002209885473    -0.000209017005     0.000833704578
       7       -0.000021701782    -0.000006546030    -0.000012814972
       8       -0.000013783008    -0.000025386218    -0.000002674256
       9        0.000020953954    -0.000006725478    -0.000021567561
      10        0.000004346099    -0.000002971878    -0.000010387865
      11       -0.000013093806     0.000010771524     0.000011124926
      12       -0.000038371237    -0.000004257894     0.000013291154

  **** Optimization is complete! (in 5 steps) ****
    Final optimized geometry and variables:
    Molecular point group: c1

    Geometry (in Angstrom), charge = 0, multiplicity = 1:

    H           -0.200570600585     1.970487918596     0.789001454005
    O           -0.219108809004     1.871878779051    -0.155513567877
    C           -0.227151738994     0.534731020146    -0.507438822388
    C           -1.202344303772    -0.233191232794     0.379271794427
    C            1.194735656547    -0.014655049143    -0.479530163656
    H           -0.598231145776     0.456028556326    -1.518926397623
    F           -2.425845245125     0.210881986424     0.177827789410
    F           -1.191121402267    -1.525279434371     0.138996780675
    F           -0.917224865953    -0.047255576058     1.659624804909
    F            1.960606022097     0.699713213777    -1.275312535929
    F            1.244398255471    -1.267553794593    -0.885912047804
    F            1.704313694492     0.043616053466     0.738265365018

  Mulliken Charges: (a.u.)
   Center  Symbol    Alpha    Beta     Spin     Total
       1     H     0.26481  0.26481  0.00000  0.47038
       2     O     4.36479  4.36479  0.00000 -0.72958
       3     C     3.04107  3.04107  0.00000 -0.08214
       4     C     2.45314  2.45314  0.00000  1.09371
       5     C     2.44170  2.44170  0.00000  1.11659
       6     H     0.37628  0.37628  0.00000  0.24744
       7     F     4.67513  4.67513  0.00000 -0.35026
       8     F     4.67182  4.67182  0.00000 -0.34364
       9     F     4.68094  4.68094  0.00000 -0.36188
      10     F     4.67490  4.67490  0.00000 -0.34980
      11     F     4.67584  4.67584  0.00000 -0.35168
      12     F     4.67958  4.67958  0.00000 -0.35915

   Total alpha = 41.00000, Total beta = 41.00000, Total charge = -0.00000
