                              Psi4 1.0.54 Driver

  ==> Input File <==

--------------------------------------------------------------------------
set {
	reference rhf
	basis cc-pvtz
}

set_num_threads( 4 )
memory 2 gb

molecule MOL {
0 1

H	 -3.512136	 1.070208	 1.344375
O	 -2.660845	 1.355153	 1.068426
C	 -2.021813	 0.336996	 0.342658
C	 -0.669613	 0.837286	 -0.127252
H	 -1.886914	 -0.542679	 0.966915
H	 -2.626434	 0.043921	 -0.513451
C	 0.490865	 -0.082543	 0.241244
H	 -0.708709	 0.967192	 -1.204587
H	 -0.507562	 1.822272	 0.303070
C	 1.839800	 0.429565	 -0.255472
H	 0.305636	 -1.070211	 -0.165276
H	 0.527397	 -0.195943	 1.322876
C	 3.001144	 -0.485193	 0.119072
H	 1.804373	 0.541073	 -1.335756
H	 2.020437	 1.423114	 0.146921
H	 2.866892	 -1.477297	 -0.298806
H	 3.943543	 -0.095749	 -0.249061
H	 3.085064	 -0.590459	 1.195790

	symmetry c1
}
set optking {
	frozen_dihedral = ("
		2 3 4 8
	")
}

ee,wfn = optimize('scf', return_wfn=True)
oeprop( wfn, 'DIPOLE', 'QUADRUPOLE', 'MULLIKEN_CHARGES')
f=open( 'psi4out.xyz', 'w' )
f.write( "18  " )
f.write( str(ee) + "\n" )
f.write( MOL.save_string_xyz() )
f.close()
--------------------------------------------------------------------------

    Molecular point group: c1
  Charge       = 0
  Multiplicity = 1
  Basis Set: CC-PVTZ
  Basis Set:
  @DF-RHF Final Energy:  -271.28115130402875
    Total Energy =                       -271.2811513040285263
    Molecular point group: c1
  Basis Set: CC-PVTZ
  Basis Set:
  Basis Set: CC-PVTZ
  Basis Set:
  @DF-RHF Final Energy:  -271.28144259159012
    Total Energy =                       -271.2814425915899506
  Basis Set: CC-PVTZ
  Basis Set:
  Basis Set: CC-PVTZ
  Basis Set:
  @DF-RHF Final Energy:  -271.28150216777635
    Total Energy =                       -271.2815021677762957
  Basis Set: CC-PVTZ
  Basis Set:
  Basis Set: CC-PVTZ
  Basis Set:
  @DF-RHF Final Energy:  -271.28150337625323
    Total Energy =                       -271.2815033762531129
  Basis Set: CC-PVTZ
  Basis Set:
  Charge       = 0
  Multiplicity = 1
  Basis Set: CC-PVTZ
  Basis Set:

    Orbital Energies (a.u.)
    -----------------------

    Doubly Occupied:

       1A    -20.545258     2A    -11.265479     3A    -11.212555
       4A    -11.211937     5A    -11.209158     6A    -11.205951
       7A     -1.362325     8A     -1.079665     9A     -1.009779
      10A     -0.913605    11A     -0.821220    12A     -0.791551
      13A     -0.703226    14A     -0.647949    15A     -0.627292
      16A     -0.583580    17A     -0.572330    18A     -0.561508
      19A     -0.529180    20A     -0.498283    21A     -0.490370
      22A     -0.469167    23A     -0.463474    24A     -0.453117
      25A     -0.430138

  @DF-RHF Final Energy:  -271.28150357848006

   => Energetics <=

    Nuclear Repulsion Energy =            245.8962697098490082
    One-Electron Energy =                -855.0393527839340777
    Two-Electron Energy =                 337.8615794956049285
    DFT Exchange-Correlation Energy =       0.0000000000000000
    Empirical Dispersion Energy =           0.0000000000000000
    PCM Polarization Energy =               0.0000000000000000
    EFP Energy =                            0.0000000000000000
    Total Energy =                       -271.2815035784801694
    Molecular point group: c1
  Basis Set: CC-PVTZ
  Basis Set:

  -Total Gradient:
     Atom            X                  Y                   Z
    ------   -----------------  -----------------  -----------------
       1       -0.000027555115     0.000016032130     0.000020346561
       2        0.000596195757    -0.000550047768     0.001179448800
       3       -0.000586264879     0.000218574368    -0.001672079513
       4       -0.000520184482     0.002017087972     0.000655907574
       5       -0.000006147221     0.000030021416     0.000000372300
       6       -0.000022686119     0.000028273506     0.000011587890
       7       -0.000001792928     0.000016297264     0.000007999346
       8        0.000555059739    -0.001785930657    -0.000223911294
       9        0.000001907787    -0.000011461452     0.000017982307
      10        0.000011786223     0.000000725021     0.000002127761
      11       -0.000023948207     0.000011522079     0.000007872734
      12        0.000008603343     0.000006547909     0.000002534094
      13        0.000005389158     0.000000853506    -0.000007828138
      14       -0.000001172350     0.000003471416    -0.000001405467
      15        0.000008345985     0.000000183268     0.000001846284
      16        0.000000368294     0.000000310941     0.000001289986
      17        0.000002708541    -0.000004078012    -0.000001751816
      18       -0.000000613526     0.000001617091    -0.000002339409

  **** Optimization is complete! (in 5 steps) ****
    Final optimized geometry and variables:
    Molecular point group: c1

    Geometry (in Angstrom), charge = 0, multiplicity = 1:

    H           -3.461695892204     0.644808042886     1.088039738562
    O           -2.612267879479     0.937984745430     0.813727159811
    C           -1.964001704104    -0.078327904032     0.090530543774
    C           -0.602351954440     0.438085465593    -0.383000131542
    H           -1.829779754813    -0.950847328717     0.724602139459
    H           -2.572271355146    -0.383825035419    -0.755935632794
    C            0.558080772274    -0.484836414398    -0.017781544976
    H           -0.613871770084     0.574311172287    -1.459375837762
    H           -0.448394179550     1.413921189607     0.060368481647
    C            1.909505663304     0.023909288629    -0.509486540207
    H            0.378329795225    -1.475478925078    -0.430546852901
    H            0.590428678787    -0.606577053706     1.062175161703
    C            3.068048318647    -0.895200248214    -0.137041612230
    H            1.877130922714     0.142932296453    -1.589109636124
    H            2.088728996776     1.014187365931    -0.100054388473
    H            2.934318602056    -1.885194442703    -0.560596772570
    H            4.011671537604    -0.505209556713    -0.500968290290
    H            3.149270022052    -1.005921651463     0.939168392860

  Mulliken Charges: (a.u.)
   Center  Symbol    Alpha    Beta     Spin     Total
       1     H     0.39566  0.39566  0.00000  0.20868
       2     O     4.19695  4.19695  0.00000 -0.39390
       3     C     2.96503  2.96503  0.00000  0.06995
       4     C     3.08986  3.08986  0.00000 -0.17971
       5     H     0.47536  0.47536  0.00000  0.04928
       6     H     0.47269  0.47269  0.00000  0.05461
       7     C     3.09522  3.09522  0.00000 -0.19043
       8     H     0.45409  0.45409  0.00000  0.09181
       9     H     0.44434  0.44434  0.00000  0.11133
      10     C     3.08520  3.08520  0.00000 -0.17041
      11     H     0.45623  0.45623  0.00000  0.08754
      12     H     0.45245  0.45245  0.00000  0.09510
      13     C     3.14964  3.14964  0.00000 -0.29929
      14     H     0.45493  0.45493  0.00000  0.09015
      15     H     0.45312  0.45312  0.00000  0.09376
      16     H     0.45584  0.45584  0.00000  0.08833
      17     H     0.44848  0.44848  0.00000  0.10303
      18     H     0.45491  0.45491  0.00000  0.09018

   Total alpha = 25.00000, Total beta = 25.00000, Total charge = -0.00000

*** Psi4 exiting successfully. Buy a developer a beer!
