  ==> Input File <==

--------------------------------------------------------------------------
set {
	reference rhf
	basis 6-31G*
}

set_num_threads( 1 )
memory 2 gb

molecule MOL {
0 1

H	 -3.420663	 1.227371	 -1.044276
O	 -3.452007	 0.283848	 -0.965577
C	 -3.181085	 -0.079926	 0.364119
C	 -1.765924	 0.277073	 0.805136
H	 -3.327791	 -1.152017	 0.410903
H	 -3.905698	 0.375695	 1.036898
C	 -0.677594	 -0.417312	 -0.014550
H	 -1.637766	 1.358238	 0.744969
H	 -1.659588	 0.017670	 1.857098
C	 0.198644	 -1.352676	 0.821201
H	 -0.058028	 0.334416	 -0.493874
H	 -1.146125	 -0.983757	 -0.817676
C	 1.281909	 -2.048578	 -0.007256
H	 0.655639	 -0.783112	 1.626913
H	 -0.427470	 -2.106390	 1.297123
C	 2.129599	 -3.063647	 0.768122
H	 1.935929	 -1.297500	 -0.447521
H	 0.806521	 -2.561535	 -0.840742
C	 3.005739	 -2.454840	 1.864543
H	 2.769408	 -3.588120	 0.062529
H	 1.477724	 -3.818091	 1.204100
H	 3.660039	 -1.687320	 1.459644
H	 3.632517	 -3.213699	 2.322931
H	 2.413993	 -2.002641	 2.653540

	symmetry c1
}
set optking {
	frozen_dihedral = ("
		20 16 13 17,
		17 13 10 7,
		13 10 7 11,
		1 2 3 5,
		7 4 3 2
	")
}

ee = energy('scf')
oeprop('DIPOLE', 'QUADRUPOLE', 'MULLIKEN_CHARGES')
f=open( 'psi4out.xyz', 'w' )
f.write( "24  " )
f.write( str(ee) + "\n" )
f.write( MOL.save_string_xyz() )
f.close()
--------------------------------------------------------------------------

    Molecular point group: c1

    Geometry (in Angstrom), charge = 0, multiplicity = 1:

       Center              X                  Y                   Z               Mass
    ------------   -----------------  -----------------  -----------------  -----------------
           H         -3.062959078409     2.305350531514    -1.482532088501     1.007825032070
           O         -3.094303078409     1.361827531514    -1.403833088501    15.994914619560
           C         -2.823381078409     0.998053531514    -0.074137088501    12.000000000000
           C         -1.408220078409     1.355052531514     0.366879911499    12.000000000000
           H         -2.970087078409    -0.074037468486    -0.027353088501     1.007825032070
           H         -3.547994078409     1.453674531514     0.598641911499     1.007825032070
           C         -0.319890078409     0.660667531514    -0.452806088501    12.000000000000
           H         -1.280062078409     2.436217531514     0.306712911499     1.007825032070
           H         -1.301884078409     1.095649531514     1.418841911499     1.007825032070
           C          0.556347921591    -0.274696468486     0.382944911499    12.000000000000
           H          0.299675921591     1.412395531514    -0.932130088501     1.007825032070
           H         -0.788421078409     0.094222531514    -1.255932088501     1.007825032070
           C          1.639612921591    -0.970598468486    -0.445512088501    12.000000000000
           H          1.013342921591     0.294867531514     1.188656911499     1.007825032070
           H         -0.069766078409    -1.028410468486     0.858866911499     1.007825032070
           C          2.487302921591    -1.985667468486     0.329865911499    12.000000000000
           H          2.293632921591    -0.219520468486    -0.885777088501     1.007825032070
           H          1.164224921591    -1.483555468486    -1.278998088501     1.007825032070
           C          3.363442921591    -1.376860468486     1.426286911499    12.000000000000
           H          3.127111921591    -2.510140468486    -0.375727088501     1.007825032070
           H          1.835427921591    -2.740111468486     0.765843911499     1.007825032070
           H          4.017742921591    -0.609340468486     1.021387911499     1.007825032070
           H          3.990220921591    -2.135719468486     1.884674911499     1.007825032070
           H          2.771696921591    -0.924661468486     2.215283911499     1.007825032070

  Charge       = 0
  Multiplicity = 1
  Basis Set: 6-31G*
  Basis Set:

    Orbital Energies (a.u.)
    -----------------------

    Doubly Occupied:

       1A    -20.553598     2A    -11.267724     3A    -11.215867
       4A    -11.213665     5A    -11.212390     6A    -11.210939
       7A    -11.209661     8A    -11.207070     9A     -1.360154
      10A     -1.088510    11A     -1.047990    12A     -0.984407
      13A     -0.914516    14A     -0.852951    15A     -0.798912
      16A     -0.776549    17A     -0.678503    18A     -0.648348
      19A     -0.633401    20A     -0.612945    21A     -0.605692
      22A     -0.576629    23A     -0.552353    24A     -0.547062
      25A     -0.520499    26A     -0.507451    27A     -0.493281
      28A     -0.477142    29A     -0.468557    30A     -0.459872
      31A     -0.452068    32A     -0.443573    33A     -0.420856

  @DF-RHF Final Energy:  -349.24239557250593

   => Energetics <=

    Nuclear Repulsion Energy =            385.7033901475105608
    One-Electron Energy =               -1237.8656301657736094
    Two-Electron Energy =                 502.9198444457560981
    DFT Exchange-Correlation Energy =       0.0000000000000000
    Empirical Dispersion Energy =           0.0000000000000000
    PCM Polarization Energy =               0.0000000000000000
    EFP Energy =                            0.0000000000000000
    Total Energy =                       -349.2423955725068936

  Mulliken Charges: (a.u.)
   Center  Symbol    Alpha    Beta     Spin     Total
       1     H     0.28330  0.28330  0.00000  0.43340
       2     O     4.36825  4.36825  0.00000 -0.73650
       3     C     2.99925  2.99925  0.00000  0.00149
       4     C     3.17042  3.17042  0.00000 -0.34084
       5     H     0.41648  0.41648  0.00000  0.16705
       6     H     0.42883  0.42883  0.00000  0.14234
       7     C     3.15491  3.15491  0.00000 -0.30982
       8     H     0.42557  0.42557  0.00000  0.14886
       9     H     0.41952  0.41952  0.00000  0.16097
      10     C     3.15698  3.15698  0.00000 -0.31397
      11     H     0.42131  0.42131  0.00000  0.15737
      12     H     0.40867  0.40867  0.00000  0.18266
      13     C     3.15290  3.15290  0.00000 -0.30581
      14     H     0.42232  0.42232  0.00000  0.15537
      15     H     0.42514  0.42514  0.00000  0.14973
      16     C     3.15227  3.15227  0.00000 -0.30454
      17     H     0.42442  0.42442  0.00000  0.15116
      18     H     0.42107  0.42107  0.00000  0.15785
      19     C     3.24093  3.24093  0.00000 -0.48186
      20     H     0.42112  0.42112  0.00000  0.15776
      21     H     0.42367  0.42367  0.00000  0.15266
      22     H     0.42251  0.42251  0.00000  0.15498
      23     H     0.41956  0.41956  0.00000  0.16088
      24     H     0.42060  0.42060  0.00000  0.15880

   Total alpha = 33.00000, Total beta = 33.00000, Total charge = -0.00000
