  ==> Input File <==

--------------------------------------------------------------------------
set {
	reference rhf
	basis 6-31G*
}

set_num_threads( 4 )
memory 2 gb

molecule MOL {
0 1

O	 -0.829337	 -1.402243	 1.893432
C	 -1.612675	 -1.307321	 1.003496
C	 -2.862351	 -2.142297	 0.892168
O	 -1.481751	 -0.454642	 0.000584
H	 -3.465900	 -1.985085	 1.778099
H	 -3.434234	 -1.896044	 0.009701
H	 -2.580929	 -3.188305	 0.868755
C	 -0.334255	 0.388708	 0.000906
C	 0.891947	 -0.504646	 0.000751
H	 -0.365390	 1.025305	 -0.873475
H	 -0.365484	 1.024911	 0.875569
C	 2.191998	 0.301789	 0.000897
H	 0.855148	 -1.151283	 -0.871571
H	 0.855132	 -1.151660	 0.872805
C	 3.441114	 -0.581407	 0.000108
H	 2.215074	 0.954890	 -0.869742
H	 2.215465	 0.953923	 0.872248
C	 4.739576	 0.224112	 -0.001102
H	 3.419457	 -1.233487	 -0.870178
H	 3.420834	 -1.233096	 0.870717
H	 4.804918	 0.861552	 -0.878265
H	 5.606527	 -0.429058	 -0.001824
H	 4.806469	 0.861674	 0.875853

	symmetry c1
}
set optking {
	frozen_dihedral = ("
		2 4 8 10
	")
}

ee = optimize('scf')
oeprop('DIPOLE', 'QUADRUPOLE', 'MULLIKEN_CHARGES')
f=open( 'psi4out.xyz', 'w' )
f.write( "23  " )
f.write( str(ee) + "\n" )
f.write( MOL.save_string_xyz() )
f.close()
--------------------------------------------------------------------------

    Molecular point group: c1
  Charge       = 0
  Multiplicity = 1
  Basis Set: 6-31G*
  Basis Set:
  @DF-RHF Final Energy:  -422.96767084395691
    Total Energy =                       -422.9676708439562844
    Molecular point group: c1
  Basis Set: 6-31G*
  Basis Set:
  Basis Set: 6-31G*
  Basis Set:
  @DF-RHF Final Energy:  -422.97552566556533
    Total Energy =                       -422.9755256655658968
  Basis Set: 6-31G*
  Basis Set:
  Basis Set: 6-31G*
  Basis Set:
  @DF-RHF Final Energy:  -422.97640792631989
    Total Energy =                       -422.9764079263202348
  Basis Set: 6-31G*
  Basis Set:
  Basis Set: 6-31G*
  Basis Set:
  @DF-RHF Final Energy:  -422.97644289333709
    Total Energy =                       -422.9764428933372074
  Basis Set: 6-31G*
  Basis Set:
  Basis Set: 6-31G*
  Basis Set:
  @DF-RHF Final Energy:  -422.97621369131946
    Total Energy =                       -422.9762136913200266
  Basis Set: 6-31G*
  Basis Set:
  Basis Set: 6-31G*
  Basis Set:
  @DF-RHF Final Energy:  -422.97647781034493
    Total Energy =                       -422.9764778103448180
  Basis Set: 6-31G*
  Basis Set:
  Basis Set: 6-31G*
  Basis Set:
  @DF-RHF Final Energy:  -422.97647955609290
    Total Energy =                       -422.9764795560928405
  Basis Set: 6-31G*
  Basis Set:
  Charge       = 0
  Multiplicity = 1
  Basis Set: 6-31G*
  Basis Set:

    Orbital Energies (a.u.)
    -----------------------

    Doubly Occupied:

       1A    -20.602571     2A    -20.540521     3A    -11.375248
       4A    -11.284114     5A    -11.231960     6A    -11.221448
       7A    -11.218789     8A    -11.217615     9A    -11.210879
      10A     -1.466216    11A     -1.361197    12A     -1.090648
      13A     -1.040143    14A     -1.001660    15A     -0.931513
      16A     -0.853680    17A     -0.798495    18A     -0.757781
      19A     -0.699318    20A     -0.677206    21A     -0.659530
      22A     -0.647656    23A     -0.606260    24A     -0.589427
      25A     -0.581439    26A     -0.570967    27A     -0.551473
      28A     -0.538779    29A     -0.520596    30A     -0.514165
      31A     -0.487130    32A     -0.475180    33A     -0.470959
      34A     -0.468378    35A     -0.438642    36A     -0.432184

  @DF-RHF Final Energy:  -422.97648024234309

   => Energetics <=

    Nuclear Repulsion Energy =            458.2755467057525038
    One-Electron Energy =               -1484.2365168984129014
    Two-Electron Energy =                 602.9844899503179931
    DFT Exchange-Correlation Energy =       0.0000000000000000
    Empirical Dispersion Energy =           0.0000000000000000
    PCM Polarization Energy =               0.0000000000000000
    EFP Energy =                            0.0000000000000000
    Total Energy =                       -422.9764802423424044
    Molecular point group: c1
  Basis Set: 6-31G*
  Basis Set:

  -Total Gradient:
     Atom            X                  Y                   Z
    ------   -----------------  -----------------  -----------------
       1        0.000006840276    -0.000032398814    -0.000016552667
       2        0.002390651910    -0.003625675811    -0.002472511775
       3        0.000024685497    -0.000017995733    -0.000012006821
       4       -0.003024729217     0.004568319500     0.003127213499
       5       -0.000025214431     0.000030483745    -0.000014122882
       6        0.000015343364    -0.000006495341    -0.000004066596
       7       -0.000006370672     0.000009626195     0.000043316225
       8       -0.001991450316     0.003031214300     0.001987795266
       9        0.000023010817    -0.000042550060     0.000097184967
      10        0.002614232430    -0.003954646718    -0.002653693518
      11        0.000021990309     0.000013046248     0.000011459501
      12       -0.000040113542    -0.000005716797    -0.000003028918
      13       -0.000006767170    -0.000009744520    -0.000026004404
      14        0.000004127640     0.000032762259    -0.000052687340
      15       -0.000018748613    -0.000003338324     0.000013345050
      16       -0.000001632919    -0.000000019114    -0.000011182029
      17        0.000010922678     0.000017121370    -0.000007981869
      18       -0.000001375521     0.000001623209     0.000004509405
      19        0.000010992319     0.000010105039    -0.000006452655
      20       -0.000006478774    -0.000014090060    -0.000005272719
      21        0.000000168225    -0.000000197537     0.000001025789
      22        0.000001876593     0.000000276680     0.000000823212
      23       -0.000001960882    -0.000001709714    -0.000001108722

  **** Optimization is complete! (in 8 steps) ****
    Final optimized geometry and variables:
    Molecular point group: c1

    Geometry (in Angstrom), charge = 0, multiplicity = 1:

    O           -1.577806911018    -0.807365372346     1.607955412627
    C           -2.198524417893    -0.693606153835     0.599442647691
    C           -3.442425306611    -1.488259119942     0.292975954338
    O           -1.895379507408     0.155216223005    -0.368428270515
    H           -4.164499799446    -1.322847529037     1.083415932913
    H           -3.870525208646    -1.216398623610    -0.660435609880
    H           -3.189928586469    -2.542106928795     0.295438539912
    C           -0.682763474444     0.904030971727    -0.299956185221
    C            0.574769446646     0.042269566384    -0.323526275041
    H           -0.702848753932     1.497428794530    -1.202949630595
    H           -0.710247088707     1.548439566710     0.568224699831
    C            1.832446598545     0.904917414376    -0.457390807237
    H            0.506329082197    -0.640025854145    -1.168025597251
    H            0.633108091612    -0.556532435418     0.574654722326
    C            3.119014318825     0.077702393611    -0.486950095265
    H            1.772815815018     1.505472488993    -1.363881611524
    H            1.880047234214     1.607557054122     0.372911990557
    C            4.376482410238     0.936765425042    -0.612699596279
    H            3.075958408989    -0.623650199339    -1.317306239780
    H            3.179797712562    -0.522638290218     0.417613649504
    H            4.360463478548     1.525224262663    -1.525802425933
    H            5.271178833925     0.322371627911    -0.631273932561
    H            4.465804867651     1.625652806155     0.222458170151

  Mulliken Charges: (a.u.)
   Center  Symbol    Alpha    Beta     Spin     Total
       1     O     4.28490  4.28490  0.00000 -0.56981
       2     C     2.61381  2.61381  0.00000  0.77239
       3     C     3.28791  3.28791  0.00000 -0.57581
       4     O     4.31562  4.31562  0.00000 -0.63124
       5     H     0.39735  0.39735  0.00000  0.20529
       6     H     0.39958  0.39958  0.00000  0.20084
       7     H     0.39822  0.39822  0.00000  0.20356
       8     C     2.99258  2.99258  0.00000  0.01483
       9     C     3.17944  3.17944  0.00000 -0.35888
      10     H     0.41043  0.41043  0.00000  0.17914
      11     H     0.40906  0.40906  0.00000  0.18188
      12     C     3.16023  3.16023  0.00000 -0.32046
      13     H     0.41876  0.41876  0.00000  0.16248
      14     H     0.39446  0.39446  0.00000  0.21108
      15     C     3.15117  3.15117  0.00000 -0.30234
      16     H     0.42395  0.42395  0.00000  0.15210
      17     H     0.42038  0.42038  0.00000  0.15925
      18     C     3.23986  3.23986  0.00000 -0.47971
      19     H     0.42212  0.42212  0.00000  0.15577
      20     H     0.41930  0.41930  0.00000  0.16140
      21     H     0.42187  0.42187  0.00000  0.15627
      22     H     0.41815  0.41815  0.00000  0.16369
      23     H     0.42086  0.42086  0.00000  0.15829

   Total alpha = 36.00000, Total beta = 36.00000, Total charge =  0.00000
