  ==> Input File <==

--------------------------------------------------------------------------
set {
	reference rhf
	basis cc-pvtz
}

set_num_threads( 4 )
memory 2 gb

molecule MOL {
0 1

H	 0.791415	 -2.729817	 2.038052
O	 0.777649	 -2.249229	 1.224061
C	 -0.227451	 -1.379363	 1.265650
C	 -0.318151	 -0.570512	 0.000144
O	 -0.940171	 -1.285577	 2.204374
C	 -1.454884	 0.441630	 -0.000560
H	 0.642262	 -0.084461	 -0.138604
H	 -0.415053	 -1.272374	 -0.821987
C	 -2.822577	 -0.232186	 0.000063
H	 -1.359760	 1.084704	 -0.867077
H	 -1.359641	 1.085996	 0.864983
H	 -2.954352	 -0.858985	 -0.875745
H	 -3.615886	 0.505352	 0.000019
H	 -2.953878	 -0.858359	 0.876394

	symmetry c1
}
set optking {
	frozen_dihedral = ("
		7 4 6 10
	")
}

ee = optimize('scf')
oeprop('DIPOLE', 'QUADRUPOLE', 'MULLIKEN_CHARGES')
f=open( 'psi4out.xyz', 'w' )
f.write( "14  " )
f.write( str(ee) + "\n" )
f.write( MOL.save_string_xyz() )
f.close()
--------------------------------------------------------------------------

    Molecular point group: c1
  Charge       = 0
  Multiplicity = 1
  Basis Set: CC-PVTZ
  Basis Set:
  @DF-RHF Final Energy:  -305.99932858417196
    Total Energy =                       -305.9993285841719626
    Molecular point group: c1
  Basis Set: CC-PVTZ
  Basis Set:
  Basis Set: CC-PVTZ
  Basis Set:
  @DF-RHF Final Energy:  -306.00003895110410
    Total Energy =                       -306.0000389511041590
  Basis Set: CC-PVTZ
  Basis Set:
  Basis Set: CC-PVTZ
  Basis Set:
  @DF-RHF Final Energy:  -305.99828985871864
    Total Energy =                       -305.9982898587186355
  Basis Set: CC-PVTZ
  Basis Set:
  Basis Set: CC-PVTZ
  Basis Set:
  @DF-RHF Final Energy:  -306.00027432729786
    Total Energy =                       -306.0002743272978023
  Basis Set: CC-PVTZ
  Basis Set:
  Basis Set: CC-PVTZ
  Basis Set:
  @DF-RHF Final Energy:  -306.00034101776134
    Total Energy =                       -306.0003410177612295
  Basis Set: CC-PVTZ
  Basis Set:
  Basis Set: CC-PVTZ
  Basis Set:
  @DF-RHF Final Energy:  -306.00036789787936
    Total Energy =                       -306.0003678978797552
  Basis Set: CC-PVTZ
  Basis Set:
  Basis Set: CC-PVTZ
  Basis Set:
  @DF-RHF Final Energy:  -306.00037087881049
    Total Energy =                       -306.0003708788100880
  Basis Set: CC-PVTZ
  Basis Set:
  Charge       = 0
  Multiplicity = 1
  Basis Set: CC-PVTZ
  Basis Set:

    Orbital Energies (a.u.)
    -----------------------

    Doubly Occupied:

       1A    -20.605263     2A    -20.541270     3A    -11.374737
       4A    -11.240110     5A    -11.224667     6A    -11.208980
       7A     -1.478826     8A     -1.370094     9A     -1.082880
      10A     -0.977381    11A     -0.863107    12A     -0.788920
      13A     -0.706217    14A     -0.694622    15A     -0.662765
      16A     -0.614695    17A     -0.596869    18A     -0.568169
      19A     -0.558494    20A     -0.497904    21A     -0.491196
      22A     -0.486542    23A     -0.481577    24A     -0.445913

  @DF-RHF Final Energy:  -306.00037100740138

   => Energetics <=

    Nuclear Repulsion Energy =            244.9736991331414515
    One-Electron Energy =                -902.8257432500929553
    Two-Electron Energy =                 351.8516731095501768
    DFT Exchange-Correlation Energy =       0.0000000000000000
    Empirical Dispersion Energy =           0.0000000000000000
    PCM Polarization Energy =               0.0000000000000000
    EFP Energy =                            0.0000000000000000
    Total Energy =                       -306.0003710074012702
    Molecular point group: c1
  Basis Set: CC-PVTZ
  Basis Set:

  -Total Gradient:
     Atom            X                  Y                   Z
    ------   -----------------  -----------------  -----------------
       1        0.000000403986     0.000002439771    -0.000000363770
       2        0.000022872523    -0.000033517653    -0.000005084287
       3       -0.000032072993     0.000043720184     0.000034458781
       4       -0.000129245269    -0.000118691336    -0.000633106824
       5        0.000012820462    -0.000012153810    -0.000027435579
       6        0.000327633289     0.000369030435     0.000418404603
       7        0.000046244823     0.000042365595     0.000460627525
       8        0.000007707486    -0.000003368038    -0.000000158476
       9       -0.000001089082    -0.000002002050    -0.000006766014
      10       -0.000250718140    -0.000289784344    -0.000245867761
      11       -0.000003657540     0.000004354094    -0.000001444834
      12       -0.000000004849     0.000000370296     0.000001389996
      13       -0.000000376725    -0.000000727600     0.000000528211
      14       -0.000000517972    -0.000002035543     0.000004818428

  **** Optimization is complete! (in 8 steps) ****
    Final optimized geometry and variables:
    Molecular point group: c1

    Geometry (in Angstrom), charge = 0, multiplicity = 1:

    H            1.546107568816    -1.898188141026     1.171198289364
    O            1.468931687276    -1.458010278476     0.337997286435
    C            0.618642829278    -0.445207983036     0.474896866926
    C            0.478355779220     0.343488709618    -0.800927786179
    O            0.081360427052    -0.210487943177     1.502043039331
    C           -0.685174519679     1.328451125033    -0.805443186140
    H            1.422446149912     0.865789272922    -0.924892243903
    H            0.411989223316    -0.357434567231    -1.624608677094
    C           -2.055792607771     0.659306476630    -0.852203082585
    H           -0.573311307789     1.969465318683    -1.673419944570
    H           -0.617271701037     1.963544450563     0.068694621709
    H           -2.156273749442     0.038145516903    -1.736761740295
    H           -2.842697364172     1.403542892989    -0.882454971777
    H           -2.220798176717     0.038677567856     0.018773853309

  Mulliken Charges: (a.u.)
   Center  Symbol    Alpha    Beta     Spin     Total
       1     H     0.38195  0.38195  0.00000  0.23609
       2     O     4.15960  4.15960  0.00000 -0.31920
       3     C     2.80498  2.80498  0.00000  0.39004
       4     C     3.11131  3.11131  0.00000 -0.22262
       5     O     4.19322  4.19322  0.00000 -0.38644
       6     C     3.08399  3.08399  0.00000 -0.16797
       7     H     0.43346  0.43346  0.00000  0.13308
       8     H     0.43681  0.43681  0.00000  0.12639
       9     C     3.15274  3.15274  0.00000 -0.30547
      10     H     0.44724  0.44724  0.00000  0.10552
      11     H     0.44568  0.44568  0.00000  0.10864
      12     H     0.45747  0.45747  0.00000  0.08506
      13     H     0.44750  0.44750  0.00000  0.10500
      14     H     0.44406  0.44406  0.00000  0.11187

   Total alpha = 24.00000, Total beta = 24.00000, Total charge =  0.00000
