  ==> Input File <==

--------------------------------------------------------------------------
set {
	reference rhf
	basis 6-31G*
}

set_num_threads( 4 )
memory 2 gb

molecule MOL {
0 1

H	 -0.367348	 2.047014	 -0.308205
C	 0.352277	 1.337084	 0.083769
N	 -0.000016	 0.000074	 -0.335546
H	 1.328359	 1.600444	 -0.307950
H	 0.381933	 1.450534	 1.172486
C	 0.415713	 -0.994654	 0.626720
C	 -1.404445	 -0.112909	 -0.656436
H	 0.199638	 -1.986748	 0.246704
H	 1.485443	 -0.925038	 0.788878
H	 -0.081939	 -0.886977	 1.596065
H	 -1.663386	 0.600144	 -1.430955
H	 -1.616804	 -1.106944	 -1.033578
H	 -2.056394	 0.069830	 0.204085

	symmetry c1
}
set optking {
	frozen_dihedral = ("
		6 3 2 1
	")
}

ee = optimize('scf')
oeprop('DIPOLE', 'QUADRUPOLE', 'MULLIKEN_CHARGES')
f=open( 'psi4out.xyz', 'w' )
f.write( "13  " )
f.write( str(ee) + "\n" )
f.write( MOL.save_string_xyz() )
f.close()
--------------------------------------------------------------------------

    Molecular point group: c1
  Charge       = 0
  Multiplicity = 1
  Basis Set: 6-31G*
  Basis Set:
  @DF-RHF Final Energy:  -173.26471081821569
    Total Energy =                       -173.2647108182155762
    Molecular point group: c1
  Basis Set: 6-31G*
  Basis Set:
  Basis Set: 6-31G*
  Basis Set:
  @DF-RHF Final Energy:  -173.26508758594713
    Total Energy =                       -173.2650875859471284
  Basis Set: 6-31G*
  Basis Set:
  Basis Set: 6-31G*
  Basis Set:
  @DF-RHF Final Energy:  -173.26517423849575
    Total Energy =                       -173.2651742384956606
  Basis Set: 6-31G*
  Basis Set:
  Charge       = 0
  Multiplicity = 1
  Basis Set: 6-31G*
  Basis Set:

    Orbital Energies (a.u.)
    -----------------------

    Doubly Occupied:

       1A    -15.542794     2A    -11.235652     3A    -11.235635
       4A    -11.235410     5A     -1.222634     6A     -0.951296
       7A     -0.950127     8A     -0.807576     9A     -0.639625
      10A     -0.629591    11A     -0.627621    12A     -0.549445
      13A     -0.545489    14A     -0.514890    15A     -0.500229
      16A     -0.498020    17A     -0.345717

  @DF-RHF Final Energy:  -173.26517638010782

   => Energetics <=

    Nuclear Repulsion Energy =            139.1140252642094026
    One-Electron Energy =                -508.6949038855290155
    Two-Electron Energy =                 196.3157022412117669
    DFT Exchange-Correlation Energy =       0.0000000000000000
    Empirical Dispersion Energy =           0.0000000000000000
    PCM Polarization Energy =               0.0000000000000000
    EFP Energy =                            0.0000000000000000
    Total Energy =                       -173.2651763801078175
    Molecular point group: c1
  Basis Set: 6-31G*
  Basis Set:

  -Total Gradient:
     Atom            X                  Y                   Z
    ------   -----------------  -----------------  -----------------
       1       -0.003021995648    -0.000550396419     0.004497395339
       2        0.002494282722     0.000807426498    -0.004935415704
       3        0.004045217091    -0.000586289010    -0.001388864479
       4        0.000014988073    -0.000007597416    -0.000003509249
       5        0.000000719309     0.000052528255    -0.000002939022
       6       -0.003708455191     0.000430967918     0.001766453877
       7        0.000168272268    -0.000111285396     0.000025267037
       8        0.000015000468    -0.000058856431     0.000027953792
       9       -0.000018357545     0.000028706010    -0.000020333633
      10        0.000007615813     0.000006798264     0.000024142782
      11        0.000050487826     0.000003942530     0.000030029620
      12       -0.000056239208    -0.000032655445    -0.000020265823
      13        0.000008464021     0.000016710640     0.000000085464

  **** Optimization is complete! (in 4 steps) ****
    Final optimized geometry and variables:
    Molecular point group: c1

    Geometry (in Angstrom), charge = 0, multiplicity = 1:

    H           -0.170510560857     2.006456805705    -0.250878207417
    C            0.537136888279     1.281200564591     0.131745106067
    N            0.168684276039    -0.059777507669    -0.291188204215
    H            1.533311618141     1.536136603813    -0.213369131639
    H            0.518928141962     1.388795999512     1.218742970863
    C            0.581707717849    -1.054901851961     0.672799132433
    C           -1.242495164842    -0.181493405896    -0.589387912656
    H            0.383643284349    -2.049110827707     0.288305899576
    H            1.648591803831    -0.974933471649     0.851378142701
    H            0.069688328087    -0.950893470054     1.634508464936
    H           -1.516232654959     0.515324065358    -1.372858250544
    H           -1.453529529308    -1.182687945915    -0.948111088653
    H           -1.885362828044     0.007992759253     0.276322591505

  Mulliken Charges: (a.u.)
   Center  Symbol    Alpha    Beta     Spin     Total
       1     H     0.41914  0.41914  0.00000  0.16173
       2     C     3.14420  3.14420  0.00000 -0.28840
       3     N     3.76637  3.76637  0.00000 -0.53274
       4     H     0.41449  0.41449  0.00000  0.17102
       5     H     0.43104  0.43104  0.00000  0.13791
       6     C     3.14401  3.14401  0.00000 -0.28803
       7     C     3.14367  3.14367  0.00000 -0.28735
       8     H     0.41697  0.41697  0.00000  0.16607
       9     H     0.41642  0.41642  0.00000  0.16717
      10     H     0.43474  0.43474  0.00000  0.13052
      11     H     0.41611  0.41611  0.00000  0.16778
      12     H     0.41736  0.41736  0.00000  0.16528
      13     H     0.43548  0.43548  0.00000  0.12903

   Total alpha = 17.00000, Total beta = 17.00000, Total charge = -0.00000
