  ==> Input File <==

--------------------------------------------------------------------------
set {
	reference rhf
	basis 6-31G*
}

set_num_threads( 1 )
memory 2 gb

molecule MOL {
0 1

O	 0.749854	 1.307668	 -0.000040
C	 0.576249	 0.131685	 -0.000108
C	 -0.766779	 -0.556801	 -0.000461
O	 1.568443	 -0.749345	 -0.000005
C	 -1.945214	 0.412366	 0.000161
H	 -0.796911	 -1.211249	 -0.867467
H	 -0.796854	 -1.212390	 0.865687
C	 -1.851003	 1.430701	 -1.135043
H	 -1.986407	 0.925269	 0.955062
H	 -2.870006	 -0.148553	 -0.081713
H	 -0.946584	 2.027704	 -1.057156
H	 -2.696928	 2.110022	 -1.116727
H	 -1.841119	 0.942075	 -2.105414
C	 2.886820	 -0.232538	 0.000322
H	 3.059106	 0.369571	 -0.880203
H	 3.540187	 -1.091012	 0.000050
H	 3.059019	 0.368956	 0.881266

	symmetry c1
}
set optking {
	frozen_dihedral = ("
		1 2 3 6,
		14 4 2 1
	")
}

ee = energy('scf')
oeprop('DIPOLE', 'QUADRUPOLE', 'MULLIKEN_CHARGES')
f=open( 'psi4out.xyz', 'w' )
f.write( "17  " )
f.write( str(ee) + "\n" )
f.write( MOL.save_string_xyz() )
f.close()
--------------------------------------------------------------------------

    Molecular point group: c1

    Geometry (in Angstrom), charge = 0, multiplicity = 1:

       Center              X                  Y                   Z               Mass
    ------------   -----------------  -----------------  -----------------  -----------------
           O          0.538352735267     1.050390876707     0.167059642869    15.994914619560
           C          0.364747735267    -0.125592123293     0.166991642869    12.000000000000
           C         -0.978280264733    -0.814078123293     0.166638642869    12.000000000000
           O          1.356941735267    -1.006622123293     0.167094642869    15.994914619560
           C         -2.156715264733     0.155088876707     0.167260642869    12.000000000000
           H         -1.008412264733    -1.468526123293    -0.700367357131     1.007825032070
           H         -1.008355264733    -1.469667123293     1.032786642869     1.007825032070
           C         -2.062504264733     1.173423876707    -0.967943357131    12.000000000000
           H         -2.197908264733     0.667991876707     1.122161642869     1.007825032070
           H         -3.081507264733    -0.405830123293     0.085386642869     1.007825032070
           H         -1.158085264733     1.770426876707    -0.890056357131     1.007825032070
           H         -2.908429264733     1.852744876707    -0.949627357131     1.007825032070
           H         -2.052620264733     0.684797876707    -1.938314357131     1.007825032070
           C          2.675318735267    -0.489815123293     0.167421642869    12.000000000000
           H          2.847604735267     0.112293876707    -0.713103357131     1.007825032070
           H          3.328685735267    -1.348289123293     0.167149642869     1.007825032070
           H          2.847517735267     0.111678876707     1.048365642869     1.007825032070

  Charge       = 0
  Multiplicity = 1
  Basis Set: 6-31G*
  Basis Set:

    Orbital Energies (a.u.)
    -----------------------

    Doubly Occupied:

       1A    -20.605740     2A    -20.547251     3A    -11.375027
       4A    -11.282305     5A    -11.236255     6A    -11.221277
       7A    -11.196285     8A     -1.472044     9A     -1.366542
      10A     -1.078808    11A     -0.998555    12A     -0.934663
      13A     -0.827685    14A     -0.769042    15A     -0.700376
      16A     -0.683247    17A     -0.673248    18A     -0.623569
      19A     -0.614040    20A     -0.564974    21A     -0.558895
      22A     -0.532345    23A     -0.520867    24A     -0.497698
      25A     -0.480506    26A     -0.477774    27A     -0.457514
      28A     -0.428673

  @DF-RHF Final Energy:  -344.90115928874087

   => Energetics <=

    Nuclear Repulsion Energy =            320.9697977987638637
    One-Electron Energy =               -1106.2915693918409943
    Two-Electron Energy =                 440.4206123043374532
    DFT Exchange-Correlation Energy =       0.0000000000000000
    Empirical Dispersion Energy =           0.0000000000000000
    PCM Polarization Energy =               0.0000000000000000
    EFP Energy =                            0.0000000000000000
    Total Energy =                       -344.9011592887396205

  Mulliken Charges: (a.u.)
   Center  Symbol    Alpha    Beta     Spin     Total
       1     O     4.28665  4.28665  0.00000 -0.57329
       2     C     2.60462  2.60462  0.00000  0.79076
       3     C     3.20883  3.20883  0.00000 -0.41767
       4     O     4.30660  4.30660  0.00000 -0.61321
       5     C     3.15187  3.15187  0.00000 -0.30374
       6     H     0.40033  0.40033  0.00000  0.19933
       7     H     0.39842  0.39842  0.00000  0.20317
       8     C     3.25562  3.25562  0.00000 -0.51125
       9     H     0.41432  0.41432  0.00000  0.17136
      10     H     0.41739  0.41739  0.00000  0.16522
      11     H     0.38704  0.38704  0.00000  0.22591
      12     H     0.42189  0.42189  0.00000  0.15622
      13     H     0.42796  0.42796  0.00000  0.14408
      14     C     3.09258  3.09258  0.00000 -0.18516
      15     H     0.40901  0.40901  0.00000  0.18197
      16     H     0.40802  0.40802  0.00000  0.18395
      17     H     0.40883  0.40883  0.00000  0.18234

   Total alpha = 28.00000, Total beta = 28.00000, Total charge = -0.00000
