  ==> Input File <==

--------------------------------------------------------------------------
set {
	reference rhf
	basis cc-pvtz
}

set_num_threads( 4 )
memory 2 gb

molecule MOL {
0 1

H	 -3.188000	 -1.230000	 -0.010000
O	 -2.363000	 -0.886000	 -0.322000
C	 -2.080000	 0.327000	 0.329000
C	 -0.727000	 0.830000	 -0.145000
H	 -2.846000	 1.067000	 0.103000
H	 -2.067000	 0.187000	 1.409000
C	 0.433000	 -0.096000	 0.224000
H	 -0.768000	 0.957000	 -1.223000
H	 -0.562000	 1.816000	 0.284000
C	 1.787000	 0.420000	 -0.266000
H	 0.247000	 -1.082000	 -0.190000
H	 0.466000	 -0.216000	 1.307000
C	 2.947000	 -0.503000	 0.106000
H	 1.756000	 0.541000	 -1.346000
H	 1.969000	 1.411000	 0.147000
H	 2.810000	 -1.493000	 -0.321000
H	 3.893000	 -0.114000	 -0.257000
H	 3.028000	 -0.618000	 1.183000

	symmetry c1
}
ee = optimize('scf')
oeprop('DIPOLE', 'QUADRUPOLE', 'MULLIKEN_CHARGES')
f=open( 'psi4out.xyz', 'w' )
f.write( "18  " )
f.write( str(ee) + "\n" )
f.write( MOL.save_string_xyz() )
f.close()
--------------------------------------------------------------------------

    Molecular point group: c1
  Charge       = 0
  Multiplicity = 1
  Basis Set: CC-PVTZ
  Basis Set:
  @DF-RHF Final Energy:  -271.28680145283306
    Total Energy =                       -271.2868014528328331
    Molecular point group: c1
  Basis Set: CC-PVTZ
  Basis Set:
  Basis Set: CC-PVTZ
  Basis Set:
  @DF-RHF Final Energy:  -271.28692465637062
    Total Energy =                       -271.2869246563703882
  Basis Set: CC-PVTZ
  Basis Set:
  Basis Set: CC-PVTZ
  Basis Set:
  @DF-RHF Final Energy:  -271.28692798555039
    Total Energy =                       -271.2869279855505056
  Basis Set: CC-PVTZ
  Basis Set:
  Basis Set: CC-PVTZ
  Basis Set:
  @DF-RHF Final Energy:  -271.28692954218758
    Total Energy =                       -271.2869295421874654
  Basis Set: CC-PVTZ
  Basis Set:
  Charge       = 0
  Multiplicity = 1
  Basis Set: CC-PVTZ
  Basis Set:

    Orbital Energies (a.u.)
    -----------------------

    Doubly Occupied:

       1A    -20.546276     2A    -11.265970     3A    -11.210457
       4A    -11.209131     5A    -11.204985     6A    -11.202791
       7A     -1.364134     8A     -1.076573     9A     -1.010244
      10A     -0.914465    11A     -0.818417    12A     -0.784782
      13A     -0.708341    14A     -0.643224    15A     -0.627355
      16A     -0.582401    17A     -0.572050    18A     -0.559304
      19A     -0.524463    20A     -0.501951    21A     -0.488979
      22A     -0.468573    23A     -0.459293    24A     -0.449733
      25A     -0.431317

  @DF-RHF Final Energy:  -271.28692965944140

   => Energetics <=

    Nuclear Repulsion Energy =            249.2963352659327541
    One-Electron Energy =                -861.9161063933707965
    Two-Electron Energy =                 341.3328414679966727
    DFT Exchange-Correlation Energy =       0.0000000000000000
    Empirical Dispersion Energy =           0.0000000000000000
    PCM Polarization Energy =               0.0000000000000000
    EFP Energy =                            0.0000000000000000
    Total Energy =                       -271.2869296594413981
    Molecular point group: c1
  Basis Set: CC-PVTZ
  Basis Set:

  -Total Gradient:
     Atom            X                  Y                   Z
    ------   -----------------  -----------------  -----------------
       1       -0.000077344099    -0.000033104502     0.000027310927
       2        0.000066710315     0.000026275309    -0.000043624606
       3        0.000009295975    -0.000009398389     0.000026039393
       4       -0.000004268254    -0.000001889334    -0.000005991141
       5       -0.000001301138     0.000000254025    -0.000004309281
       6       -0.000010709776     0.000005168105     0.000017176470
       7       -0.000003797925     0.000002689767     0.000003522026
       8        0.000005695999     0.000008394896    -0.000013375608
       9        0.000001410946     0.000018098028    -0.000001851281
      10       -0.000002060816    -0.000003870277    -0.000022702971
      11       -0.000007730363    -0.000012532445    -0.000007675278
      12       -0.000002845089    -0.000016252599     0.000023909643
      13        0.000001964275     0.000006806244     0.000016067157
      14        0.000000799024     0.000003281645    -0.000017698365
      15        0.000007265789     0.000020041223    -0.000006665712
      16        0.000001919801    -0.000009310347    -0.000008537234
      17        0.000008928934     0.000006469508     0.000004594110
      18        0.000006066397    -0.000011120855     0.000013811750

  **** Optimization is complete! (in 5 steps) ****
    Final optimized geometry and variables:
    Molecular point group: c1

    Geometry (in Angstrom), charge = 0, multiplicity = 1:

    H           -3.144993170214    -1.202466443937    -0.018750583622
    O           -2.321471271212    -0.864940390851    -0.318625299528
    C           -2.021813134702     0.336996021780     0.342658234102
    C           -0.669612763671     0.837286612843    -0.127252016708
    H           -2.780861015465     1.084746613205     0.127158921868
    H           -2.006389556843     0.184138152159     1.420052967035
    C            0.490865448011    -0.082542961877     0.241244471066
    H           -0.708708182226     0.967192631000    -1.204586127656
    H           -0.507561471021     1.822272506970     0.303070334612
    C            1.839799885454     0.429565813786    -0.255471752061
    H            0.305636508981    -1.070210772148    -0.165275970732
    H            0.527397128991    -0.195942407825     1.322876661616
    C            3.001144784012    -0.485192749647     0.119072469832
    H            1.804373049147     0.541073303049    -1.335755430572
    H            2.020437527056     1.423114532108     0.146921269090
    H            2.866892579875    -1.477296758653    -0.298805776574
    H            3.943542949820    -0.095748176668    -0.249060650315
    H            3.085064820211    -0.590458359763     1.195790479732

  Mulliken Charges: (a.u.)
   Center  Symbol    Alpha    Beta     Spin     Total
       1     H     0.39568  0.39568  0.00000  0.20865
       2     O     4.19884  4.19884  0.00000 -0.39768
       3     C     2.97376  2.97376  0.00000  0.05249
       4     C     3.09109  3.09109  0.00000 -0.18218
       5     H     0.46531  0.46531  0.00000  0.06937
       6     H     0.47369  0.47369  0.00000  0.05261
       7     C     3.08668  3.08668  0.00000 -0.17336
       8     H     0.45217  0.45217  0.00000  0.09565
       9     H     0.45437  0.45437  0.00000  0.09127
      10     C     3.08359  3.08359  0.00000 -0.16719
      11     H     0.44443  0.44443  0.00000  0.11114
      12     H     0.45962  0.45962  0.00000  0.08077
      13     C     3.14980  3.14980  0.00000 -0.29961
      14     H     0.45429  0.45429  0.00000  0.09143
      15     H     0.45685  0.45685  0.00000  0.08630
      16     H     0.45442  0.45442  0.00000  0.09116
      17     H     0.44937  0.44937  0.00000  0.10127
      18     H     0.45605  0.45605  0.00000  0.08790

   Total alpha = 25.00000, Total beta = 25.00000, Total charge = -0.00000
