  ==> Input File <==

--------------------------------------------------------------------------
set {
	reference rhf
	basis 6-31G*
}

set_num_threads( 4 )
memory 2 gb

molecule MOL {
0 1

H	 1.883900	 -0.587802	 -1.279913
C	 1.558808	 0.436954	 -1.063137
C	 0.692068	 0.589600	 0.160137
O	 1.891893	 1.331111	 -1.771421
C	 -0.558097	 -0.297372	 0.091132
H	 0.429229	 1.636036	 0.261956
H	 1.288074	 0.305952	 1.026827
C	 -1.850991	 0.512573	 -0.019058
H	 -0.476753	 -0.965681	 -0.762987
H	 -0.604799	 -0.930658	 0.975228
C	 -3.096943	 -0.368295	 -0.099594
H	 -1.800724	 1.150330	 -0.898172
H	 -1.931651	 1.177355	 0.838044
H	 -3.060452	 -1.020287	 -0.967456
H	 -3.996858	 0.233488	 -0.175704
H	 -3.191959	 -0.995686	 0.782074

	symmetry c1
}
set optking {
	frozen_dihedral = ("
		6 3 5 9
	")
}

ee = optimize('scf')
oeprop('DIPOLE', 'QUADRUPOLE', 'MULLIKEN_CHARGES')
f=open( 'psi4out.xyz', 'w' )
f.write( "16  " )
f.write( str(ee) + "\n" )
f.write( MOL.save_string_xyz() )
f.close()
--------------------------------------------------------------------------

    Molecular point group: c1
  Charge       = 0
  Multiplicity = 1
  Basis Set: 6-31G*
  Basis Set:
  @DF-RHF Final Energy:  -270.01493827912572
    Total Energy =                       -270.0149382791258290
    Molecular point group: c1
  Basis Set: 6-31G*
  Basis Set:
  Basis Set: 6-31G*
  Basis Set:
  @DF-RHF Final Energy:  -270.01482663045340
    Total Energy =                       -270.0148266304531148
  Basis Set: 6-31G*
  Basis Set:
  Basis Set: 6-31G*
  Basis Set:
  @DF-RHF Final Energy:  -270.01158066518622
    Total Energy =                       -270.0115806651864432
  Basis Set: 6-31G*
  Basis Set:
  Basis Set: 6-31G*
  Basis Set:
  @DF-RHF Final Energy:  -270.01523826260609
    Total Energy =                       -270.0152382626063741
  Basis Set: 6-31G*
  Basis Set:
  @DF-RHF Final Energy:  -270.01527559697604
    Total Energy =                       -270.0152755969762666
  Basis Set: 6-31G*
  Basis Set:
  @DF-RHF Final Energy:  -270.01528292456817
    Total Energy =                       -270.0152829245681687
  Basis Set: 6-31G*
  Basis Set:
  Basis Set: 6-31G*
  Basis Set:
  @DF-RHF Final Energy:  -270.01528531480886
    Total Energy =                       -270.0152853148088070
  Basis Set: 6-31G*
  Basis Set:
  Basis Set: 6-31G*
  Basis Set:
  @DF-RHF Final Energy:  -270.01528668407082
    Total Energy =                       -270.0152866840706452
  Basis Set: 6-31G*
  Basis Set:
  Charge       = 0
  Multiplicity = 1
  Basis Set: 6-31G*
  Basis Set:

    Orbital Energies (a.u.)
    -----------------------

    Doubly Occupied:

       1A    -20.562451     2A    -11.326804     3A    -11.236311
       4A    -11.235058     5A    -11.227306     6A    -11.217012
       7A     -1.402630     8A     -1.093708     9A     -1.016757
      10A     -0.905620    11A     -0.812658    12A     -0.794589
      13A     -0.670746    14A     -0.651916    15A     -0.619177
      16A     -0.604945    17A     -0.590643    18A     -0.535640
      19A     -0.526707    20A     -0.525218    21A     -0.485441
      22A     -0.481215    23A     -0.467525    24A     -0.410267

  @DF-RHF Final Energy:  -270.01528724379750

   => Energetics <=

    Nuclear Repulsion Energy =            230.5610838803445972
    One-Electron Energy =                -822.3520528531449827
    Two-Electron Energy =                 321.7756817290028266
    DFT Exchange-Correlation Energy =       0.0000000000000000
    Empirical Dispersion Energy =           0.0000000000000000
    PCM Polarization Energy =               0.0000000000000000
    EFP Energy =                            0.0000000000000000
    Total Energy =                       -270.0152872437975020
    Molecular point group: c1
  Basis Set: 6-31G*
  Basis Set:

  -Total Gradient:
     Atom            X                  Y                   Z
    ------   -----------------  -----------------  -----------------
       1       -0.000003335421     0.000002409790    -0.000017242392
       2       -0.000003067740     0.000052762348     0.000062865723
       3       -0.000082209017     0.000125084637     0.002194383241
       4        0.000008659652    -0.000021775572    -0.000040585620
       5        0.001018493035    -0.001603008762     0.000893079841
       6       -0.000041046760     0.000163576269    -0.001971768367
       7       -0.000001443270    -0.000001348343    -0.000003736911
       8        0.000005740558    -0.000018245661     0.000015512015
       9       -0.000885726404     0.001310988452    -0.001121586396
      10       -0.000019229714    -0.000011457104    -0.000000568722
      11        0.000001267858     0.000003189882    -0.000027694935
      12       -0.000006291209    -0.000005560853     0.000009170090
      13        0.000009419570     0.000003420608     0.000008496942
      14       -0.000001812942    -0.000009611215     0.000002358589
      15       -0.000002400429    -0.000002009490    -0.000005360236
      16        0.000002982226     0.000011585015     0.000002677137

  **** Optimization is complete! (in 9 steps) ****
    Final optimized geometry and variables:
    Molecular point group: c1

    Geometry (in Angstrom), charge = 0, multiplicity = 1:

    H            2.055562016670    -0.954377221363    -0.882561727384
    C            1.784529408290     0.074705269265    -0.617283807742
    C            0.932581841077     0.215560709286     0.619987961561
    O            2.159071976491     0.982110495281    -1.286424845212
    C           -0.331038150554    -0.675973818794     0.569319999550
    H            0.678367472735     1.264424578253     0.713656853027
    H            1.554985811172    -0.054601409500     1.469907102273
    C           -1.622892468317     0.135417591139     0.435447537882
    H           -0.269488900871    -1.358360408145    -0.276665737771
    H           -0.387178757190    -1.297770070143     1.456904379617
    C           -2.868106146077    -0.744753734710     0.346809079392
    H           -1.558842134576     0.766445756612    -0.447903340509
    H           -1.712724042246     0.807322498546     1.285612797859
    H           -2.823505199093    -1.403320314825    -0.515965793043
    H           -3.766518580662    -0.142734759914     0.256573941309
    H           -2.973709246831    -1.366016661647     1.231748227986

  Mulliken Charges: (a.u.)
   Center  Symbol    Alpha    Beta     Spin     Total
       1     H     0.43165  0.43165  0.00000  0.13669
       2     C     2.83353  2.83353  0.00000  0.33294
       3     C     3.21067  3.21067  0.00000 -0.42135
       4     O     4.23683  4.23683  0.00000 -0.47365
       5     C     3.16644  3.16644  0.00000 -0.33288
       6     H     0.39698  0.39698  0.00000  0.20605
       7     H     0.40519  0.40519  0.00000  0.18961
       8     C     3.15334  3.15334  0.00000 -0.30669
       9     H     0.41768  0.41768  0.00000  0.16464
      10     H     0.41400  0.41400  0.00000  0.17200
      11     C     3.24118  3.24118  0.00000 -0.48235
      12     H     0.41637  0.41637  0.00000  0.16727
      13     H     0.41906  0.41906  0.00000  0.16188
      14     H     0.42024  0.42024  0.00000  0.15952
      15     H     0.41601  0.41601  0.00000  0.16799
      16     H     0.42083  0.42083  0.00000  0.15833

   Total alpha = 24.00000, Total beta = 24.00000, Total charge =  0.00000
