                              Psi4 1.0.54 Driver

  ==> Input File <==

--------------------------------------------------------------------------
set {
	reference rhf
	basis cc-pvtz
}

set_num_threads( 4 )
memory 2 gb

molecule MOL {
0 1

H	 2.614283	 2.028610	 0.296620
O	 3.358864	 1.662087	 -0.142800
C	 3.565468	 0.338079	 0.273842
C	 2.533667	 -0.637565	 -0.272227
H	 4.548038	 0.064914	 -0.086598
H	 3.593945	 0.282242	 1.360360
C	 1.114816	 -0.402372	 0.240993
H	 2.544552	 -0.580764	 -1.356576
H	 2.850574	 -1.642962	 -0.005497
C	 0.748069	 -1.320064	 1.406402
H	 0.410643	 -0.550445	 -0.570929
H	 1.013680	 0.634267	 0.557913
C	 -0.636912	 -1.077381	 2.009052
H	 0.821981	 -2.355334	 1.082396
H	 1.490028	 -1.195527	 2.190275
C	 -1.809968	 -1.416685	 1.091143
H	 -0.723654	 -1.671914	 2.914333
H	 -0.714438	 -0.038710	 2.322591
C	 -3.167058	 -1.252553	 1.770684
H	 -1.706606	 -2.441990	 0.742524
H	 -1.784367	 -0.789950	 0.204830
C	 -4.340605	 -1.586905	 0.855868
H	 -3.205920	 -1.886773	 2.652065
H	 -3.268421	 -0.230898	 2.127067
H	 -4.285538	 -2.613114	 0.507873
H	 -5.287153	 -1.462716	 1.369415
H	 -4.351997	 -0.943559	 -0.017819

	symmetry c1
}
set optking {
	frozen_dihedral = ("
		10 7 4 8
	")
}

ee,wfn = optimize('scf', return_wfn=True)
oeprop( wfn, 'DIPOLE', 'QUADRUPOLE', 'MULLIKEN_CHARGES')
f=open( 'psi4out.xyz', 'w' )
f.write( "27  " )
f.write( str(ee) + "\n" )
f.write( MOL.save_string_xyz() )
f.close()
--------------------------------------------------------------------------

    Molecular point group: c1
  Charge       = 0
  Multiplicity = 1
  Basis Set: CC-PVTZ
  Basis Set:
  @DF-RHF Final Energy:  -388.42328637191872
    Total Energy =                       -388.4232863719186071
    Molecular point group: c1
  Basis Set: CC-PVTZ
  Basis Set:
  Basis Set: CC-PVTZ
  Basis Set:
  @DF-RHF Final Energy:  -388.42359858286108
    Total Energy =                       -388.4235985828611319
  Basis Set: CC-PVTZ
  Basis Set:
  Basis Set: CC-PVTZ
  Basis Set:
  @DF-RHF Final Energy:  -388.42372758610918
    Total Energy =                       -388.4237275861089529
  Basis Set: CC-PVTZ
  Basis Set:
  Basis Set: CC-PVTZ
  Basis Set:
  @DF-RHF Final Energy:  -388.42373566358856
    Total Energy =                       -388.4237356635887863
  Basis Set: CC-PVTZ
  Basis Set:
  Basis Set: CC-PVTZ
  Basis Set:
  @DF-RHF Final Energy:  -388.42373782094103
    Total Energy =                       -388.4237378209415965
  Basis Set: CC-PVTZ
  Basis Set:
  Charge       = 0
  Multiplicity = 1
  Basis Set: CC-PVTZ
  Basis Set:

    Orbital Energies (a.u.)
    -----------------------

    Doubly Occupied:

       1A    -20.544632     2A    -11.265048     3A    -11.218243
       4A    -11.216419     5A    -11.214464     6A    -11.214368
       7A    -11.213568     8A    -11.212512     9A    -11.207639
      10A     -1.362788    11A     -1.096853    12A     -1.062244
      13A     -1.012016    14A     -0.948846    15A     -0.891350
      16A     -0.824773    17A     -0.801339    18A     -0.777583
      19A     -0.698726    20A     -0.648172    21A     -0.636056
      22A     -0.614680    23A     -0.608549    24A     -0.586302
      25A     -0.575330    26A     -0.560745    27A     -0.542400
      28A     -0.525820    29A     -0.513708    30A     -0.496963
      31A     -0.486450    32A     -0.474373    33A     -0.469096
      34A     -0.461929    35A     -0.448695    36A     -0.440217
      37A     -0.428919

  @DF-RHF Final Energy:  -388.42373792234616

   => Energetics <=

    Nuclear Repulsion Energy =            460.2531407714286615
    One-Electron Energy =               -1438.7501312876972861
    Two-Electron Energy =                 590.0732525939230300
    DFT Exchange-Correlation Energy =       0.0000000000000000
    Empirical Dispersion Energy =           0.0000000000000000
    PCM Polarization Energy =               0.0000000000000000
    EFP Energy =                            0.0000000000000000
    Total Energy =                       -388.4237379223455946
    Molecular point group: c1
  Basis Set: CC-PVTZ
  Basis Set:

  -Total Gradient:
     Atom            X                  Y                   Z
    ------   -----------------  -----------------  -----------------
       1       -0.000023767550     0.000006243089    -0.000007743912
       2       -0.000055745686     0.000091756235     0.000045257870
       3        0.000000839233    -0.000169494975    -0.000114658332
       4        0.000275652015     0.003125160875    -0.000085228677
       5        0.000028236795    -0.000029482071     0.000032919469
       6       -0.000024878013     0.000011744818    -0.000056735729
       7        0.000919341403     0.001195442337     0.001837144816
       8       -0.000471894009    -0.002817643482    -0.000215406658
       9       -0.000030838194    -0.000009521322     0.000059461448
      10       -0.000658723584    -0.001411620107    -0.001449136698
      11       -0.000007753485    -0.000044290215    -0.000034886417
      12        0.000080408649     0.000026222649     0.000007508421
      13        0.000009176826     0.000032802312    -0.000007812807
      14       -0.000015384214     0.000008522085    -0.000028621180
      15       -0.000011859493    -0.000005874137    -0.000003816446
      16       -0.000032907116    -0.000008381286    -0.000002519785
      17        0.000027668690     0.000007987435     0.000011904219
      18       -0.000005297338     0.000002350993    -0.000011260102
      19        0.000016986906     0.000005639795     0.000006687283
      20       -0.000007485009     0.000002784118    -0.000008958380
      21       -0.000025327326    -0.000017645048     0.000035619670
      22        0.000001383246    -0.000004837830    -0.000005411277
      23        0.000002644249     0.000011085329    -0.000006263877
      24        0.000002165929    -0.000006385156    -0.000000535645
      25       -0.000002866032     0.000008960997    -0.000001070843
      26        0.000012384863    -0.000004761279    -0.000004317198
      27       -0.000002161754    -0.000006766160     0.000007880766

  **** Optimization is complete! (in 6 steps) ****
    Final optimized geometry and variables:
    Molecular point group: c1

    Geometry (in Angstrom), charge = 0, multiplicity = 1:

    H            2.379079983065     2.639568023116    -0.642349450875
    O            3.176829926421     2.280414874119    -0.983454604382
    C            3.357531078496     0.967440631294    -0.523173060674
    C            2.346928513058    -0.016227114746    -1.092826574564
    H            4.354270606173     0.683360391037    -0.832269859397
    H            3.338130052428     0.941219648558     0.564602100235
    C            0.909543498456     0.164102142571    -0.575227629019
    H            2.369942000701     0.048655726472    -2.174641147023
    H            2.685540645735    -1.019953547826    -0.848925640964
    C            0.567223890695    -0.774188653612     0.582718534080
    H            0.215620914562    -0.005939234645    -1.389305442450
    H            0.745049355991     1.192816579322    -0.261995937288
    C           -0.799298540002    -0.536801414277     1.227324943548
    H            0.625534497138    -1.800808688811     0.229994823541
    H            1.329339739442    -0.677050627687     1.351648130402
    C           -1.997956292059    -0.822822529494     0.324457492966
    H           -0.873697288741    -1.164874906885     2.110780335077
    H           -0.854535645802     0.489801020537     1.582701186816
    C           -3.336229816788    -0.670819513394     1.042769248037
    H           -1.916499804382    -1.833943773693    -0.068676083766
    H           -1.984365089367    -0.159900475294    -0.535183277044
    C           -4.535264061698    -0.951779020585     0.143292328337
    H           -3.362833082655    -1.340918274346     1.897631050358
    H           -3.415538897560     0.336109192743     1.443702501287
    H           -4.502340952891    -1.963155724836    -0.248143567748
    H           -5.467666759429    -0.837330609410     0.684111674668
    H           -4.558302807501    -0.272422301617    -0.702344886549

  Mulliken Charges: (a.u.)
   Center  Symbol    Alpha    Beta     Spin     Total
       1     H     0.39259  0.39259  0.00000  0.21481
       2     O     4.20577  4.20577  0.00000 -0.41154
       3     C     2.97577  2.97577  0.00000  0.04846
       4     C     3.09734  3.09734  0.00000 -0.19468
       5     H     0.44823  0.44823  0.00000  0.10355
       6     H     0.47082  0.47082  0.00000  0.05837
       7     C     3.10711  3.10711  0.00000 -0.21422
       8     H     0.44445  0.44445  0.00000  0.11109
       9     H     0.45685  0.45685  0.00000  0.08630
      10     C     3.09939  3.09939  0.00000 -0.19877
      11     H     0.44143  0.44143  0.00000  0.11714
      12     H     0.46376  0.46376  0.00000  0.07248
      13     C     3.09820  3.09820  0.00000 -0.19641
      14     H     0.45135  0.45135  0.00000  0.09731
      15     H     0.44754  0.44754  0.00000  0.10493
      16     C     3.08835  3.08835  0.00000 -0.17670
      17     H     0.44786  0.44786  0.00000  0.10428
      18     H     0.45413  0.45413  0.00000  0.09174
      19     C     3.08421  3.08421  0.00000 -0.16842
      20     H     0.45463  0.45463  0.00000  0.09074
      21     H     0.45326  0.45326  0.00000  0.09347
      22     C     3.14970  3.14970  0.00000 -0.29940
      23     H     0.45391  0.45391  0.00000  0.09219
      24     H     0.45468  0.45468  0.00000  0.09065
      25     H     0.45509  0.45509  0.00000  0.08982
      26     H     0.44827  0.44827  0.00000  0.10346
      27     H     0.45533  0.45533  0.00000  0.08935

   Total alpha = 37.00000, Total beta = 37.00000, Total charge =  0.00000

*** Psi4 exiting successfully. Buy a developer a beer!
