                              Psi4 1.0.54 Driver

  ==> Input File <==

--------------------------------------------------------------------------
set {
	reference rhf
	basis cc-pvtz
}

set_num_threads( 4 )
memory 2 gb

molecule MOL {
0 1

H	 -3.162190	 0.493205	 -0.000107
C	 -2.363908	 -0.234727	 0.000005
O	 -1.158738	 0.454634	 -0.000087
H	 -2.464314	 -0.863616	 -0.882153
H	 -2.464327	 -0.863359	 0.882345
C	 -0.760379	 0.919780	 1.251019
C	 0.560661	 1.649641	 1.114825
H	 -0.658737	 0.085249	 1.945183
H	 -1.518423	 1.588058	 1.660185
C	 1.066511	 2.191669	 2.446993
H	 1.288877	 0.969058	 0.687703
H	 0.436005	 2.459941	 0.405018
H	 1.221456	 1.393548	 3.165382
H	 2.010423	 2.707527	 2.320736
H	 0.363037	 2.894611	 2.880658

	symmetry c1
}
set optking {
	frozen_dihedral = ("
		6 3 2 4
	")
}

ee,wfn = optimize('scf', return_wfn=True)
oeprop( wfn, 'DIPOLE', 'QUADRUPOLE', 'MULLIKEN_CHARGES')
f=open( 'psi4out.xyz', 'w' )
f.write( "15  " )
f.write( str(ee) + "\n" )
f.write( MOL.save_string_xyz() )
f.close()
--------------------------------------------------------------------------

    Molecular point group: c1
  Charge       = 0
  Multiplicity = 1
  Basis Set: CC-PVTZ
  Basis Set:
  @DF-RHF Final Energy:  -232.22631508168263
    Total Energy =                       -232.2263150816828556
    Molecular point group: c1
  Basis Set: CC-PVTZ
  Basis Set:
  Basis Set: CC-PVTZ
  Basis Set:
  @DF-RHF Final Energy:  -232.22714591252549
    Total Energy =                       -232.2271459125256001
  Basis Set: CC-PVTZ
  Basis Set:
  Basis Set: CC-PVTZ
  Basis Set:
  @DF-RHF Final Energy:  -232.22733757842212
    Total Energy =                       -232.2273375784221798
  Basis Set: CC-PVTZ
  Basis Set:
  Charge       = 0
  Multiplicity = 1
  Basis Set: CC-PVTZ
  Basis Set:

    Orbital Energies (a.u.)
    -----------------------

    Doubly Occupied:

       1A    -20.546727     2A    -11.264541     3A    -11.261632
       4A    -11.212640     5A    -11.210669     6A     -1.380726
       7A     -1.058382     8A     -0.956138     9A     -0.877376
      10A     -0.809495    11A     -0.676394    12A     -0.655406
      13A     -0.631889    14A     -0.608817    15A     -0.564623
      16A     -0.542440    17A     -0.503517    18A     -0.489630
      19A     -0.478632    20A     -0.462701    21A     -0.415659

  @DF-RHF Final Energy:  -232.22733809885031

   => Energetics <=

    Nuclear Repulsion Energy =            189.9334493995680475
    One-Electron Energy =                -691.1055039744524038
    Two-Electron Energy =                 268.9447164760340456
    DFT Exchange-Correlation Energy =       0.0000000000000000
    Empirical Dispersion Energy =           0.0000000000000000
    PCM Polarization Energy =               0.0000000000000000
    EFP Energy =                            0.0000000000000000
    Total Energy =                       -232.2273380988502822
    Molecular point group: c1
  Basis Set: CC-PVTZ
  Basis Set:

  -Total Gradient:
     Atom            X                  Y                   Z
    ------   -----------------  -----------------  -----------------
       1        0.000014493285     0.000015951627    -0.000008240151
       2       -0.000912281153     0.001583681815    -0.001235573985
       3       -0.001140124831     0.001964761521    -0.000198207244
       4        0.001103321524    -0.001797622721     0.001145434156
       5        0.000029888176     0.000007775915     0.000007601499
       6        0.000959226980    -0.001757129463     0.000403883187
       7       -0.000008170391    -0.000005717340    -0.000068498136
       8       -0.000004910801    -0.000003100685     0.000022211827
       9       -0.000004465306    -0.000006167140    -0.000050928282
      10       -0.000044247834    -0.000005894537     0.000005349564
      11       -0.000001570941    -0.000003430327    -0.000003414817
      12        0.000017478791     0.000016368839    -0.000005873797
      13        0.000001571351    -0.000003728728    -0.000002356369
      14       -0.000010520291    -0.000007967320    -0.000018440280
      15        0.000000311440     0.000002218543     0.000007052823

  **** Optimization is complete! (in 4 steps) ****
    Final optimized geometry and variables:
    Molecular point group: c1

    Geometry (in Angstrom), charge = 0, multiplicity = 1:

    H           -2.661489647038    -0.549503164159    -0.916724623081
    C           -1.808641836697    -1.223180610792    -0.946240199668
    O           -0.606460453254    -0.526215419696    -0.948334785390
    H           -1.852468985442    -1.819536887672    -1.846664450687
    H           -1.875587461555    -1.898001104936    -0.095770287934
    C           -0.194036865500    -0.065279299066     0.299984898592
    C            1.112297666582     0.687142264600     0.145920191590
    H           -0.066466484090    -0.904985555002     0.982853249658
    H           -0.953321272294     0.588099105532     0.731076327352
    C            1.638382781943     1.217823401981     1.474884788411
    H            1.841225757839     0.023720580039    -0.306489914340
    H            0.960639089222     1.505549376176    -0.549234566785
    H            1.821446136875     0.411856135429     2.177807421758
    H            2.571168054233     1.750565840216     1.336079935735
    H            0.933493654272     1.903027822276     1.934032071337

  Mulliken Charges: (a.u.)
   Center  Symbol    Alpha    Beta     Spin     Total
       1     H     0.46720  0.46720  0.00000  0.06560
       2     C     3.03226  3.03226  0.00000 -0.06453
       3     O     4.17279  4.17279  0.00000 -0.34558
       4     H     0.44875  0.44875  0.00000  0.10249
       5     H     0.47487  0.47487  0.00000  0.05025
       6     C     2.95605  2.95605  0.00000  0.08790
       7     C     3.08071  3.08071  0.00000 -0.16142
       8     H     0.47440  0.47440  0.00000  0.05119
       9     H     0.47696  0.47696  0.00000  0.04609
      10     C     3.15581  3.15581  0.00000 -0.31163
      11     H     0.45119  0.45119  0.00000  0.09762
      12     H     0.45099  0.45099  0.00000  0.09802
      13     H     0.45591  0.45591  0.00000  0.08819
      14     H     0.44627  0.44627  0.00000  0.10747
      15     H     0.45583  0.45583  0.00000  0.08834

   Total alpha = 21.00000, Total beta = 21.00000, Total charge = -0.00000

*** Psi4 exiting successfully. Buy a developer a beer!
