  ==> Input File <==

--------------------------------------------------------------------------
set {
	reference rhf
	basis 6-31G*
}

set_num_threads( 1 )
memory 2 gb

molecule MOL {
0 1

H	 2.465338	 -2.224223	 0.000000
O	 2.784187	 -1.332015	 0.000000
C	 1.765313	 -0.449364	 0.000000
C	 0.581648	 -0.840339	 -0.618077
C	 1.863030	 0.799600	 0.581958
H	 0.530677	 -1.816128	 -1.063157
C	 -0.497234	 0.018725	 -0.651054
H	 2.762647	 1.126794	 1.064823
C	 0.760393	 1.637078	 0.530581
H	 -1.407217	 -0.291255	 -1.130326
C	 -0.423979	 1.279168	 -0.073334
N	 0.869089	 2.957220	 1.147750
H	 -1.252331	 1.956611	 -0.090859
O	 1.906723	 3.243412	 1.664898
O	 -0.084424	 3.671863	 1.099144

	symmetry c1
}
set optking {
	frozen_dihedral = ("
		11 9 12 14
	")
}

ee = energy('scf')
oeprop('DIPOLE', 'QUADRUPOLE', 'MULLIKEN_CHARGES')
f=open( 'psi4out.xyz', 'w' )
f.write( "15  " )
f.write( str(ee) + "\n" )
f.write( MOL.save_string_xyz() )
f.close()
--------------------------------------------------------------------------

    Molecular point group: c1

    Geometry (in Angstrom), charge = 0, multiplicity = 1:

       Center              X                  Y                   Z               Mass
    ------------   -----------------  -----------------  -----------------  -----------------
           H          1.475862999512    -3.366407254653    -0.404917701448     1.007825032070
           O          1.794711999512    -2.474199254653    -0.404917701448    15.994914619560
           C          0.775837999512    -1.591548254653    -0.404917701448    12.000000000000
           C         -0.407827000488    -1.982523254653    -1.022994701448    12.000000000000
           C          0.873554999512    -0.342584254653     0.177040298552    12.000000000000
           H         -0.458798000488    -2.958312254653    -1.468074701448     1.007825032070
           C         -1.486709000488    -1.123459254653    -1.055971701448    12.000000000000
           H          1.773171999512    -0.015390254653     0.659905298552     1.007825032070
           C         -0.229082000488     0.494893745347     0.125663298552    12.000000000000
           H         -2.396692000488    -1.433439254653    -1.535243701448     1.007825032070
           C         -1.413454000488     0.136983745347    -0.478251701448    12.000000000000
           N         -0.120386000488     1.815035745347     0.742832298552    14.003074004780
           H         -2.241806000488     0.814426745347    -0.495776701448     1.007825032070
           O          0.917247999512     2.101227745347     1.259980298552    15.994914619560
           O         -1.073899000488     2.529678745347     0.694226298552    15.994914619560

  Charge       = 0
  Multiplicity = 1
  Basis Set: 6-31G*
  Basis Set:

    Orbital Energies (a.u.)
    -----------------------

    Doubly Occupied:

       1A    -20.610851     2A    -20.603354     3A    -20.602757
       4A    -15.857865     5A    -11.328991     6A    -11.310420
       7A    -11.268474     8A    -11.265294     9A    -11.265023
      10A    -11.264728    11A     -1.636530    12A     -1.433905
      13A     -1.419717    14A     -1.200474    15A     -1.094682
      16A     -1.047295    17A     -0.964961    18A     -0.865765
      19A     -0.844703    20A     -0.795502    21A     -0.735476
      22A     -0.733109    23A     -0.721713    24A     -0.711890
      25A     -0.681057    26A     -0.637869    27A     -0.622906
      28A     -0.582493    29A     -0.568914    30A     -0.530347
      31A     -0.514406    32A     -0.490978    33A     -0.487980
      34A     -0.452799    35A     -0.378683    36A     -0.345602

  @DF-RHF Final Energy:  -509.02360486826922

   => Energetics <=

    Nuclear Repulsion Energy =            503.2242120950126036
    One-Electron Energy =               -1692.7403974190365261
    Two-Electron Energy =                 680.4925804557557285
    DFT Exchange-Correlation Energy =       0.0000000000000000
    Empirical Dispersion Energy =           0.0000000000000000
    PCM Polarization Energy =               0.0000000000000000
    EFP Energy =                            0.0000000000000000
    Total Energy =                       -509.0236048682680803

  Mulliken Charges: (a.u.)
   Center  Symbol    Alpha    Beta     Spin     Total
       1     H     0.26723  0.26723  0.00000  0.46555
       2     O     4.37902  4.37902  0.00000 -0.75803
       3     C     2.79162  2.79162  0.00000  0.41677
       4     C     3.12743  3.12743  0.00000 -0.25485
       5     C     3.11575  3.11575  0.00000 -0.23151
       6     H     0.39248  0.39248  0.00000  0.21504
       7     C     3.10074  3.10074  0.00000 -0.20147
       8     H     0.35748  0.35748  0.00000  0.28504
       9     C     2.91327  2.91327  0.00000  0.17345
      10     H     0.38749  0.38749  0.00000  0.22503
      11     C     3.09679  3.09679  0.00000 -0.19358
      12     N     3.24091  3.24091  0.00000  0.51818
      13     H     0.36488  0.36488  0.00000  0.27024
      14     O     4.23217  4.23217  0.00000 -0.46435
      15     O     4.23275  4.23275  0.00000 -0.46550

   Total alpha = 36.00000, Total beta = 36.00000, Total charge = -0.00000
