  ==> Input File <==

--------------------------------------------------------------------------
set {
	reference rhf
	basis 6-31G*
}

set_num_threads( 1 )
memory 2 gb

molecule MOL {
0 1

O	 -2.439739	 -0.935931	 -0.423848
C	 -1.921153	 0.064240	 -0.045697
C	 -2.624470	 1.379923	 0.150949
O	 -0.632575	 0.154573	 0.251549
H	 -2.168117	 2.136577	 -0.476876
H	 -3.669540	 1.273223	 -0.098610
H	 -2.519365	 1.700893	 1.180846
C	 0.160891	 -1.019931	 0.106212
C	 1.589627	 -0.672828	 0.480843
H	 0.089836	 -1.367806	 -0.916050
H	 -0.238459	 -1.792301	 0.749618
C	 2.141005	 -1.489854	 1.650822
H	 1.613750	 0.385765	 0.731307
H	 2.223028	 -0.802219	 -0.392838
C	 3.571044	 -1.096167	 2.018244
H	 1.495445	 -1.356667	 2.516624
H	 2.107459	 -2.544813	 1.399233
H	 3.939251	 -1.689760	 2.848968
H	 3.629977	 -0.050553	 2.307201
H	 4.246199	 -1.245694	 1.180457

	symmetry c1
}
set optking {
	frozen_dihedral = ("
		16 12 9 8,
		2 4 8 10,
		1 2 4 8
	")
}

ee = energy('scf')
oeprop('DIPOLE', 'QUADRUPOLE', 'MULLIKEN_CHARGES')
f=open( 'psi4out.xyz', 'w' )
f.write( "20  " )
f.write( str(ee) + "\n" )
f.write( MOL.save_string_xyz() )
f.close()
--------------------------------------------------------------------------

    Molecular point group: c1

    Geometry (in Angstrom), charge = 0, multiplicity = 1:

       Center              X                  Y                   Z               Mass
    ------------   -----------------  -----------------  -----------------  -----------------
           O         -2.411272536830    -0.488767527220    -0.946718496729    15.994914619560
           C         -1.892686536830     0.511403472780    -0.568567496729    12.000000000000
           C         -2.596003536830     1.827086472780    -0.371921496729    12.000000000000
           O         -0.604108536830     0.601736472780    -0.271321496729    15.994914619560
           H         -2.139650536830     2.583740472780    -0.999746496729     1.007825032070
           H         -3.641073536830     1.720386472780    -0.621480496729     1.007825032070
           H         -2.490898536830     2.148056472780     0.657975503271     1.007825032070
           C          0.189357463170    -0.572767527220    -0.416658496729    12.000000000000
           C          1.618093463170    -0.225664527220    -0.042027496729    12.000000000000
           H          0.118302463170    -0.920642527220    -1.438920496729     1.007825032070
           H         -0.209992536830    -1.345137527220     0.226747503271     1.007825032070
           C          2.169471463170    -1.042690527220     1.127951503271    12.000000000000
           H          1.642216463170     0.832928472780     0.208436503271     1.007825032070
           H          2.251494463170    -0.355055527220    -0.915708496729     1.007825032070
           C          3.599510463170    -0.649003527220     1.495373503271    12.000000000000
           H          1.523911463170    -0.909503527220     1.993753503271     1.007825032070
           H          2.135925463170    -2.097649527220     0.876362503271     1.007825032070
           H          3.967717463170    -1.242596527220     2.326097503271     1.007825032070
           H          3.658443463170     0.396610472780     1.784330503271     1.007825032070
           H          4.274665463170    -0.798530527220     0.657586503271     1.007825032070

  Charge       = 0
  Multiplicity = 1
  Basis Set: 6-31G*
  Basis Set:

    Orbital Energies (a.u.)
    -----------------------

    Doubly Occupied:

       1A    -20.601160     2A    -20.543443     3A    -11.373586
       4A    -11.280617     5A    -11.232984     6A    -11.224682
       7A    -11.222364     8A    -11.214819     9A     -1.467303
      10A     -1.361586    11A     -1.086918    12A     -1.029158
      13A     -0.980838    14A     -0.880690    15A     -0.807684
      16A     -0.780601    17A     -0.689719    18A     -0.681661
      19A     -0.667404    20A     -0.633963    21A     -0.600786
      22A     -0.592924    23A     -0.570460    24A     -0.555000
      25A     -0.544527    26A     -0.522162    27A     -0.512924
      28A     -0.481758    29A     -0.480239    30A     -0.475296
      31A     -0.447295    32A     -0.436598

  @DF-RHF Final Energy:  -383.93955875148606

   => Energetics <=

    Nuclear Repulsion Energy =            380.4826769983203576
    One-Electron Energy =               -1276.8818705509731899
    Two-Electron Energy =                 512.4596348011673399
    DFT Exchange-Correlation Energy =       0.0000000000000000
    Empirical Dispersion Energy =           0.0000000000000000
    PCM Polarization Energy =               0.0000000000000000
    EFP Energy =                            0.0000000000000000
    Total Energy =                       -383.9395587514854924

  Mulliken Charges: (a.u.)
   Center  Symbol    Alpha    Beta     Spin     Total
       1     O     4.28349  4.28349  0.00000 -0.56697
       2     C     2.61983  2.61983  0.00000  0.76033
       3     C     3.28157  3.28157  0.00000 -0.56313
       4     O     4.31008  4.31008  0.00000 -0.62015
       5     H     0.40058  0.40058  0.00000  0.19884
       6     H     0.39698  0.39698  0.00000  0.20604
       7     H     0.40086  0.40086  0.00000  0.19829
       8     C     3.00090  3.00090  0.00000 -0.00181
       9     C     3.17080  3.17080  0.00000 -0.34160
      10     H     0.40852  0.40852  0.00000  0.18297
      11     H     0.40837  0.40837  0.00000  0.18325
      12     C     3.15875  3.15875  0.00000 -0.31751
      13     H     0.40509  0.40509  0.00000  0.18982
      14     H     0.41678  0.41678  0.00000  0.16644
      15     C     3.24080  3.24080  0.00000 -0.48160
      16     H     0.41870  0.41870  0.00000  0.16260
      17     H     0.42029  0.42029  0.00000  0.15942
      18     H     0.41723  0.41723  0.00000  0.16553
      19     H     0.41982  0.41982  0.00000  0.16037
      20     H     0.42056  0.42056  0.00000  0.15888

   Total alpha = 32.00000, Total beta = 32.00000, Total charge = -0.00000
