                              Psi4 1.0.54 Driver

  ==> Input File <==

--------------------------------------------------------------------------
set {
	reference rhf
	basis cc-pvtz
}

set_num_threads( 4 )
memory 2 gb

molecule MOL {
0 1

O	 -2.351700	 0.095329	 -1.147853
C	 -1.922978	 0.063265	 -0.045005
C	 -2.758264	 -0.089968	 1.194862
O	 -0.637375	 0.157174	 0.243149
H	 -2.607396	 0.764096	 1.842574
H	 -3.797991	 -0.169754	 0.922393
H	 -2.445694	 -0.972972	 1.737239
C	 0.162530	 -1.009518	 0.097799
C	 1.587210	 -0.664190	 0.477086
H	 0.096803	 -1.356267	 -0.924704
H	 -0.233803	 -1.785900	 0.736810
C	 2.256770	 0.342732	 -0.454344
H	 2.154716	 -1.590834	 0.479041
H	 1.598751	 -0.289614	 1.496104
C	 3.698146	 0.643205	 -0.057145
H	 2.235038	 -0.042575	 -1.470299
H	 1.683491	 1.262594	 -0.461300
H	 4.150202	 1.356548	 -0.736242
H	 4.305463	 -0.255904	 -0.069842
H	 3.749130	 1.061068	 0.942759

	symmetry c1
}
set optking {
	frozen_dihedral = ("
		1 2 4 8
	")
}

ee,wfn = optimize('scf', return_wfn=True)
oeprop( wfn, 'DIPOLE', 'QUADRUPOLE', 'MULLIKEN_CHARGES')
f=open( 'psi4out.xyz', 'w' )
f.write( "20  " )
f.write( str(ee) + "\n" )
f.write( MOL.save_string_xyz() )
f.close()
--------------------------------------------------------------------------

    Molecular point group: c1
  Charge       = 0
  Multiplicity = 1
  Basis Set: CC-PVTZ
  Basis Set:
  @DF-RHF Final Energy:  -384.06882938715751
    Total Energy =                       -384.0688293871573933
    Molecular point group: c1
  Basis Set: CC-PVTZ
  Basis Set:
  Basis Set: CC-PVTZ
  Basis Set:
  @DF-RHF Final Energy:  -383.84201347834613
    Total Energy =                       -383.8420134783460753
  Basis Set: CC-PVTZ
  Basis Set:
  Basis Set: CC-PVTZ
  Basis Set:
  @DF-RHF Final Energy:  -383.97595783874726
    Total Energy =                       -383.9759578387473766
  Basis Set: CC-PVTZ
  Basis Set:
  Basis Set: CC-PVTZ
  Basis Set:
  @DF-RHF Final Energy:  -384.05812825364859
    Total Energy =                       -384.0581282536486469
  Basis Set: CC-PVTZ
  Basis Set:
  @DF-RHF Final Energy:  -384.06846293956323
    Total Energy =                       -384.0684629395628917
  @DF-RHF Final Energy:  -384.06982388281017
    Total Energy =                       -384.0698238828100557
  @DF-RHF Final Energy:  -384.06940800811412
    Total Energy =                       -384.0694080081140100
  Basis Set: CC-PVTZ
  Basis Set:
  @DF-RHF Final Energy:  -384.07012605209098
    Total Energy =                       -384.0701260520906999
  Basis Set: CC-PVTZ
  Basis Set:
  Basis Set: CC-PVTZ
  Basis Set:
  @DF-RHF Final Energy:  -384.07013506464597
    Total Energy =                       -384.0701350646461378
  Basis Set: CC-PVTZ
  Basis Set:
  Basis Set: CC-PVTZ
  Basis Set:
  @DF-RHF Final Energy:  -384.07013705840012
    Total Energy =                       -384.0701370584001779
  Basis Set: CC-PVTZ
  Basis Set:
  Charge       = 0
  Multiplicity = 1
  Basis Set: CC-PVTZ
  Basis Set:

    Orbital Energies (a.u.)
    -----------------------

    Doubly Occupied:

       1A    -20.576018     2A    -20.544422     3A    -11.369773
       4A    -11.289292     5A    -11.235406     6A    -11.224932
       7A    -11.216027     8A    -11.209748     9A     -1.461218
      10A     -1.368694    11A     -1.084449    12A     -1.023503
      13A     -0.987662    14A     -0.881133    15A     -0.809063
      16A     -0.777607    17A     -0.698137    18A     -0.685706
      19A     -0.655198    20A     -0.633906    21A     -0.613885
      22A     -0.591782    23A     -0.580262    24A     -0.562630
      25A     -0.543203    26A     -0.530012    27A     -0.498912
      28A     -0.485416    29A     -0.481698    30A     -0.473661
      31A     -0.449049    32A     -0.439349

  @DF-RHF Final Energy:  -384.07013760360149

   => Energetics <=

    Nuclear Repulsion Energy =            384.5982072813179116
    One-Electron Energy =               -1285.3731849936816616
    Two-Electron Energy =                 516.7048401087623688
    DFT Exchange-Correlation Energy =       0.0000000000000000
    Empirical Dispersion Energy =           0.0000000000000000
    PCM Polarization Energy =               0.0000000000000000
    EFP Energy =                            0.0000000000000000
    Total Energy =                       -384.0701376036014381
    Molecular point group: c1
  Basis Set: CC-PVTZ
  Basis Set:

  -Total Gradient:
     Atom            X                  Y                   Z
    ------   -----------------  -----------------  -----------------
       1        0.001792850304     0.004369877329     0.000372941792
       2       -0.003205803401    -0.006692762448     0.001191137279
       3        0.000043161613     0.000098113631    -0.000106976283
       4        0.002293724397     0.002847232838    -0.005041387557
       5        0.000009765015    -0.000011111220     0.000009188301
       6        0.000009827885    -0.000018121612     0.000023274979
       7       -0.000028694540    -0.000047705119     0.000016627688
       8       -0.000935592170    -0.000575848842     0.003529120622
       9        0.000034702202     0.000019782657    -0.000047777239
      10        0.000000080349     0.000000775588     0.000012336091
      11        0.000017611695     0.000025649325    -0.000016663973
      12       -0.000018407986    -0.000002666794     0.000058735071
      13       -0.000001078580     0.000022356831     0.000013592635
      14       -0.000002880243    -0.000003097014     0.000010621621
      15       -0.000008555399    -0.000018108862    -0.000021801379
      16        0.000005582790     0.000004816738    -0.000009799172
      17        0.000001949972    -0.000035494852     0.000003831622
      18       -0.000007162755    -0.000006260462     0.000011175410
      19        0.000001396032     0.000022909209     0.000005825099
      20       -0.000002477178    -0.000000336913    -0.000014002609

  **** Optimization is complete! (in 11 steps) ****
    Final optimized geometry and variables:
    Molecular point group: c1

    Geometry (in Angstrom), charge = 0, multiplicity = 1:

    O           -2.035131378330     1.227399469799    -1.016615610831
    C           -1.651370516700     0.991860405239     0.070408922702
    C           -2.403914891735     1.316866457611     1.329094234470
    O           -0.431458894954     0.469380192020     0.301624330064
    H           -1.817016958200     2.009066701177     1.919869772221
    H           -3.362364368899     1.749114931638     1.091138978081
    H           -2.536452885502     0.418894003858     1.920873900331
    C           -0.284111756180    -0.930302089669     0.115729344940
    C            1.166413139481    -1.305103807433     0.334212190497
    H           -0.605723810412    -1.190638743165    -0.885803713312
    H           -0.917553775581    -1.451693749447     0.826782551563
    C            2.121417660686    -0.708336779094    -0.695385886457
    H            1.230155593105    -2.389695840003     0.308314204335
    H            1.458293445390    -0.997486709575     1.333551893962
    C            3.571903252519    -1.110302072635    -0.451351923698
    H            1.819291503161    -1.027897773202    -1.688839582673
    H            2.034287797958     0.371122053056    -0.680549319888
    H            4.227121766407    -0.676789163983    -1.197584193659
    H            3.694655173991    -2.187824560510    -0.489614086238
    H            3.912664564604    -0.774094638609     0.522279613212

  Mulliken Charges: (a.u.)
   Center  Symbol    Alpha    Beta     Spin     Total
       1     O     4.17207  4.17207  0.00000 -0.34414
       2     C     2.80510  2.80510  0.00000  0.38980
       3     C     3.14135  3.14135  0.00000 -0.28270
       4     O     4.17448  4.17448  0.00000 -0.34897
       5     H     0.44375  0.44375  0.00000  0.11250
       6     H     0.43709  0.43709  0.00000  0.12582
       7     H     0.45046  0.45046  0.00000  0.09907
       8     C     2.98645  2.98645  0.00000  0.02710
       9     C     3.08752  3.08752  0.00000 -0.17505
      10     H     0.45095  0.45095  0.00000  0.09811
      11     H     0.45604  0.45604  0.00000  0.08792
      12     C     3.08475  3.08475  0.00000 -0.16949
      13     H     0.45318  0.45318  0.00000  0.09363
      14     H     0.45137  0.45137  0.00000  0.09726
      15     C     3.15035  3.15035  0.00000 -0.30071
      16     H     0.45397  0.45397  0.00000  0.09206
      17     H     0.44316  0.44316  0.00000  0.11369
      18     H     0.44668  0.44668  0.00000  0.10663
      19     H     0.45649  0.45649  0.00000  0.08703
      20     H     0.45478  0.45478  0.00000  0.09045

   Total alpha = 32.00000, Total beta = 32.00000, Total charge = -0.00000

*** Psi4 exiting successfully. Buy a developer a beer!
