                              Psi4 1.0.54 Driver

  ==> Input File <==

--------------------------------------------------------------------------
set {
	reference rhf
	basis cc-pvtz
}

set_num_threads( 4 )
memory 2 gb

molecule MOL {
0 1

O	 -2.817697	 1.304178	 0.001046
C	 -2.664672	 0.129869	 0.003507
C	 -3.797908	 -0.860100	 -0.001145
O	 -1.481217	 -0.452708	 0.001092
H	 -4.408836	 -0.679689	 -0.875387
H	 -3.443486	 -1.878443	 -0.002770
H	 -4.412123	 -0.683688	 0.871605
C	 -0.332055	 0.384012	 -0.000250
C	 0.892252	 -0.506059	 -0.000295
H	 -0.360822	 1.020205	 -0.874146
H	 -0.359817	 1.021310	 0.872861
C	 0.625774	 -1.849702	 0.671996
H	 1.701413	 0.008590	 0.507705
H	 1.214219	 -0.661593	 -1.024898
C	 1.846945	 -2.764981	 0.683415
H	 0.294017	 -1.684289	 1.694030
H	 -0.193010	 -2.353194	 0.163997
C	 1.580743	 -4.108239	 1.354088
H	 2.665302	 -2.263640	 1.192340
H	 2.179287	 -2.931130	 -0.337384
H	 1.279241	 -3.976690	 2.387837
H	 2.466163	 -4.733107	 1.345238
H	 0.789225	 -4.649210	 0.846444

	symmetry c1
}
set optking {
	frozen_dihedral = ("
		13 9 8 10
	")
}

ee,wfn = optimize('scf', return_wfn=True)
oeprop( wfn, 'DIPOLE', 'QUADRUPOLE', 'MULLIKEN_CHARGES')
f=open( 'psi4out.xyz', 'w' )
f.write( "23  " )
f.write( str(ee) + "\n" )
f.write( MOL.save_string_xyz() )
f.close()
--------------------------------------------------------------------------

    Molecular point group: c1
  Charge       = 0
  Multiplicity = 1
  Basis Set: CC-PVTZ
  Basis Set:
  @DF-RHF Final Energy:  -423.12742990957992
    Total Energy =                       -423.1274299095800870
    Molecular point group: c1
  Basis Set: CC-PVTZ
  Basis Set:
  Basis Set: CC-PVTZ
  Basis Set:
  @DF-RHF Final Energy:  -423.12751647976148
    Total Energy =                       -423.1275164797615389
  Basis Set: CC-PVTZ
  Basis Set:
  Basis Set: CC-PVTZ
  Basis Set:
  @DF-RHF Final Energy:  -423.12953548812453
    Total Energy =                       -423.1295354881244748
  Basis Set: CC-PVTZ
  Basis Set:
  Basis Set: CC-PVTZ
  Basis Set:
  @DF-RHF Final Energy:  -423.12939646198453
    Total Energy =                       -423.1293964619844701
  Basis Set: CC-PVTZ
  Basis Set:
  Basis Set: CC-PVTZ
  Basis Set:
  @DF-RHF Final Energy:  -423.12960279998578
    Total Energy =                       -423.1296027999862872
  Basis Set: CC-PVTZ
  Basis Set:
  Basis Set: CC-PVTZ
  Basis Set:
  @DF-RHF Final Energy:  -423.12968102766604
    Total Energy =                       -423.1296810276660381
  Basis Set: CC-PVTZ
  Basis Set:
  Charge       = 0
  Multiplicity = 1
  Basis Set: CC-PVTZ
  Basis Set:

    Orbital Energies (a.u.)
    -----------------------

    Doubly Occupied:

       1A    -20.594969     2A    -20.529409     3A    -11.366336
       4A    -11.281125     5A    -11.230889     6A    -11.224238
       7A    -11.216762     8A    -11.215380     9A    -11.209149
      10A     -1.470707    11A     -1.363584    12A     -1.091171
      13A     -1.041244    14A     -1.002569    15A     -0.931843
      16A     -0.844056    17A     -0.806673    18A     -0.765887
      19A     -0.692777    20A     -0.690011    21A     -0.668742
      22A     -0.645420    23A     -0.607832    24A     -0.588952
      25A     -0.580413    26A     -0.569021    27A     -0.560335
      28A     -0.530902    29A     -0.526835    30A     -0.514843
      31A     -0.492794    32A     -0.473483    33A     -0.468352
      34A     -0.459189    35A     -0.450197    36A     -0.440452

  @DF-RHF Final Energy:  -423.12968118038731

   => Energetics <=

    Nuclear Repulsion Energy =            460.9478753459648601
    One-Electron Energy =               -1489.8620354366196352
    Two-Electron Energy =                 605.7844789102675804
    DFT Exchange-Correlation Energy =       0.0000000000000000
    Empirical Dispersion Energy =           0.0000000000000000
    PCM Polarization Energy =               0.0000000000000000
    EFP Energy =                            0.0000000000000000
    Total Energy =                       -423.1296811803872515
    Molecular point group: c1
  Basis Set: CC-PVTZ
  Basis Set:

  -Total Gradient:
     Atom            X                  Y                   Z
    ------   -----------------  -----------------  -----------------
       1       -0.000050687009     0.000044215217    -0.000022444983
       2        0.000016518116    -0.000038207355     0.000085505945
       3        0.000006015752     0.000029396342    -0.000011371010
       4        0.000021573282     0.000008692652     0.000011892602
       5       -0.000004228277    -0.000004843995    -0.000002560792
       6        0.000010463401    -0.000007375602    -0.000001665527
       7        0.000017688955     0.000009222067    -0.000018403857
       8        0.004115068518     0.005116539988     0.005023833532
       9        0.001220540043     0.001790615633    -0.007523088001
      10       -0.003595160638    -0.004527239675    -0.003090383579
      11        0.000012093504     0.000024069969    -0.000007915491
      12       -0.000049638152    -0.000018291358    -0.000119154105
      13       -0.001734825906    -0.002428033132     0.005645301425
      14       -0.000009885703     0.000001446455    -0.000008171209
      15        0.000010220596    -0.000004720068    -0.000001816613
      16       -0.000010791610    -0.000001895923     0.000013688324
      17        0.000005955832    -0.000021876198    -0.000014995905
      18        0.000004741964     0.000029429447     0.000038553397
      19        0.000026567621     0.000009752513    -0.000006031365
      20       -0.000018299829    -0.000004221958     0.000001233560
      21       -0.000007556878    -0.000009067664     0.000012443516
      22        0.000018088773    -0.000001652189     0.000008251410
      23       -0.000004462355     0.000004044844    -0.000012701273

  **** Optimization is complete! (in 7 steps) ****
    Final optimized geometry and variables:
    Molecular point group: c1

    Geometry (in Angstrom), charge = 0, multiplicity = 1:

    O           -2.085796940385     2.344468470359    -0.315262172334
    C           -2.005439554748     1.162780324254    -0.332111797067
    C           -3.199537316863     0.246628692945    -0.341460212689
    O           -0.861669936840     0.507566244850    -0.344283348166
    H           -3.804202150824     0.478433053997    -1.207962539079
    H           -2.911425633193    -0.792358604958    -0.360183679301
    H           -3.794795681531     0.448997034472     0.538818143710
    C            0.339385578428     1.276818824829    -0.340292039716
    C            1.541549345623     0.336893382245    -0.372464019084
    H            0.311865925560     1.898463769748    -1.222904187460
    H            0.342534870960     1.905321832459     0.537512719819
    C            1.351769029171    -0.979281440148     0.383707050975
    H            2.362470066022     0.860366166613     0.107954692690
    H            1.828585900523     0.130180269160    -1.396873187772
    C            2.636726152750    -1.800110895789     0.451399193984
    H            1.005606077711    -0.769887421633     1.392790863336
    H            0.573776573506    -1.566295072128    -0.088532717490
    C            2.461056939099    -3.121189416473     1.192666669168
    H            3.414699378381    -1.216725318084     0.936512746416
    H            2.990036898802    -1.998292412689    -0.557104224684
    H            2.138624573950    -2.956074351350     2.215360237280
    H            3.389385489500    -3.679807624544     1.225092519908
    H            1.716361791663    -3.744752369420     0.709410757088

  Mulliken Charges: (a.u.)
   Center  Symbol    Alpha    Beta     Spin     Total
       1     O     4.20360  4.20360  0.00000 -0.40719
       2     C     2.81300  2.81300  0.00000  0.37401
       3     C     3.13961  3.13961  0.00000 -0.27923
       4     O     4.14602  4.14602  0.00000 -0.29205
       5     H     0.44189  0.44189  0.00000  0.11621
       6     H     0.44226  0.44226  0.00000  0.11548
       7     H     0.44204  0.44204  0.00000  0.11591
       8     C     2.98998  2.98998  0.00000  0.02004
       9     C     3.09723  3.09723  0.00000 -0.19447
      10     H     0.44627  0.44627  0.00000  0.10747
      11     H     0.44914  0.44914  0.00000  0.10172
      12     C     3.08176  3.08176  0.00000 -0.16351
      13     H     0.45266  0.45266  0.00000  0.09467
      14     H     0.44924  0.44924  0.00000  0.10151
      15     C     3.08683  3.08683  0.00000 -0.17367
      16     H     0.45462  0.45462  0.00000  0.09076
      17     H     0.44680  0.44680  0.00000  0.10641
      18     C     3.14964  3.14964  0.00000 -0.29928
      19     H     0.45488  0.45488  0.00000  0.09024
      20     H     0.45448  0.45448  0.00000  0.09104
      21     H     0.45494  0.45494  0.00000  0.09012
      22     H     0.44811  0.44811  0.00000  0.10378
      23     H     0.45498  0.45498  0.00000  0.09003

   Total alpha = 36.00000, Total beta = 36.00000, Total charge = -0.00000

*** Psi4 exiting successfully. Buy a developer a beer!
