                              Psi4 1.0.54 Driver

  ==> Input File <==

--------------------------------------------------------------------------
set {
	reference rhf
	basis cc-pvtz
}

set_num_threads( 4 )
memory 2 gb

molecule MOL {
0 1

H	 -3.642953	 0.223825	 0.000000
C	 -2.571844	 0.155001	 0.000000
C	 -1.957580	 -1.086132	 0.000000
C	 -1.807160	 1.303787	 0.000000
H	 -2.551493	 -1.979629	 0.000000
C	 -0.582719	 -1.174294	 0.000000
H	 -2.279934	 2.266806	 0.000000
C	 -0.427220	 1.213406	 0.000000
H	 -0.094904	 -2.127556	 0.000000
C	 0.196908	 -0.024061	 0.000000
H	 0.151409	 2.115254	 0.000000
C	 1.690041	 -0.173233	 0.000000
C	 2.420821	 -0.246242	 -1.321094
O	 2.291104	 -0.233283	 1.024929
H	 2.075712	 -1.091691	 -1.904272
H	 3.475718	 -0.351632	 -1.124076
H	 2.249793	 0.650771	 -1.904272

	symmetry c1
}
set optking {
	frozen_dihedral = ("
		13 12 10 8
	")
}

ee,wfn = optimize('scf', return_wfn=True)
oeprop( wfn, 'DIPOLE', 'QUADRUPOLE', 'MULLIKEN_CHARGES')
f=open( 'psi4out.xyz', 'w' )
f.write( "17  " )
f.write( str(ee) + "\n" )
f.write( MOL.save_string_xyz() )
f.close()
--------------------------------------------------------------------------

    Molecular point group: c1
  Charge       = 0
  Multiplicity = 1
  Basis Set: CC-PVTZ
  Basis Set:
  @DF-RHF Final Energy:  -382.59635518128050
    Total Energy =                       -382.5963551812808419
    Molecular point group: c1
  Basis Set: CC-PVTZ
  Basis Set:
  Basis Set: CC-PVTZ
  Basis Set:
  @DF-RHF Final Energy:  -382.59686688806363
    Total Energy =                       -382.5968668880635732
  Basis Set: CC-PVTZ
  Basis Set:
  Basis Set: CC-PVTZ
  Basis Set:
  @DF-RHF Final Energy:  -382.59181304402284
    Total Energy =                       -382.5918130440232972
  Basis Set: CC-PVTZ
  Basis Set:
  Basis Set: CC-PVTZ
  Basis Set:
  @DF-RHF Final Energy:  -382.59624262020179
    Total Energy =                       -382.5962426202022471
  Basis Set: CC-PVTZ
  Basis Set:
  Basis Set: CC-PVTZ
  Basis Set:
  @DF-RHF Final Energy:  -382.59712451185834
    Total Energy =                       -382.5971245118583965
  Basis Set: CC-PVTZ
  Basis Set:
  Basis Set: CC-PVTZ
  Basis Set:
  @DF-RHF Final Energy:  -382.59714141748680
    Total Energy =                       -382.5971414174870233
  Basis Set: CC-PVTZ
  Basis Set:
  Basis Set: CC-PVTZ
  Basis Set:
  @DF-RHF Final Energy:  -382.59714245911067
    Total Energy =                       -382.5971424591109553
  Basis Set: CC-PVTZ
  Basis Set:
  Charge       = 0
  Multiplicity = 1
  Basis Set: CC-PVTZ
  Basis Set:

    Orbital Energies (a.u.)
    -----------------------

    Doubly Occupied:

       1A    -20.548980     2A    -11.331183     3A    -11.247272
       4A    -11.241420     5A    -11.241290     6A    -11.239447
       7A    -11.239132     8A    -11.236782     9A    -11.231607
      10A     -1.408592    11A     -1.171144    12A     -1.054175
      13A     -1.029665    14A     -1.001704    15A     -0.862311
      16A     -0.841564    17A     -0.765638    18A     -0.706356
      19A     -0.667280    20A     -0.647504    21A     -0.633488
      22A     -0.623366    23A     -0.602099    24A     -0.592981
      25A     -0.565637    26A     -0.525117    27A     -0.515584
      28A     -0.513019    29A     -0.497220    30A     -0.413500
      31A     -0.348875    32A     -0.346399

  @DF-RHF Final Energy:  -382.59714267152867

   => Energetics <=

    Nuclear Repulsion Energy =            403.5060106787151426
    One-Electron Energy =               -1318.4256485062962838
    Two-Electron Energy =                 532.3224951560525824
    DFT Exchange-Correlation Energy =       0.0000000000000000
    Empirical Dispersion Energy =           0.0000000000000000
    PCM Polarization Energy =               0.0000000000000000
    EFP Energy =                            0.0000000000000000
    Total Energy =                       -382.5971426715285588
    Molecular point group: c1
  Basis Set: CC-PVTZ
  Basis Set:

  -Total Gradient:
     Atom            X                  Y                   Z
    ------   -----------------  -----------------  -----------------
       1       -0.000001712545    -0.000004645766     0.000000503295
       2       -0.000004357455     0.000065003627    -0.000018025026
       3        0.000069292340    -0.000024960427     0.000012955851
       4       -0.000047565342    -0.000026120435     0.000009417744
       5       -0.000009552309    -0.000000712503     0.000000549017
       6       -0.000080160453    -0.000011597972    -0.000008846011
       7       -0.000002720881     0.000007205142     0.000000528639
       8        0.000025925749    -0.000042705357     0.000031154339
       9        0.000016136897    -0.000004724759    -0.000000358253
      10       -0.000003871986     0.000019792407    -0.000053791519
      11        0.000001536783     0.000008693753    -0.000002419615
      12        0.000032666817     0.000054111401     0.000100276296
      13       -0.000002182117    -0.000043876702    -0.000009949368
      14       -0.000011179121    -0.000003030361    -0.000043140943
      15       -0.000003095927    -0.000008554899    -0.000001461043
      16        0.000016905352     0.000000100190    -0.000010949860
      17        0.000003934198     0.000016022662    -0.000006443541

  **** Optimization is complete! (in 8 steps) ****
    Final optimized geometry and variables:
    Molecular point group: c1

    Geometry (in Angstrom), charge = 0, multiplicity = 1:

    H           -3.624183658165     0.385813496422    -0.007150829008
    C           -2.557124032060     0.273636485653     0.004240970575
    C           -1.993342070206    -0.975602787025     0.180949096172
    C           -1.742235662141     1.378158376460    -0.154449897928
    H           -2.621586183419    -1.836059394207     0.309558574194
    C           -0.619313488933    -1.120922571702     0.196950457913
    H           -2.174655935669     2.351321298409    -0.287055764912
    C           -0.367846901748     1.234578968228    -0.138869850334
    H           -0.186595551193    -2.092919077042     0.343137917522
    C            0.198250501438    -0.015487780587     0.039225223616
    H            0.260546196179     2.097809901067    -0.254462679498
    C            1.698352204730    -0.171559561304     0.069149100630
    C            2.376656997810    -0.428525429163    -1.253881984677
    O            2.303695115293    -0.095072103380     1.085602749210
    H            1.978877447525    -1.332950881511    -1.700594854790
    H            3.442504707152    -0.522802587799    -1.111074839264
    H            2.162880052884     0.383579607125    -1.939871256234

  Mulliken Charges: (a.u.)
   Center  Symbol    Alpha    Beta     Spin     Total
       1     H     0.42168  0.42168  0.00000  0.15665
       2     C     3.08633  3.08633  0.00000 -0.17266
       3     C     3.06296  3.06296  0.00000 -0.12591
       4     C     3.06298  3.06298  0.00000 -0.12597
       5     H     0.42138  0.42138  0.00000  0.15723
       6     C     3.09866  3.09866  0.00000 -0.19733
       7     H     0.42138  0.42138  0.00000  0.15723
       8     C     3.09874  3.09874  0.00000 -0.19748
       9     H     0.42301  0.42301  0.00000  0.15397
      10     C     2.95126  2.95126  0.00000  0.09748
      11     H     0.42305  0.42305  0.00000  0.15390
      12     C     2.88246  2.88246  0.00000  0.23509
      13     C     3.14972  3.14972  0.00000 -0.29945
      14     O     4.16609  4.16609  0.00000 -0.33218
      15     H     0.44701  0.44701  0.00000  0.10597
      16     H     0.43623  0.43623  0.00000  0.12755
      17     H     0.44705  0.44705  0.00000  0.10589

   Total alpha = 32.00000, Total beta = 32.00000, Total charge =  0.00000

*** Psi4 exiting successfully. Buy a developer a beer!
