                              Psi4 1.0.54 Driver

  ==> Input File <==

--------------------------------------------------------------------------
set {
	reference rhf
	basis cc-pvtz
}

set_num_threads( 4 )
memory 2 gb

molecule MOL {
0 1

H	 -3.144994	 -1.202467	 -0.018751
O	 -2.321472	 -0.864941	 -0.318626
C	 -2.021813	 0.336996	 0.342658
C	 -0.669613	 0.837286	 -0.127252
H	 -2.780861	 1.084746	 0.127159
H	 -2.006390	 0.184138	 1.420053
C	 0.490865	 -0.082543	 0.241244
H	 -0.708709	 0.967192	 -1.204587
H	 -0.507562	 1.822272	 0.303070
C	 1.856663	 0.560359	 0.017907
H	 0.420198	 -0.995337	 -0.339159
H	 0.398677	 -0.373182	 1.285827
C	 3.016924	 -0.355447	 0.393245
H	 1.949896	 0.848955	 -1.025512
H	 1.922933	 1.479447	 0.594601
H	 2.998431	 -1.268618	 -0.192155
H	 3.971766	 0.128424	 0.221634
H	 2.971763	 -0.635302	 1.440664

	symmetry c1
}
set optking {
	frozen_dihedral = ("
		10 7 4 8
	")
}

ee,wfn = optimize('scf', return_wfn=True)
oeprop( wfn, 'DIPOLE', 'QUADRUPOLE', 'MULLIKEN_CHARGES')
f=open( 'psi4out.xyz', 'w' )
f.write( "18  " )
f.write( str(ee) + "\n" )
f.write( MOL.save_string_xyz() )
f.close()
--------------------------------------------------------------------------

    Molecular point group: c1
  Charge       = 0
  Multiplicity = 1
  Basis Set: CC-PVTZ
  Basis Set:
  @DF-RHF Final Energy:  -271.28640446836312
    Total Energy =                       -271.2864044683631732
    Molecular point group: c1
  Basis Set: CC-PVTZ
  Basis Set:
  Basis Set: CC-PVTZ
  Basis Set:
  @DF-RHF Final Energy:  -271.28644513803647
    Total Energy =                       -271.2864451380366404
  Basis Set: CC-PVTZ
  Basis Set:
  Basis Set: CC-PVTZ
  Basis Set:
  @DF-RHF Final Energy:  -271.28647284507815
    Total Energy =                       -271.2864728450780376
  Basis Set: CC-PVTZ
  Basis Set:
  Charge       = 0
  Multiplicity = 1
  Basis Set: CC-PVTZ
  Basis Set:

    Orbital Energies (a.u.)
    -----------------------

    Doubly Occupied:

       1A    -20.546108     2A    -11.265721     3A    -11.210441
       4A    -11.209362     5A    -11.205137     6A    -11.202898
       7A     -1.364011     8A     -1.076524     9A     -1.010301
      10A     -0.914381    11A     -0.818647    12A     -0.784678
      13A     -0.707590    14A     -0.646345    15A     -0.625062
      16A     -0.580826    17A     -0.572988    18A     -0.559563
      19A     -0.524181    20A     -0.504142    21A     -0.487815
      22A     -0.468321    23A     -0.459096    24A     -0.449624
      25A     -0.431471

  @DF-RHF Final Energy:  -271.28647335319306

   => Energetics <=

    Nuclear Repulsion Energy =            249.2753295616397224
    One-Electron Energy =                -861.8731395623137814
    Two-Electron Energy =                 341.3113366474810846
    DFT Exchange-Correlation Energy =       0.0000000000000000
    Empirical Dispersion Energy =           0.0000000000000000
    PCM Polarization Energy =               0.0000000000000000
    EFP Energy =                            0.0000000000000000
    Total Energy =                       -271.2864733531929460
    Molecular point group: c1
  Basis Set: CC-PVTZ
  Basis Set:

  -Total Gradient:
     Atom            X                  Y                   Z
    ------   -----------------  -----------------  -----------------
       1        0.000001562614     0.000003548261     0.000006477580
       2       -0.000014723861    -0.000063987258    -0.000015389031
       3        0.000016760219     0.000099272350     0.000022320851
       4        0.001576535296     0.002274075702     0.000700818697
       5        0.000025994615    -0.000017493115     0.000018400350
       6       -0.000008783709    -0.000019036889    -0.000039423396
       7       -0.000279812211    -0.001170035435    -0.002017561696
       8       -0.001297312456    -0.001674256329    -0.000141599219
       9        0.000016140783    -0.000023727983     0.000002434131
      10       -0.000031967400     0.000589571257     0.001480988058
      11       -0.000012564039     0.000027962565     0.000010536901
      12        0.000007334479    -0.000002227629     0.000002568279
      13        0.000008019984    -0.000026585381    -0.000035324561
      14        0.000012765758    -0.000001280718     0.000017609044
      15       -0.000008071316    -0.000013002935    -0.000004279454
      16        0.000001908401     0.000000601466     0.000016440483
      17       -0.000003493884    -0.000003882617    -0.000010797043
      18       -0.000010293274     0.000020484688    -0.000014219975

  **** Optimization is complete! (in 4 steps) ****
    Final optimized geometry and variables:
    Molecular point group: c1

    Geometry (in Angstrom), charge = 0, multiplicity = 1:

    H           -3.129749839011    -1.263405484708    -0.109098704405
    O           -2.304378432988    -0.922152056337    -0.399276359306
    C           -2.033101987947     0.297630025170     0.241248477975
    C           -0.678604842389     0.804500477280    -0.215609785737
    H           -2.797799528647     1.030595056643    -0.003466070272
    H           -2.034732783087     0.167449653535     1.321594391235
    C            0.479911011143    -0.115389199115     0.163224804308
    H           -0.715927473193     0.922626936551    -1.294329004607
    H           -0.526159296969     1.790501868119     0.214560779200
    C            1.847915243674     0.521028027049    -0.066018023688
    H            0.402603925787    -1.039899500836    -0.396690507641
    H            0.391495191424    -0.386250554662     1.213455537442
    C            3.005693364393    -0.407616780424     0.284279918921
    H            1.934705578474     0.825968223565    -1.105715470009
    H            1.924156986347     1.430205475687     0.524364200430
    H            2.977708915609    -1.310465043938    -0.316411652458
    H            3.961998307709     0.073786445012     0.113948434846
    H            2.966382275452    -0.705218689945     1.327021343470

  Mulliken Charges: (a.u.)
   Center  Symbol    Alpha    Beta     Spin     Total
       1     H     0.39594  0.39594  0.00000  0.20813
       2     O     4.19890  4.19890  0.00000 -0.39779
       3     C     2.97356  2.97356  0.00000  0.05288
       4     C     3.09184  3.09184  0.00000 -0.18368
       5     H     0.46602  0.46602  0.00000  0.06796
       6     H     0.47403  0.47403  0.00000  0.05195
       7     C     3.08472  3.08472  0.00000 -0.16944
       8     H     0.45155  0.45155  0.00000  0.09690
       9     H     0.45457  0.45457  0.00000  0.09085
      10     C     3.08374  3.08374  0.00000 -0.16748
      11     H     0.44426  0.44426  0.00000  0.11149
      12     H     0.45984  0.45984  0.00000  0.08031
      13     C     3.14979  3.14979  0.00000 -0.29957
      14     H     0.45496  0.45496  0.00000  0.09009
      15     H     0.45661  0.45661  0.00000  0.08678
      16     H     0.45439  0.45439  0.00000  0.09122
      17     H     0.44941  0.44941  0.00000  0.10119
      18     H     0.45589  0.45589  0.00000  0.08822

   Total alpha = 25.00000, Total beta = 25.00000, Total charge = -0.00000

*** Psi4 exiting successfully. Buy a developer a beer!
