  ==> Input File <==

--------------------------------------------------------------------------
set {
	reference rhf
	basis 6-31G*
}

set_num_threads( 4 )
memory 2 gb

molecule MOL {
0 1

H	 -1.836216	 1.387520	 -0.000064
C	 -1.301823	 0.443321	 -0.000031
O	 -0.003969	 0.658512	 0.000451
O	 -1.829879	 -0.616434	 -0.000857
C	 0.642855	 0.764993	 1.268310
C	 2.113802	 1.008189	 1.008523
H	 0.478340	 -0.149497	 1.821448
H	 0.192871	 1.577124	 1.822614
H	 2.545800	 0.188745	 0.445565
H	 2.644484	 1.095140	 1.950887
H	 2.259120	 1.923702	 0.446733

	symmetry c1
}
set optking {
	frozen_dihedral = ("
		5 3 2 4
	")
}

ee = optimize('scf')
oeprop('DIPOLE', 'QUADRUPOLE', 'MULLIKEN_CHARGES')
f=open( 'psi4out.xyz', 'w' )
f.write( "11  " )
f.write( str(ee) + "\n" )
f.write( MOL.save_string_xyz() )
f.close()
--------------------------------------------------------------------------

    Molecular point group: c1
  Charge       = 0
  Multiplicity = 1
  Basis Set: 6-31G*
  Basis Set:
  @DF-RHF Final Energy:  -266.80811146654128
    Total Energy =                       -266.8081114665410496
    Molecular point group: c1
  Basis Set: 6-31G*
  Basis Set:
  Basis Set: 6-31G*
  Basis Set:
  @DF-RHF Final Energy:  -266.80815778419412
    Total Energy =                       -266.8081577841941794
  Basis Set: 6-31G*
  Basis Set:
  Basis Set: 6-31G*
  Basis Set:
  @DF-RHF Final Energy:  -266.80916769722694
    Total Energy =                       -266.8091676972268260
  Basis Set: 6-31G*
  Basis Set:
  Basis Set: 6-31G*
  Basis Set:
  @DF-RHF Final Energy:  -266.80935270894321
    Total Energy =                       -266.8093527089430950
  Basis Set: 6-31G*
  Basis Set:
  Basis Set: 6-31G*
  Basis Set:
  @DF-RHF Final Energy:  -266.80934905778190
    Total Energy =                       -266.8093490577819580
  Basis Set: 6-31G*
  Basis Set:
  Basis Set: 6-31G*
  Basis Set:
  @DF-RHF Final Energy:  -266.80935862485410
    Total Energy =                       -266.8093586248539850
  Basis Set: 6-31G*
  Basis Set:
  Charge       = 0
  Multiplicity = 1
  Basis Set: 6-31G*
  Basis Set:

    Orbital Energies (a.u.)
    -----------------------

    Doubly Occupied:

       1A    -20.592451     2A    -20.571716     3A    -11.381319
       4A    -11.301950     5A    -11.228798     6A     -1.466649
       7A     -1.378868     8A     -1.049187     9A     -0.887856
      10A     -0.827939    11A     -0.740479    12A     -0.689267
      13A     -0.647579    14A     -0.638132    15A     -0.563699
      16A     -0.541421    17A     -0.534843    18A     -0.503495
      19A     -0.464737    20A     -0.453441

  @DF-RHF Final Energy:  -266.80935880414950

   => Energetics <=

    Nuclear Repulsion Energy =            177.0381706419864258
    One-Electron Energy =                -714.7674070109244440
    Two-Electron Energy =                 270.9198775647886350
    DFT Exchange-Correlation Energy =       0.0000000000000000
    Empirical Dispersion Energy =           0.0000000000000000
    PCM Polarization Energy =               0.0000000000000000
    EFP Energy =                            0.0000000000000000
    Total Energy =                       -266.8093588041493831
    Molecular point group: c1
  Basis Set: 6-31G*
  Basis Set:

  -Total Gradient:
     Atom            X                  Y                   Z
    ------   -----------------  -----------------  -----------------
       1        0.000007956811     0.000012778855     0.000003955891
       2       -0.000070978114     0.000322168533     0.001400157160
       3        0.000175846375    -0.001066918660    -0.000416845777
       4        0.000047130347     0.000033424292    -0.000939251872
       5       -0.000144207355     0.000708450129    -0.000001487803
       6        0.000000867869    -0.000005712672    -0.000027507411
       7        0.000000444256    -0.000004274445    -0.000000423628
       8       -0.000011222818    -0.000001084437    -0.000007375603
       9        0.000009642476    -0.000001899700    -0.000003652656
      10       -0.000020998015    -0.000001714865    -0.000004715857
      11        0.000005518171     0.000004782973    -0.000002852444

  **** Optimization is complete! (in 7 steps) ****
    Final optimized geometry and variables:
    Molecular point group: c1

    Geometry (in Angstrom), charge = 0, multiplicity = 1:

    H           -1.823582004206     0.920834582650    -0.478414787842
    C           -1.245828849869    -0.001172836495    -0.452417484253
    O            0.077553248324     0.211608449522    -0.466840597570
    O           -1.746663045993    -1.066365297506    -0.446850033011
    C            0.717775922179     0.312459035837     0.800606229111
    C            2.191492091879     0.552428436668     0.556582361667
    H            0.554056298077    -0.606212688617     1.350943885419
    H            0.278872585594     1.132389184769     1.362366534361
    H            2.617535637871    -0.267233667731    -0.009272406865
    H            2.716426708552     0.631859135981     1.502906705740
    H            2.340389352507     1.469872709637    -0.000551137896

  Mulliken Charges: (a.u.)
   Center  Symbol    Alpha    Beta     Spin     Total
       1     H     0.42410  0.42410  0.00000  0.15180
       2     C     2.73165  2.73165  0.00000  0.53670
       3     O     4.30329  4.30329  0.00000 -0.60658
       4     O     4.22694  4.22694  0.00000 -0.45387
       5     C     3.00473  3.00473  0.00000 -0.00946
       6     C     3.24689  3.24689  0.00000 -0.49378
       7     H     0.40942  0.40942  0.00000  0.18117
       8     H     0.42152  0.42152  0.00000  0.15696
       9     H     0.40569  0.40569  0.00000  0.18862
      10     H     0.41615  0.41615  0.00000  0.16770
      11     H     0.40963  0.40963  0.00000  0.18074

   Total alpha = 20.00000, Total beta = 20.00000, Total charge =  0.00000
