                              Psi4 1.0.54 Driver

  ==> Input File <==

--------------------------------------------------------------------------
set {
	reference rhf
	basis cc-pvtz
}

set_num_threads( 4 )
memory 2 gb

molecule MOL {
0 1

H	 -3.077543	 -1.266673	 0.067385
O	 -2.321472	 -0.864941	 -0.318626
C	 -2.021813	 0.336996	 0.342658
C	 -0.669613	 0.837286	 -0.127252
H	 -2.780861	 1.084746	 0.127159
H	 -2.006390	 0.184138	 1.420053
C	 0.490865	 -0.082543	 0.241244
H	 -0.708709	 0.967192	 -1.204587
H	 -0.507562	 1.822272	 0.303070
C	 1.839800	 0.429565	 -0.255472
H	 0.305636	 -1.070211	 -0.165276
H	 0.527397	 -0.195943	 1.322876
C	 3.001144	 -0.485193	 0.119072
H	 1.804373	 0.541073	 -1.335756
H	 2.020437	 1.423114	 0.146921
H	 2.866892	 -1.477297	 -0.298806
H	 3.943543	 -0.095749	 -0.249061
H	 3.085064	 -0.590459	 1.195790

	symmetry c1
}
set optking {
	frozen_dihedral = ("
		1 2 3 4
	")
}

ee,wfn = optimize('scf', return_wfn=True)
oeprop( wfn, 'DIPOLE', 'QUADRUPOLE', 'MULLIKEN_CHARGES')
f=open( 'psi4out.xyz', 'w' )
f.write( "18  " )
f.write( str(ee) + "\n" )
f.write( MOL.save_string_xyz() )
f.close()
--------------------------------------------------------------------------

    Molecular point group: c1
  Charge       = 0
  Multiplicity = 1
  Basis Set: CC-PVTZ
  Basis Set:
  @DF-RHF Final Energy:  -271.28685456219387
    Total Energy =                       -271.2868545621939234
    Molecular point group: c1
  Basis Set: CC-PVTZ
  Basis Set:
  Basis Set: CC-PVTZ
  Basis Set:
  @DF-RHF Final Energy:  -271.28685698503949
    Total Energy =                       -271.2868569850392078
  Basis Set: CC-PVTZ
  Basis Set:
  Charge       = 0
  Multiplicity = 1
  Basis Set: CC-PVTZ
  Basis Set:

    Orbital Energies (a.u.)
    -----------------------

    Doubly Occupied:

       1A    -20.546234     2A    -11.265999     3A    -11.210447
       4A    -11.209298     5A    -11.205231     6A    -11.202991
       7A     -1.364092     8A     -1.076755     9A     -1.010369
      10A     -0.914697    11A     -0.818626    12A     -0.784828
      13A     -0.708801    14A     -0.641288    15A     -0.629261
      16A     -0.582477    17A     -0.571399    18A     -0.560956
      19A     -0.525117    20A     -0.499608    21A     -0.488487
      22A     -0.469435    23A     -0.459542    24A     -0.452272
      25A     -0.430037

  @DF-RHF Final Energy:  -271.28685766175664

   => Energetics <=

    Nuclear Repulsion Energy =            249.2868345327598831
    One-Electron Energy =                -861.8908943699233305
    Two-Electron Energy =                 341.3172021754068624
    DFT Exchange-Correlation Energy =       0.0000000000000000
    Empirical Dispersion Energy =           0.0000000000000000
    PCM Polarization Energy =               0.0000000000000000
    EFP Energy =                            0.0000000000000000
    Total Energy =                       -271.2868576617566418
    Molecular point group: c1
  Basis Set: CC-PVTZ
  Basis Set:

  -Total Gradient:
     Atom            X                  Y                   Z
    ------   -----------------  -----------------  -----------------
       1        0.000360441865    -0.000290189068     0.000364845108
       2       -0.000377290064     0.000293198168    -0.000346499608
       3       -0.000146721860     0.000201793872    -0.000305139307
       4        0.000170886323    -0.000203299349     0.000309142341
       5       -0.000019007505     0.000007371726     0.000006061624
       6        0.000020242621     0.000003452127    -0.000020969304
       7        0.000014889923     0.000005650469    -0.000010526233
       8       -0.000002503726    -0.000009446946     0.000009633269
       9       -0.000012278730     0.000006669128     0.000003672900
      10       -0.000008715544    -0.000011765740    -0.000016248952
      11        0.000005223398    -0.000004842465     0.000000175771
      12       -0.000004364517     0.000000214034     0.000001935380
      13        0.000003250360     0.000003618388     0.000006580029
      14        0.000000679799     0.000001228757    -0.000006163479
      15       -0.000004375290    -0.000005870343    -0.000000603180
      16       -0.000000726647     0.000004246285    -0.000002035811
      17       -0.000000627987     0.000001430061     0.000003294574
      18        0.000000997581    -0.000003459103     0.000002844879

  **** Optimization is complete! (in 3 steps) ****
    Final optimized geometry and variables:
    Molecular point group: c1

    Geometry (in Angstrom), charge = 0, multiplicity = 1:

    H           -3.082414930249    -1.263763559209     0.058317414593
    O           -2.326511868733    -0.860727249426    -0.326177810882
    C           -2.021833718057     0.335865799556     0.342819778794
    C           -0.669606832272     0.836819784140    -0.126426756987
    H           -2.781402496687     1.085538257375     0.136181852113
    H           -2.001991853816     0.175173869832     1.418804172974
    C            0.491515436852    -0.081274101414     0.243730041011
    H           -0.708143408520     0.965318963810    -1.204008553516
    H           -0.509048613321     1.822827729936     0.302068977226
    C            1.839742665328     0.429140432704    -0.256481596568
    H            0.305931536899    -1.070313306614    -0.159239092969
    H            0.529718384762    -0.190681755797     1.325752779211
    C            3.001531269439    -0.484526578220     0.119201471035
    H            1.802702778338     0.537266572462    -1.337015573657
    H            2.020989217787     1.423860596552     0.142604761026
    H            2.866207565776    -1.478097817808    -0.294789799177
    H            3.943307207640    -0.096715562964    -0.252165783179
    H            3.087488367266    -0.585824121660     1.196131859455

  Mulliken Charges: (a.u.)
   Center  Symbol    Alpha    Beta     Spin     Total
       1     H     0.39534  0.39534  0.00000  0.20931
       2     O     4.19953  4.19953  0.00000 -0.39906
       3     C     2.97439  2.97439  0.00000  0.05123
       4     C     3.09093  3.09093  0.00000 -0.18186
       5     H     0.46462  0.46462  0.00000  0.07076
       6     H     0.47356  0.47356  0.00000  0.05289
       7     C     3.08696  3.08696  0.00000 -0.17391
       8     H     0.45174  0.45174  0.00000  0.09651
       9     H     0.45412  0.45412  0.00000  0.09176
      10     C     3.08358  3.08358  0.00000 -0.16715
      11     H     0.44476  0.44476  0.00000  0.11048
      12     H     0.45981  0.45981  0.00000  0.08038
      13     C     3.14986  3.14986  0.00000 -0.29971
      14     H     0.45416  0.45416  0.00000  0.09169
      15     H     0.45683  0.45683  0.00000  0.08634
      16     H     0.45445  0.45445  0.00000  0.09109
      17     H     0.44928  0.44928  0.00000  0.10144
      18     H     0.45609  0.45609  0.00000  0.08782

   Total alpha = 25.00000, Total beta = 25.00000, Total charge =  0.00000

*** Psi4 exiting successfully. Buy a developer a beer!
