  ==> Input File <==

--------------------------------------------------------------------------
set {
	reference rhf
	basis cc-pvtz
}

set_num_threads( 4 )
memory 2 gb

molecule MOL {
0 1

H	 1.605571	 -0.342236	 -2.574609
C	 0.876774	 -0.533475	 -1.797716
C	 1.322304	 0.099773	 -0.484271
H	 -0.073621	 -0.129441	 -2.127679
H	 0.769288	 -1.607908	 -1.700860
C	 0.308557	 -0.162619	 0.622645
H	 1.439391	 1.169362	 -0.606757
H	 2.282174	 -0.301634	 -0.183503
N	 -1.069352	 -0.004081	 0.085342
H	 0.371632	 -1.172932	 0.991288
H	 0.400391	 0.548875	 1.426218
O	 -1.584901	 -0.965470	 -0.377818
O	 -1.548033	 1.079343	 0.130056

	symmetry c1
}
set optking {
	frozen_dihedral = ("
		7 3 6 9
	")
}

ee = optimize('scf')
oeprop('DIPOLE', 'QUADRUPOLE', 'MULLIKEN_CHARGES')
f=open( 'psi4out.xyz', 'w' )
f.write( "13  " )
f.write( str(ee) + "\n" )
f.write( MOL.save_string_xyz() )
f.close()
--------------------------------------------------------------------------

    Molecular point group: c1
  Charge       = 0
  Multiplicity = 1
  Basis Set: CC-PVTZ
  Basis Set:
  @DF-RHF Final Energy:  -321.85584616197212
    Total Energy =                       -321.8558461619721811
    Molecular point group: c1
  Basis Set: CC-PVTZ
  Basis Set:
  Basis Set: CC-PVTZ
  Basis Set:
  @DF-RHF Final Energy:  -321.85583628154137
    Total Energy =                       -321.8558362815412011
  Basis Set: CC-PVTZ
  Basis Set:
  Basis Set: CC-PVTZ
  Basis Set:
  @DF-RHF Final Energy:  -321.85724165492684
    Total Energy =                       -321.8572416549268382
  Basis Set: CC-PVTZ
  Basis Set:
  Basis Set: CC-PVTZ
  Basis Set:
  @DF-RHF Final Energy:  -321.85919522075216
    Total Energy =                       -321.8591952207522127
  Basis Set: CC-PVTZ
  Basis Set:
  @DF-RHF Final Energy:  -321.85951765323387
    Total Energy =                       -321.8595176532337518
  @DF-RHF Final Energy:  -321.85966670037078
    Total Energy =                       -321.8596667003705534
  Basis Set: CC-PVTZ
  Basis Set:
  @DF-RHF Final Energy:  -321.85979776259825
    Total Energy =                       -321.8597977625983617
  Basis Set: CC-PVTZ
  Basis Set:
  Basis Set: CC-PVTZ
  Basis Set:
  @DF-RHF Final Energy:  -321.85984315209350
    Total Energy =                       -321.8598431520933900
  Basis Set: CC-PVTZ
  Basis Set:
  Basis Set: CC-PVTZ
  Basis Set:
  @DF-RHF Final Energy:  -321.85984485382011
    Total Energy =                       -321.8598448538201637
  Basis Set: CC-PVTZ
  Basis Set:
  Charge       = 0
  Multiplicity = 1
  Basis Set: CC-PVTZ
  Basis Set:

    Orbital Energies (a.u.)
    -----------------------

    Doubly Occupied:

       1A    -20.593203     2A    -20.588666     3A    -15.836727
       4A    -11.297527     5A    -11.253393     6A    -11.228848
       7A     -1.636423     8A     -1.420633     9A     -1.132003
      10A     -1.021420    11A     -0.896359    12A     -0.822796
      13A     -0.757724    14A     -0.740802    15A     -0.729334
      16A     -0.659154    17A     -0.613159    18A     -0.592282
      19A     -0.535553    20A     -0.519581    21A     -0.510724
      22A     -0.485565    23A     -0.475095    24A     -0.454365

  @DF-RHF Final Energy:  -321.85984497862887

   => Energetics <=

    Nuclear Repulsion Energy =            254.3951295312872389
    One-Electron Energy =                -942.9072804311408618
    Two-Electron Energy =                 366.6523059212246949
    DFT Exchange-Correlation Energy =       0.0000000000000000
    Empirical Dispersion Energy =           0.0000000000000000
    PCM Polarization Energy =               0.0000000000000000
    EFP Energy =                            0.0000000000000000
    Total Energy =                       -321.8598449786289279
    Molecular point group: c1
  Basis Set: CC-PVTZ
  Basis Set:

  -Total Gradient:
     Atom            X                  Y                   Z
    ------   -----------------  -----------------  -----------------
       1        0.000004293012     0.000000814716    -0.000003066761
       2       -0.000014979476    -0.000003148774     0.000009294373
       3       -0.004163588844    -0.000872896199    -0.003920007233
       4        0.000011671761    -0.000001535556     0.000002185293
       5        0.000000682122     0.000001700362    -0.000002358216
       6        0.000917449834     0.004185194904     0.001979038353
       7        0.003336039532    -0.000183397427     0.002889938800
       8       -0.000002359036    -0.000000973479    -0.000000953243
       9       -0.000118966037    -0.003205172061    -0.000960684911
      10       -0.000001262449    -0.000001759806    -0.000001396401
      11        0.000001982777    -0.000003404190    -0.000000385206
      12        0.000030124321     0.000052059448     0.000006220728
      13       -0.000001087522     0.000032518064     0.000002174422

  **** Optimization is complete! (in 10 steps) ****
    Final optimized geometry and variables:
    Molecular point group: c1

    Geometry (in Angstrom), charge = 0, multiplicity = 1:

    H            2.067422716323    -0.227983965642    -2.298639664072
    C            1.277333928929    -0.429385163196    -1.586770190968
    C            1.621833920961     0.194573469083    -0.239594299877
    H            0.358686252637    -0.024160681921    -1.991375124566
    H            1.164273971250    -1.504245902888    -1.506317577934
    C            0.635124327479    -0.114267131346     0.884142875531
    H            1.750621291747     1.265605541593    -0.320654586566
    H            2.576904000179    -0.191253856853     0.102250081607
    N           -0.772335473245     0.069162888289     0.432561770331
    H            0.698212901827    -1.139797318284     1.204931314356
    H            0.766232511514     0.553183607643     1.720632495753
    O           -1.451806236041    -0.895936135641     0.340521430160
    O           -1.114772403491     1.177215079159     0.182320425567

  Mulliken Charges: (a.u.)
   Center  Symbol    Alpha    Beta     Spin     Total
       1     H     0.44540  0.44540  0.00000  0.10920
       2     C     3.14778  3.14778  0.00000 -0.29555
       3     C     3.09583  3.09583  0.00000 -0.19166
       4     H     0.44341  0.44341  0.00000  0.11319
       5     H     0.44885  0.44885  0.00000  0.10230
       6     C     3.04706  3.04706  0.00000 -0.09412
       7     H     0.44015  0.44015  0.00000  0.11970
       8     H     0.44670  0.44670  0.00000  0.10661
       9     N     3.28076  3.28076  0.00000  0.43847
      10     H     0.43192  0.43192  0.00000  0.13615
      11     H     0.42857  0.42857  0.00000  0.14286
      12     O     4.16928  4.16928  0.00000 -0.33857
      13     O     4.17429  4.17429  0.00000 -0.34858

   Total alpha = 24.00000, Total beta = 24.00000, Total charge =  0.00000
