                              Psi4 1.0.54 Driver

  ==> Input File <==

--------------------------------------------------------------------------
set {
	reference rhf
	basis cc-pvtz
}

set_num_threads( 4 )
memory 2 gb

molecule MOL {
0 1

O	 1.460326	 1.966353	 0.413814
C	 0.581264	 2.067451	 1.199988
C	 -0.713721	 1.296922	 1.169346
O	 0.625282	 2.892113	 2.233627
C	 -0.824290	 0.329213	 -0.000115
H	 -0.800787	 0.778125	 2.118408
H	 -1.519240	 2.023827	 1.155563
C	 -2.146151	 -0.432825	 -0.000068
H	 0.003698	 -0.369700	 0.034947
H	 -0.715328	 0.877429	 -0.929027
C	 -3.366283	 0.483552	 0.000557
H	 -2.189286	 -1.084450	 -0.869996
H	 -2.188867	 -1.085083	 0.869399
C	 -4.687436	 -0.278003	 0.000108
H	 -3.325150	 1.134819	 -0.867957
H	 -3.325087	 1.133730	 0.869885
H	 -4.773783	 -0.912098	 -0.876078
H	 -5.531922	 0.401392	 0.000363
H	 -4.773901	 -0.912898	 0.875703
C	 1.788382	 3.680376	 2.385827
H	 2.660091	 3.054466	 2.506547
H	 1.631393	 4.274621	 3.271307
H	 1.930251	 4.320359	 1.527626

	symmetry c1
}
set optking {
	frozen_dihedral = ("
		9 5 8 12
	")
}

ee,wfn = optimize('scf', return_wfn=True)
oeprop( wfn, 'DIPOLE', 'QUADRUPOLE', 'MULLIKEN_CHARGES')
f=open( 'psi4out.xyz', 'w' )
f.write( "23  " )
f.write( str(ee) + "\n" )
f.write( MOL.save_string_xyz() )
f.close()
--------------------------------------------------------------------------

    Molecular point group: c1
  Charge       = 0
  Multiplicity = 1
  Basis Set: CC-PVTZ
  Basis Set:
  @DF-RHF Final Energy:  -423.12767624605578
    Total Energy =                       -423.1276762460557848
    Molecular point group: c1
  Basis Set: CC-PVTZ
  Basis Set:
  Basis Set: CC-PVTZ
  Basis Set:
  @DF-RHF Final Energy:  -423.12757501813803
    Total Energy =                       -423.1275750181383728
  Basis Set: CC-PVTZ
  Basis Set:
  Basis Set: CC-PVTZ
  Basis Set:
  @DF-RHF Final Energy:  -423.12895867513379
    Total Energy =                       -423.1289586751331626
  Basis Set: CC-PVTZ
  Basis Set:
  Basis Set: CC-PVTZ
  Basis Set:
  @DF-RHF Final Energy:  -423.12883656214973
    Total Energy =                       -423.1288365621498997
  Basis Set: CC-PVTZ
  Basis Set:
  Basis Set: CC-PVTZ
  Basis Set:
  @DF-RHF Final Energy:  -423.12895898227305
    Total Energy =                       -423.1289589822729340
  Basis Set: CC-PVTZ
  Basis Set:
  Basis Set: CC-PVTZ
  Basis Set:
  @DF-RHF Final Energy:  -423.12905400695985
    Total Energy =                       -423.1290540069602457
  Basis Set: CC-PVTZ
  Basis Set:
  Charge       = 0
  Multiplicity = 1
  Basis Set: CC-PVTZ
  Basis Set:

    Orbital Energies (a.u.)
    -----------------------

    Doubly Occupied:

       1A    -20.596091     2A    -20.533984     3A    -11.364386
       4A    -11.278349     5A    -11.233126     6A    -11.217512
       7A    -11.216726     8A    -11.215894     9A    -11.209146
      10A     -1.472027    11A     -1.365597    12A     -1.094846
      13A     -1.043047    14A     -0.988114    15A     -0.933670
      16A     -0.851503    17A     -0.792884    18A     -0.764595
      19A     -0.703040    20A     -0.685715    21A     -0.675840
      22A     -0.642111    23A     -0.618678    24A     -0.601630
      25A     -0.577758    26A     -0.558649    27A     -0.555894
      28A     -0.528857    29A     -0.521876    30A     -0.510066
      31A     -0.491959    32A     -0.468136    33A     -0.466206
      34A     -0.460990    35A     -0.453989    36A     -0.440521

  @DF-RHF Final Energy:  -423.12905441704083

   => Energetics <=

    Nuclear Repulsion Energy =            458.3836138150763873
    One-Electron Energy =               -1484.7585146726880794
    Two-Electron Energy =                 603.2458464405709719
    DFT Exchange-Correlation Energy =       0.0000000000000000
    Empirical Dispersion Energy =           0.0000000000000000
    PCM Polarization Energy =               0.0000000000000000
    EFP Energy =                            0.0000000000000000
    Total Energy =                       -423.1290544170407202
    Molecular point group: c1
  Basis Set: CC-PVTZ
  Basis Set:

  -Total Gradient:
     Atom            X                  Y                   Z
    ------   -----------------  -----------------  -----------------
       1        0.000001955249     0.000040880033     0.000052436410
       2       -0.000030413003    -0.000013539601    -0.000020150204
       3       -0.000004382233    -0.000030713136    -0.000014534631
       4        0.000043039172    -0.000025185217    -0.000044118588
       5       -0.000169620933     0.000294677799    -0.002543529051
       6       -0.000006170272     0.000004933290    -0.000006909903
       7       -0.000010055864     0.000012713520     0.000000489991
       8        0.001037705261    -0.001682307229     0.001567505861
       9       -0.000019668969    -0.000013220476     0.001913056486
      10       -0.000004377081    -0.000004631434     0.000006508065
      11        0.000009237971    -0.000009318834     0.000019077788
      12       -0.000870167698     0.001378919970    -0.000967513813
      13        0.000008187049     0.000014257841     0.000004525523
      14       -0.000003794236    -0.000006130793    -0.000002057556
      15        0.000015398257     0.000009262368     0.000003368468
      16       -0.000004432536     0.000003591876     0.000011755816
      17        0.000003353076    -0.000005425328    -0.000005538833
      18       -0.000005724168     0.000001942722    -0.000007864236
      19       -0.000006273667    -0.000002551328     0.000007810664
      20       -0.000008166679     0.000023115242     0.000026109661
      21       -0.000001096254    -0.000004476079    -0.000003060432
      22        0.000023716361     0.000014339619     0.000005120290
      23        0.000001751199    -0.000001134820    -0.000002487778

  **** Optimization is complete! (in 7 steps) ****
    Final optimized geometry and variables:
    Molecular point group: c1

    Geometry (in Angstrom), charge = 0, multiplicity = 1:

    O            2.272781191064     0.588737596623    -0.354900453545
    C            1.383695808146     0.714214197971     0.416305474719
    C            0.047976921151     0.019572023242     0.337090832713
    O            1.451106646487     1.504117921653     1.475822084749
    C           -0.082281127031    -0.905769383652    -0.867192643664
    H           -0.084148059838    -0.525937584736     1.266368603070
    H           -0.708370330602     0.794984544763     0.338577079154
    C           -1.377652408023    -1.718782646277    -0.888206453369
    H            0.759236237664    -1.587496217402    -0.857994786190
    H            0.003718860381    -0.323122978674    -1.777353136696
    C           -2.665282599633    -0.895072976127    -0.887863391490
    H           -1.371935320560    -2.330100878972    -1.785936667673
    H           -1.391077979742    -2.405678330926    -0.045343117846
    C           -3.912920261945    -1.755781646926    -1.059768943661
    H           -2.621186501952    -0.161392324068    -1.688897709920
    H           -2.751366422482    -0.333826304496     0.036799012325
    H           -3.888235986795    -2.297862753822    -1.999060164126
    H           -4.812097937678    -1.150604290532    -1.050435114773
    H           -3.997354024328    -2.485288616204    -0.260990335888
    C            2.652346067079     2.221294169759     1.675180338462
    H            3.485586057737     1.544443300360     1.792865567990
    H            2.510061823437     2.796279320687     2.575780687919
    H            2.847368105454     2.878194583185     0.840495168130

  Mulliken Charges: (a.u.)
   Center  Symbol    Alpha    Beta     Spin     Total
       1     O     4.19678  4.19678  0.00000 -0.39355
       2     C     2.80616  2.80616  0.00000  0.38768
       3     C     3.10231  3.10231  0.00000 -0.20463
       4     O     4.14707  4.14707  0.00000 -0.29414
       5     C     3.09220  3.09220  0.00000 -0.18441
       6     H     0.43963  0.43963  0.00000  0.12074
       7     H     0.43817  0.43817  0.00000  0.12366
       8     C     3.09882  3.09882  0.00000 -0.19765
       9     H     0.44002  0.44002  0.00000  0.11997
      10     H     0.44564  0.44564  0.00000  0.10873
      11     C     3.08910  3.08910  0.00000 -0.17820
      12     H     0.44687  0.44687  0.00000  0.10626
      13     H     0.45295  0.45295  0.00000  0.09409
      14     C     3.14974  3.14974  0.00000 -0.29948
      15     H     0.45270  0.45270  0.00000  0.09459
      16     H     0.45325  0.45325  0.00000  0.09351
      17     H     0.45369  0.45369  0.00000  0.09262
      18     H     0.44800  0.44800  0.00000  0.10400
      19     H     0.45496  0.45496  0.00000  0.09007
      20     C     3.03809  3.03809  0.00000 -0.07618
      21     H     0.45423  0.45423  0.00000  0.09154
      22     H     0.44524  0.44524  0.00000  0.10953
      23     H     0.45438  0.45438  0.00000  0.09124

   Total alpha = 36.00000, Total beta = 36.00000, Total charge = -0.00000

*** Psi4 exiting successfully. Buy a developer a beer!
