  ==> Input File <==

--------------------------------------------------------------------------
set {
	reference rhf
	basis cc-pvtz
}

set_num_threads( 4 )
memory 2 gb

molecule MOL {
0 1

H	 3.275156	 0.170528	 -0.046416
N	 2.434494	 -0.366464	 -0.023670
C	 1.263552	 0.494993	 0.021953
H	 2.479435	 -0.949893	 0.785605
C	 -0.016533	 -0.325589	 -0.026925
H	 1.300929	 1.150915	 -0.841392
H	 1.243886	 1.138132	 0.902845
C	 -1.280353	 0.525521	 0.047747
H	 -0.016686	 -0.912532	 -0.939714
H	 -0.014099	 -1.037598	 0.796369
C	 -2.560681	 -0.301323	 -0.007747
H	 -1.279957	 1.241025	 -0.770189
H	 -1.270445	 1.110526	 0.963468
H	 -2.617064	 -0.872870	 -0.928010
H	 -3.439525	 0.331102	 0.043462
H	 -2.609427	 -1.002736	 0.818585

	symmetry c1
}
set optking {
	frozen_dihedral = ("
		6 3 5 9
	")
}

ee = optimize('scf')
oeprop('DIPOLE', 'QUADRUPOLE', 'MULLIKEN_CHARGES')
f=open( 'psi4out.xyz', 'w' )
f.write( "16  " )
f.write( str(ee) + "\n" )
f.write( MOL.save_string_xyz() )
f.close()
--------------------------------------------------------------------------

    Molecular point group: c1
  Charge       = 0
  Multiplicity = 1
  Basis Set: CC-PVTZ
  Basis Set:
  @DF-RHF Final Energy:  -212.40030414640333
    Total Energy =                       -212.4003041464033004
    Molecular point group: c1
  Basis Set: CC-PVTZ
  Basis Set:
  Basis Set: CC-PVTZ
  Basis Set:
  @DF-RHF Final Energy:  -212.40030689546728
    Total Energy =                       -212.4003068954673381
  Basis Set: CC-PVTZ
  Basis Set:
  Charge       = 0
  Multiplicity = 1
  Basis Set: CC-PVTZ
  Basis Set:

    Orbital Energies (a.u.)
    -----------------------

    Doubly Occupied:

       1A    -15.526478     2A    -11.238097     3A    -11.212911
       4A    -11.207949     5A    -11.205866     6A     -1.178245
       7A     -1.060838     8A     -0.959747     9A     -0.844173
      10A     -0.792294    11A     -0.665991    12A     -0.637786
      13A     -0.607248    14A     -0.576481    15A     -0.564983
      16A     -0.526014    17A     -0.500734    18A     -0.470360
      19A     -0.465572    20A     -0.462371    21A     -0.383992

  @DF-RHF Final Energy:  -212.40030766377777

   => Energetics <=

    Nuclear Repulsion Energy =            186.5723478593897653
    One-Electron Energy =                -655.7690467206300582
    Two-Electron Energy =                 256.7963911974625262
    DFT Exchange-Correlation Energy =       0.0000000000000000
    Empirical Dispersion Energy =           0.0000000000000000
    PCM Polarization Energy =               0.0000000000000000
    EFP Energy =                            0.0000000000000000
    Total Energy =                       -212.4003076637777667
    Molecular point group: c1
  Basis Set: CC-PVTZ
  Basis Set:

  -Total Gradient:
     Atom            X                  Y                   Z
    ------   -----------------  -----------------  -----------------
       1        0.000006989142    -0.000006162677     0.000001480975
       2       -0.000026419131     0.000020167321     0.000008639370
       3       -0.000334562539     0.000500888884     0.000259322039
       4        0.000009295067    -0.000012113757     0.000001136437
       5        0.000338828493    -0.000510393620     0.000237137886
       6        0.000225236125    -0.000347701050    -0.000275110916
       7        0.000003088076     0.000009402728     0.000018117217
       8        0.000018259977    -0.000022093190    -0.000009079258
       9       -0.000233479653     0.000367407998    -0.000251280340
      10       -0.000001420695    -0.000006239572     0.000008946375
      11       -0.000003931835     0.000003245980     0.000002282533
      12       -0.000003872483    -0.000000821190    -0.000001244234
      13       -0.000000793542     0.000001388542    -0.000002661957
      14        0.000002141230     0.000003836372     0.000000606539
      15       -0.000000894955     0.000000597722     0.000002127438
      16        0.000001536720    -0.000001410491    -0.000000420102

  **** Optimization is complete! (in 3 steps) ****
    Final optimized geometry and variables:
    Molecular point group: c1

    Geometry (in Angstrom), charge = 0, multiplicity = 1:

    H            3.274885452658     0.170790201946    -0.068328471779
    N            2.434175543552    -0.365842010697    -0.038930811358
    C            1.263449629729     0.495784883220     0.012406651627
    H            2.484451984737    -0.947782709593     0.771088891208
    C           -0.016267619541    -0.325703281323    -0.034228630704
    H            1.298711161519     1.150645187900    -0.851805769420
    H            1.247191926321     1.137906257616     0.894052183978
    C           -1.280108553974     0.525970328814     0.035891026202
    H           -0.017324024147    -0.913554369613    -0.946403564547
    H           -0.014769866045    -1.034959810153     0.791230361032
    C           -2.560473626806    -0.300521648043    -0.022813813452
    H           -1.277149152662     1.241002708625    -0.782516641556
    H           -1.272702117142     1.111447315140     0.951274783421
    H           -2.615704610463    -0.870489227025    -0.944120772273
    H           -3.439308332416     0.331968461566     0.028309143238
    H           -2.610398499584    -1.003348291844     0.802260620477

  Mulliken Charges: (a.u.)
   Center  Symbol    Alpha    Beta     Spin     Total
       1     H     0.43014  0.43014  0.00000  0.13972
       2     N     3.68953  3.68953  0.00000 -0.37907
       3     C     3.02622  3.02622  0.00000 -0.05245
       4     H     0.43092  0.43092  0.00000  0.13817
       5     C     3.07952  3.07952  0.00000 -0.15905
       6     H     0.45691  0.45691  0.00000  0.08617
       7     H     0.46888  0.46888  0.00000  0.06223
       8     C     3.08859  3.08859  0.00000 -0.17718
       9     H     0.44963  0.44963  0.00000  0.10075
      10     H     0.46067  0.46067  0.00000  0.07867
      11     C     3.14928  3.14928  0.00000 -0.29857
      12     H     0.45484  0.45484  0.00000  0.09032
      13     H     0.45643  0.45643  0.00000  0.08714
      14     H     0.45418  0.45418  0.00000  0.09163
      15     H     0.44879  0.44879  0.00000  0.10243
      16     H     0.45546  0.45546  0.00000  0.08908

   Total alpha = 21.00000, Total beta = 21.00000, Total charge =  0.00000
