  ==> Input File <==

--------------------------------------------------------------------------
set {
	reference rhf
	basis 6-31G*
}

set_num_threads( 1 )
memory 2 gb

molecule MOL {
0 1

H	 1.027345	 0.392860	 -4.223926
O	 1.968817	 0.357679	 -4.137529
C	 2.411801	 1.428493	 -3.343063
C	 2.081818	 1.256704	 -1.864440
H	 3.485324	 1.468933	 -3.475677
H	 2.005088	 2.369745	 -3.711044
C	 0.581925	 1.234787	 -1.559961
H	 2.538880	 0.334958	 -1.513947
H	 2.550390	 2.071892	 -1.315552
C	 0.284177	 1.115699	 -0.062636
H	 0.122381	 0.404198	 -2.088455
H	 0.121063	 2.144786	 -1.944473
C	 -1.203017	 1.175100	 0.304878
H	 0.711309	 0.188302	 0.314644
H	 0.799748	 1.920094	 0.457783
C	 -2.037799	 -0.007733	 -0.193645
H	 -1.285448	 1.225220	 1.388625
H	 -1.629912	 2.102766	 -0.073318
C	 -3.489788	 0.042957	 0.286558
H	 -1.581078	 -0.937036	 0.143864
H	 -2.028448	 -0.040790	 -1.280439
C	 -4.216917	 1.317354	 -0.141063
H	 -4.025645	 -0.823308	 -0.095450
H	 -3.513059	 -0.038752	 1.371301
H	 -4.239342	 1.411634	 -1.223113
H	 -5.243387	 1.322503	 0.212445
H	 -3.726170	 2.201406	 0.256408

	symmetry c1
}
set optking {
	frozen_dihedral = ("
		14 10 7 4,
		14 10 13 16,
		10 7 4 8,
		8 4 3 2,
		10 13 16 20,
		4 3 2 1
	")
}

ee = energy('scf')
oeprop('DIPOLE', 'QUADRUPOLE', 'MULLIKEN_CHARGES')
f=open( 'psi4out.xyz', 'w' )
f.write( "27  " )
f.write( str(ee) + "\n" )
f.write( MOL.save_string_xyz() )
f.close()
--------------------------------------------------------------------------

    Molecular point group: c1

    Geometry (in Angstrom), charge = 0, multiplicity = 1:

       Center              X                  Y                   Z               Mass
    ------------   -----------------  -----------------  -----------------  -----------------
           H          1.408349828491    -0.485756595927    -2.979136192063     1.007825032070
           O          2.349821828491    -0.520937595927    -2.892739192063    15.994914619560
           C          2.792805828491     0.549876404073    -2.098273192063    12.000000000000
           C          2.462822828491     0.378087404073    -0.619650192063    12.000000000000
           H          3.866328828491     0.590316404073    -2.230887192063     1.007825032070
           H          2.386092828491     1.491128404073    -2.466254192063     1.007825032070
           C          0.962929828491     0.356170404073    -0.315171192063    12.000000000000
           H          2.919884828491    -0.543658595927    -0.269157192063     1.007825032070
           H          2.931394828491     1.193275404073    -0.070762192063     1.007825032070
           C          0.665181828491     0.237082404073     1.182153807937    12.000000000000
           H          0.503385828491    -0.474418595927    -0.843665192063     1.007825032070
           H          0.502067828491     1.266169404073    -0.699683192063     1.007825032070
           C         -0.822012171509     0.296483404073     1.549667807937    12.000000000000
           H          1.092313828491    -0.690314595927     1.559433807937     1.007825032070
           H          1.180752828491     1.041477404073     1.702572807937     1.007825032070
           C         -1.656794171509    -0.886349595927     1.051144807937    12.000000000000
           H         -0.904443171509     0.346603404073     2.633414807937     1.007825032070
           H         -1.248907171509     1.224149404073     1.171471807937     1.007825032070
           C         -3.108783171509    -0.835659595927     1.531347807937    12.000000000000
           H         -1.200073171509    -1.815652595927     1.388653807937     1.007825032070
           H         -1.647443171509    -0.919406595927    -0.035649192063     1.007825032070
           C         -3.835912171509     0.438737404073     1.103726807937    12.000000000000
           H         -3.644640171509    -1.701924595927     1.149339807937     1.007825032070
           H         -3.132054171509    -0.917368595927     2.616090807937     1.007825032070
           H         -3.858337171509     0.533017404073     0.021676807937     1.007825032070
           H         -4.862382171509     0.443886404073     1.457234807937     1.007825032070
           H         -3.345165171509     1.322789404073     1.501197807937     1.007825032070

  Charge       = 0
  Multiplicity = 1
  Basis Set: 6-31G*
  Basis Set:

    Orbital Energies (a.u.)
    -----------------------

    Doubly Occupied:

       1A    -20.552258     2A    -11.267022     3A    -11.219743
       4A    -11.217161     5A    -11.216168     6A    -11.215167
       7A    -11.215079     8A    -11.214275     9A    -11.209037
      10A     -1.359003    11A     -1.096226    12A     -1.062254
      13A     -1.009004    14A     -0.945909    15A     -0.893340
      16A     -0.828747    17A     -0.799550    18A     -0.768366
      19A     -0.693613    20A     -0.650698    21A     -0.630544
      22A     -0.614220    23A     -0.611855    24A     -0.590268
      25A     -0.579456    26A     -0.555875    27A     -0.535067
      28A     -0.524533    29A     -0.514555    30A     -0.494630
      31A     -0.483287    32A     -0.476569    33A     -0.469611
      34A     -0.455968    35A     -0.449463    36A     -0.442474
      37A     -0.423057

  @DF-RHF Final Energy:  -388.27915610710454

   => Energetics <=

    Nuclear Repulsion Energy =            464.6092682831130105
    One-Electron Energy =               -1447.2087316912329698
    Two-Electron Energy =                 594.3203073010143953
    DFT Exchange-Correlation Energy =       0.0000000000000000
    Empirical Dispersion Energy =           0.0000000000000000
    PCM Polarization Energy =               0.0000000000000000
    EFP Energy =                            0.0000000000000000
    Total Energy =                       -388.2791561071055639

  Mulliken Charges: (a.u.)
   Center  Symbol    Alpha    Beta     Spin     Total
       1     H     0.27991  0.27991  0.00000  0.44017
       2     O     4.37095  4.37095  0.00000 -0.74190
       3     C     2.99736  2.99736  0.00000  0.00527
       4     C     3.16095  3.16095  0.00000 -0.32190
       5     H     0.41445  0.41445  0.00000  0.17111
       6     H     0.43205  0.43205  0.00000  0.13589
       7     C     3.16329  3.16329  0.00000 -0.32657
       8     H     0.41495  0.41495  0.00000  0.17009
       9     H     0.42435  0.42435  0.00000  0.15130
      10     C     3.15106  3.15106  0.00000 -0.30212
      11     H     0.42289  0.42289  0.00000  0.15422
      12     H     0.42548  0.42548  0.00000  0.14904
      13     C     3.15728  3.15728  0.00000 -0.31455
      14     H     0.42184  0.42184  0.00000  0.15632
      15     H     0.42167  0.42167  0.00000  0.15666
      16     C     3.15356  3.15356  0.00000 -0.30712
      17     H     0.42162  0.42162  0.00000  0.15676
      18     H     0.42148  0.42148  0.00000  0.15704
      19     C     3.15208  3.15208  0.00000 -0.30416
      20     H     0.42150  0.42150  0.00000  0.15700
      21     H     0.42412  0.42412  0.00000  0.15176
      22     C     3.24291  3.24291  0.00000 -0.48582
      23     H     0.42052  0.42052  0.00000  0.15895
      24     H     0.42299  0.42299  0.00000  0.15402
      25     H     0.42292  0.42292  0.00000  0.15415
      26     H     0.41869  0.41869  0.00000  0.16262
      27     H     0.41912  0.41912  0.00000  0.16176

   Total alpha = 37.00000, Total beta = 37.00000, Total charge = -0.00000
