  ==> Input File <==

--------------------------------------------------------------------------
set {
	reference rhf
	basis cc-pvtz
}

set_num_threads( 4 )
memory 2 gb

molecule MOL {
0 1

H	 1.736015	 -0.537015	 -2.501316
C	 1.008245	 -0.730361	 -1.723982
C	 1.322304	 0.099773	 -0.484271
H	 0.027924	 -0.491319	 -2.120464
H	 1.031728	 -1.791695	 -1.504076
C	 0.308557	 -0.162619	 0.622645
H	 1.309899	 1.154650	 -0.728837
H	 2.312781	 -0.138787	 -0.116870
N	 -1.069352	 -0.004081	 0.085342
H	 0.371632	 -1.172932	 0.991288
H	 0.400391	 0.548875	 1.426218
O	 -1.584901	 -0.965470	 -0.377818
O	 -1.548033	 1.079343	 0.130056

	symmetry c1
}
set optking {
	frozen_dihedral = ("
		7 3 6 9
	")
}

ee = optimize('scf')
oeprop('DIPOLE', 'QUADRUPOLE', 'MULLIKEN_CHARGES')
f=open( 'psi4out.xyz', 'w' )
f.write( "13  " )
f.write( str(ee) + "\n" )
f.write( MOL.save_string_xyz() )
f.close()
--------------------------------------------------------------------------

    Molecular point group: c1
  Charge       = 0
  Multiplicity = 1
  Basis Set: CC-PVTZ
  Basis Set:
  @DF-RHF Final Energy:  -321.85757960092189
    Total Energy =                       -321.8575796009217811
    Molecular point group: c1
  Basis Set: CC-PVTZ
  Basis Set:
  Basis Set: CC-PVTZ
  Basis Set:
  @DF-RHF Final Energy:  -321.85877236210320
    Total Energy =                       -321.8587723621031955
  Basis Set: CC-PVTZ
  Basis Set:
  Basis Set: CC-PVTZ
  Basis Set:
  @DF-RHF Final Energy:  -321.85987596139938
    Total Energy =                       -321.8598759613993252
  Basis Set: CC-PVTZ
  Basis Set:
  Basis Set: CC-PVTZ
  Basis Set:
  @DF-RHF Final Energy:  -321.86022414060517
    Total Energy =                       -321.8602241406052826
  Basis Set: CC-PVTZ
  Basis Set:
  @DF-RHF Final Energy:  -321.86039820711039
    Total Energy =                       -321.8603982071102791
  @DF-RHF Final Energy:  -321.86053973696903
    Total Energy =                       -321.8605397369688603
  @DF-RHF Final Energy:  -321.86080336787495
    Total Energy =                       -321.8608033678748939
  Basis Set: CC-PVTZ
  Basis Set:
  @DF-RHF Final Energy:  -321.86094600155485
    Total Energy =                       -321.8609460015549075
  Basis Set: CC-PVTZ
  Basis Set:
  Basis Set: CC-PVTZ
  Basis Set:
  @DF-RHF Final Energy:  -321.86096996145932
    Total Energy =                       -321.8609699614592046
  Basis Set: CC-PVTZ
  Basis Set:
  Basis Set: CC-PVTZ
  Basis Set:
  @DF-RHF Final Energy:  -321.86097367367483
    Total Energy =                       -321.8609736736749483
  Basis Set: CC-PVTZ
  Basis Set:
  Charge       = 0
  Multiplicity = 1
  Basis Set: CC-PVTZ
  Basis Set:

    Orbital Energies (a.u.)
    -----------------------

    Doubly Occupied:

       1A    -20.593208     2A    -20.588883     3A    -15.836966
       4A    -11.297593     5A    -11.252586     6A    -11.229191
       7A     -1.636574     8A     -1.420773     9A     -1.132568
      10A     -1.021367    11A     -0.895591    12A     -0.823037
      13A     -0.759274    14A     -0.741588    15A     -0.729396
      16A     -0.655384    17A     -0.616219    18A     -0.593727
      19A     -0.533742    20A     -0.519210    21A     -0.511693
      22A     -0.486860    23A     -0.475077    24A     -0.454443

  @DF-RHF Final Energy:  -321.86097394899252

   => Energetics <=

    Nuclear Repulsion Energy =            253.9289950763538570
    One-Electron Energy =                -941.9700393131013243
    Two-Electron Energy =                 366.1800702877549725
    DFT Exchange-Correlation Energy =       0.0000000000000000
    Empirical Dispersion Energy =           0.0000000000000000
    PCM Polarization Energy =               0.0000000000000000
    EFP Energy =                            0.0000000000000000
    Total Energy =                       -321.8609739489924664
    Molecular point group: c1
  Basis Set: CC-PVTZ
  Basis Set:

  -Total Gradient:
     Atom            X                  Y                   Z
    ------   -----------------  -----------------  -----------------
       1       -0.000003194778    -0.000004915307    -0.000008242533
       2       -0.000000407529    -0.000001491509    -0.000007445786
       3       -0.001981219054    -0.000899053777    -0.002000602038
       4        0.000003955374     0.000000066736    -0.000000191824
       5        0.000000749312     0.000003135741     0.000001496071
       6        0.000438675685     0.002178115621     0.000968604266
       7        0.001589774912     0.000282823117     0.001498818710
       8        0.000007531857     0.000002384017    -0.000001136913
       9       -0.000015396882    -0.001650809847    -0.000430289635
      10        0.000000983887    -0.000003195890     0.000002734261
      11       -0.000008167800     0.000000121889     0.000005490964
      12        0.000003135381     0.000071163512    -0.000014638867
      13       -0.000036420365     0.000021655696    -0.000014596678

  **** Optimization is complete! (in 11 steps) ****
    Final optimized geometry and variables:
    Molecular point group: c1

    Geometry (in Angstrom), charge = 0, multiplicity = 1:

    H            2.157545333998    -0.361030640821    -2.231570124765
    C            1.378407891114    -0.580371962606    -1.512872350866
    C            1.605913229835     0.217707023184    -0.234030639681
    H            0.429188968360    -0.334468440302    -1.972495385125
    H            1.391242155810    -1.646954727944    -1.319671680568
    C            0.610153086456    -0.084099001724     0.878550365897
    H            1.603609628013     1.280557878483    -0.434543232102
    H            2.584018805834    -0.015697628371     0.173467424983
    N           -0.792659543169     0.101332170145     0.410383271059
    H            0.669555510961    -1.104748756032     1.215347543439
    H            0.729847079432     0.594959317490     1.708276796329
    O           -1.497233268534    -0.850022791723     0.390862979433
    O           -1.108211975107     1.196508525990     0.081611048181

  Mulliken Charges: (a.u.)
   Center  Symbol    Alpha    Beta     Spin     Total
       1     H     0.44522  0.44522  0.00000  0.10955
       2     C     3.14594  3.14594  0.00000 -0.29187
       3     C     3.09776  3.09776  0.00000 -0.19551
       4     H     0.44426  0.44426  0.00000  0.11148
       5     H     0.45092  0.45092  0.00000  0.09817
       6     C     3.04853  3.04853  0.00000 -0.09707
       7     H     0.43848  0.43848  0.00000  0.12303
       8     H     0.44572  0.44572  0.00000  0.10857
       9     N     3.28064  3.28064  0.00000  0.43871
      10     H     0.43150  0.43150  0.00000  0.13701
      11     H     0.42827  0.42827  0.00000  0.14346
      12     O     4.16847  4.16847  0.00000 -0.33693
      13     O     4.17429  4.17429  0.00000 -0.34858

   Total alpha = 24.00000, Total beta = 24.00000, Total charge = -0.00000
