                              Psi4 1.0.54 Driver

  ==> Input File <==

--------------------------------------------------------------------------
set {
	reference rhf
	basis cc-pvtz
}

set_num_threads( 4 )
memory 2 gb

molecule MOL {
0 1

H	 0.595114	 -2.203412	 0.053990
C	 0.276961	 -1.378043	 0.680651
N	 0.526300	 -0.128137	 0.000000
H	 0.853898	 -1.419282	 1.595792
H	 -0.773658	 -1.538955	 0.931405
C	 -0.247113	 0.037112	 -1.209233
H	 0.357801	 0.635310	 0.618398
H	 -0.996493	 -0.743733	 -1.271440
H	 0.397975	 -0.057351	 -2.073512
H	 -0.763794	 0.997171	 -1.271673

	symmetry c1
}
set optking {
	frozen_dihedral = ("
		2 3 6 8
	")
}

ee,wfn = optimize('scf', return_wfn=True)
oeprop( wfn, 'DIPOLE', 'QUADRUPOLE', 'MULLIKEN_CHARGES')
f=open( 'psi4out.xyz', 'w' )
f.write( "10  " )
f.write( str(ee) + "\n" )
f.write( MOL.save_string_xyz() )
f.close()
--------------------------------------------------------------------------

    Molecular point group: c1
  Charge       = 0
  Multiplicity = 1
  Basis Set: CC-PVTZ
  Basis Set:
  @DF-RHF Final Energy:  -134.28801879891617
    Total Energy =                       -134.2880187989162835
    Molecular point group: c1
  Basis Set: CC-PVTZ
  Basis Set:
  Basis Set: CC-PVTZ
  Basis Set:
  @DF-RHF Final Energy:  -134.28857621356713
    Total Energy =                       -134.2885762135672394
  Basis Set: CC-PVTZ
  Basis Set:
  Basis Set: CC-PVTZ
  Basis Set:
  @DF-RHF Final Energy:  -134.28869365497519
    Total Energy =                       -134.2886936549751908
  Basis Set: CC-PVTZ
  Basis Set:
  Charge       = 0
  Multiplicity = 1
  Basis Set: CC-PVTZ
  Basis Set:

    Orbital Energies (a.u.)
    -----------------------

    Doubly Occupied:

       1A    -15.530281     2A    -11.234445     3A    -11.234044
       4A     -1.197039     5A     -0.948151     6A     -0.854984
       7A     -0.660733     8A     -0.611262     9A     -0.589435
      10A     -0.544927    11A     -0.509516    12A     -0.505869
      13A     -0.360679

  @DF-RHF Final Energy:  -134.28869470782899

   => Energetics <=

    Nuclear Repulsion Energy =             84.4988256917038285
    One-Electron Energy =                -348.0123103685099295
    Two-Electron Energy =                 129.2247899689771486
    DFT Exchange-Correlation Energy =       0.0000000000000000
    Empirical Dispersion Energy =           0.0000000000000000
    PCM Polarization Energy =               0.0000000000000000
    EFP Energy =                            0.0000000000000000
    Total Energy =                       -134.2886947078289666
    Molecular point group: c1
  Basis Set: CC-PVTZ
  Basis Set:

  -Total Gradient:
     Atom            X                  Y                   Z
    ------   -----------------  -----------------  -----------------
       1       -0.000003710987     0.000041173177    -0.000011458404
       2       -0.001550787245     0.000806990204     0.001060133548
       3        0.002643034323    -0.001578497646    -0.001850618970
       4        0.000006380526     0.000016095121    -0.000009475218
       5        0.000007922212     0.000010221808    -0.000003211348
       6       -0.002837528127     0.002156519567     0.002102280739
       7        0.000015563756    -0.000021276918     0.000013716509
       8        0.001756917613    -0.001449204791    -0.001294636004
       9       -0.000011102737     0.000015514822     0.000002140813
      10       -0.000026689335     0.000002464655    -0.000008871667

  **** Optimization is complete! (in 4 steps) ****
    Final optimized geometry and variables:
    Molecular point group: c1

    Geometry (in Angstrom), charge = 0, multiplicity = 1:

    H            0.492431940646    -1.703894570624     0.248795489000
    C            0.132902154191    -0.886362018197     0.863116859484
    N            0.341830379557     0.370402292665     0.180120962848
    H            0.700887427739    -0.898345303652     1.784948549583
    H           -0.912784648730    -1.087120325343     1.102964460174
    C           -0.412908876096     0.526541787660    -1.053202497531
    H            0.141764556644     1.121973065906     0.800366222361
    H           -1.152177114475    -0.259746677176    -1.180751230622
    H            0.243759543937     0.486395511812    -1.916083902315
    H           -0.929400663670     1.478556946534    -1.079586209206

  Mulliken Charges: (a.u.)
   Center  Symbol    Alpha    Beta     Spin     Total
       1     H     0.45640  0.45640  0.00000  0.08720
       2     C     3.08335  3.08335  0.00000 -0.16670
       3     N     3.63129  3.63129  0.00000 -0.26258
       4     H     0.45314  0.45314  0.00000  0.09372
       5     H     0.47379  0.47379  0.00000  0.05242
       6     C     3.07651  3.07651  0.00000 -0.15303
       7     H     0.44071  0.44071  0.00000  0.11857
       8     H     0.46920  0.46920  0.00000  0.06160
       9     H     0.45634  0.45634  0.00000  0.08732
      10     H     0.45927  0.45927  0.00000  0.08146

   Total alpha = 13.00000, Total beta = 13.00000, Total charge =  0.00000

*** Psi4 exiting successfully. Buy a developer a beer!
