                              Psi4 1.0.54 Driver

  ==> Input File <==

--------------------------------------------------------------------------
set {
	reference rhf
	basis cc-pvtz
}

set_num_threads( 4 )
memory 2 gb

molecule MOL {
0 1

H	 -2.185710	 1.832612	 2.645067
O	 -1.385771	 1.329765	 2.676061
C	 -0.921581	 1.200206	 1.436433
C	 0.355689	 0.405696	 1.399478
O	 -1.479372	 1.666441	 0.503983
C	 0.926581	 0.227233	 0.000178
H	 0.149582	 -0.551816	 1.866830
H	 1.062246	 0.906884	 2.053163
C	 2.220156	 -0.582071	 -0.000088
H	 0.188610	 -0.258840	 -0.627967
H	 1.102400	 1.201656	 -0.441421
C	 3.466689	 0.296012	 -0.000457
H	 2.239073	 -1.234095	 -0.869382
H	 2.239505	 -1.233985	 0.869270
H	 3.493549	 0.935857	 -0.875887
H	 4.368821	 -0.304526	 -0.001199
H	 3.494559	 0.935166	 0.875458

	symmetry c1
}
set optking {
	frozen_dihedral = ("
		10 6 9 13
	")
}

ee,wfn = optimize('scf', return_wfn=True)
oeprop( wfn, 'DIPOLE', 'QUADRUPOLE', 'MULLIKEN_CHARGES')
f=open( 'psi4out.xyz', 'w' )
f.write( "17  " )
f.write( str(ee) + "\n" )
f.write( MOL.save_string_xyz() )
f.close()
--------------------------------------------------------------------------

    Molecular point group: c1
  Charge       = 0
  Multiplicity = 1
  Basis Set: CC-PVTZ
  Basis Set:
  @DF-RHF Final Energy:  -345.04456788784040
    Total Energy =                       -345.0445678878404578
    Molecular point group: c1
  Basis Set: CC-PVTZ
  Basis Set:
  Basis Set: CC-PVTZ
  Basis Set:
  @DF-RHF Final Energy:  -345.04488297904169
    Total Energy =                       -345.0448829790416312
  Basis Set: CC-PVTZ
  Basis Set:
  Basis Set: CC-PVTZ
  Basis Set:
  @DF-RHF Final Energy:  -345.04467847845370
    Total Energy =                       -345.0446784784534202
  Basis Set: CC-PVTZ
  Basis Set:
  Basis Set: CC-PVTZ
  Basis Set:
  @DF-RHF Final Energy:  -345.04494360535841
    Total Energy =                       -345.0449436053584122
  Basis Set: CC-PVTZ
  Basis Set:
  Charge       = 0
  Multiplicity = 1
  Basis Set: CC-PVTZ
  Basis Set:

    Orbital Energies (a.u.)
    -----------------------

    Doubly Occupied:

       1A    -20.604202     2A    -20.540839     3A    -11.373711
       4A    -11.239838     5A    -11.221058     6A    -11.220464
       7A    -11.212568     8A     -1.477702     9A     -1.369278
      10A     -1.091769    11A     -1.018211    12A     -0.917050
      13A     -0.829427    14A     -0.786970    15A     -0.703923
      16A     -0.692432    17A     -0.667092    18A     -0.618521
      19A     -0.611814    20A     -0.588334    21A     -0.564041
      22A     -0.535440    23A     -0.525168    24A     -0.484779
      25A     -0.478886    26A     -0.476300    27A     -0.468469
      28A     -0.446239

  @DF-RHF Final Energy:  -345.04494671540510

   => Energetics <=

    Nuclear Repulsion Energy =            306.8060013704397306
    One-Electron Energy =               -1078.1728416731687048
    Two-Electron Energy =                 426.3218935873240412
    DFT Exchange-Correlation Energy =       0.0000000000000000
    Empirical Dispersion Energy =           0.0000000000000000
    PCM Polarization Energy =               0.0000000000000000
    EFP Energy =                            0.0000000000000000
    Total Energy =                       -345.0449467154049330
    Molecular point group: c1
  Basis Set: CC-PVTZ
  Basis Set:

  -Total Gradient:
     Atom            X                  Y                   Z
    ------   -----------------  -----------------  -----------------
       1       -0.000043198891     0.000026496307     0.000020293026
       2        0.000033565484    -0.000006088701     0.000069549838
       3        0.000036021950    -0.000102316122     0.000054061703
       4        0.000013793860     0.000032067916     0.000079130756
       5       -0.000036601972     0.000061919610    -0.000154587388
       6       -0.001777177625    -0.002885425077     0.003928983276
       7       -0.000004111079    -0.000007698170    -0.000004687826
       8        0.000007113482    -0.000010857402    -0.000000682873
       9        0.002191957241     0.003500092197    -0.003082636882
      10        0.001149062680     0.001892560733    -0.002847747935
      11       -0.000019244222    -0.000016044754    -0.000018214197
      12        0.000046019762     0.000089987729    -0.000004932628
      13       -0.001559641503    -0.002546027078     0.001982128433
      14       -0.000001939752    -0.000013602102    -0.000029023813
      15       -0.000011648860     0.000009715412    -0.000006677676
      16       -0.000023646788    -0.000028580753     0.000003509139
      17       -0.000000323769     0.000003800255     0.000011535048

  **** Optimization is complete! (in 5 steps) ****
    Final optimized geometry and variables:
    Molecular point group: c1

    Geometry (in Angstrom), charge = 0, multiplicity = 1:

    H           -2.554761372866     1.260434005180     1.761825227449
    O           -1.774264591893     0.727835117416     1.793265998278
    C           -1.326736651897     0.563240086266     0.551504232550
    C           -0.080191317772    -0.278850037922     0.515488007801
    O           -1.873922215548     1.038674139814    -0.382663403380
    C            0.467477719805    -0.504318838888    -0.886605031335
    H           -0.316806561107    -1.219787988089     1.000976242437
    H            0.650546893805     0.207186260075     1.153692413159
    C            1.781275284745    -1.301724919196    -0.896236653142
    H           -0.277830081964    -0.996424116643    -1.498313674168
    H            0.624594578689     0.458038151094    -1.360509963540
    C            3.031197748073    -0.427751985076    -0.881214006342
    H            1.797928968810    -1.958700495475    -1.758389334686
    H            1.804422781231    -1.967777965157    -0.037390814220
    H            3.080806805087     0.193927626693    -1.768278500834
    H            3.930757905412    -1.031351377809    -0.846849027045
    H            3.044293376242     0.229911706904    -0.018088496948

  Mulliken Charges: (a.u.)
   Center  Symbol    Alpha    Beta     Spin     Total
       1     H     0.38235  0.38235  0.00000  0.23531
       2     O     4.16018  4.16018  0.00000 -0.32036
       3     C     2.80490  2.80490  0.00000  0.39019
       4     C     3.10958  3.10958  0.00000 -0.21916
       5     O     4.19098  4.19098  0.00000 -0.38196
       6     C     3.09003  3.09003  0.00000 -0.18007
       7     H     0.43737  0.43737  0.00000  0.12525
       8     H     0.43803  0.43803  0.00000  0.12395
       9     C     3.09283  3.09283  0.00000 -0.18565
      10     H     0.44036  0.44036  0.00000  0.11928
      11     H     0.44749  0.44749  0.00000  0.10503
      12     C     3.14660  3.14660  0.00000 -0.29320
      13     H     0.44496  0.44496  0.00000  0.11007
      14     H     0.45763  0.45763  0.00000  0.08475
      15     H     0.45263  0.45263  0.00000  0.09475
      16     H     0.44778  0.44778  0.00000  0.10443
      17     H     0.45630  0.45630  0.00000  0.08739

   Total alpha = 28.00000, Total beta = 28.00000, Total charge = -0.00000

*** Psi4 exiting successfully. Buy a developer a beer!
