                              Psi4 1.0.54 Driver

  ==> Input File <==

--------------------------------------------------------------------------
set {
	reference rhf
	basis cc-pvtz
}

set_num_threads( 4 )
memory 2 gb

molecule MOL {
0 1

O	 0.793603	 1.973151	 -0.397469
C	 -0.104525	 2.064792	 -1.162995
C	 -1.366156	 1.240800	 -1.134953
O	 -0.114985	 2.925692	 -2.167545
C	 -1.413045	 0.229353	 0.001137
H	 -2.200059	 1.932921	 -1.079676
H	 -1.451614	 0.752135	 -2.100025
C	 -2.702562	 -0.586401	 0.000228
H	 -1.307438	 0.748295	 0.947227
H	 -0.558751	 -0.433991	 -0.074378
C	 -3.953810	 0.284959	 -0.000782
H	 -2.717793	 -1.238567	 -0.869075
H	 -2.719108	 -1.238472	 0.869576
H	 -3.983727	 0.924403	 -0.876454
H	 -4.852989	 -0.320147	 -0.001515
H	 -3.985140	 0.924399	 0.874841
C	 1.011778	 3.766160	 -2.313619
H	 1.144864	 4.381477	 -1.436179
H	 0.812885	 4.383640	 -3.174448
H	 1.905624	 3.181410	 -2.472772

	symmetry c1
}
set optking {
	frozen_dihedral = ("
		9 5 8 12
	")
}

ee,wfn = optimize('scf', return_wfn=True)
oeprop( wfn, 'DIPOLE', 'QUADRUPOLE', 'MULLIKEN_CHARGES')
f=open( 'psi4out.xyz', 'w' )
f.write( "20  " )
f.write( str(ee) + "\n" )
f.write( MOL.save_string_xyz() )
f.close()
--------------------------------------------------------------------------

    Molecular point group: c1
  Charge       = 0
  Multiplicity = 1
  Basis Set: CC-PVTZ
  Basis Set:
  @DF-RHF Final Energy:  -384.07976895359144
    Total Energy =                       -384.0797689535916106
    Molecular point group: c1
  Basis Set: CC-PVTZ
  Basis Set:
  Basis Set: CC-PVTZ
  Basis Set:
  @DF-RHF Final Energy:  -384.07969463037358
    Total Energy =                       -384.0796946303734103
  Basis Set: CC-PVTZ
  Basis Set:
  Basis Set: CC-PVTZ
  Basis Set:
  @DF-RHF Final Energy:  -384.08118702128149
    Total Energy =                       -384.0811870212812664
  Basis Set: CC-PVTZ
  Basis Set:
  Basis Set: CC-PVTZ
  Basis Set:
  @DF-RHF Final Energy:  -384.08107783578413
    Total Energy =                       -384.0810778357844129
  Basis Set: CC-PVTZ
  Basis Set:
  Basis Set: CC-PVTZ
  Basis Set:
  @DF-RHF Final Energy:  -384.08116738254682
    Total Energy =                       -384.0811673825468233
  Basis Set: CC-PVTZ
  Basis Set:
  Basis Set: CC-PVTZ
  Basis Set:
  @DF-RHF Final Energy:  -384.08128881535362
    Total Energy =                       -384.0812888153539006
  Basis Set: CC-PVTZ
  Basis Set:
  Charge       = 0
  Multiplicity = 1
  Basis Set: CC-PVTZ
  Basis Set:

    Orbital Energies (a.u.)
    -----------------------

    Doubly Occupied:

       1A    -20.596263     2A    -20.534141     3A    -11.364643
       4A    -11.278464     5A    -11.233505     6A    -11.218619
       7A    -11.217408     8A    -11.210988     9A     -1.472214
      10A     -1.365791    11A     -1.089732    12A     -1.023557
      13A     -0.968591    14A     -0.896931    15A     -0.800025
      16A     -0.765390    17A     -0.703807    18A     -0.685977
      19A     -0.675904    20A     -0.636621    21A     -0.610717
      22A     -0.595495    23A     -0.570405    24A     -0.550154
      25A     -0.537269    26A     -0.524335    27A     -0.510320
      28A     -0.474863    29A     -0.470608    30A     -0.469327
      31A     -0.458926    32A     -0.440995

  @DF-RHF Final Energy:  -384.08128959086048

   => Energetics <=

    Nuclear Repulsion Energy =            385.5994696284776637
    One-Electron Energy =               -1287.4575391097787360
    Two-Electron Energy =                 517.7767798904404799
    DFT Exchange-Correlation Energy =       0.0000000000000000
    Empirical Dispersion Energy =           0.0000000000000000
    PCM Polarization Energy =               0.0000000000000000
    EFP Energy =                            0.0000000000000000
    Total Energy =                       -384.0812895908605924
    Molecular point group: c1
  Basis Set: CC-PVTZ
  Basis Set:

  -Total Gradient:
     Atom            X                  Y                   Z
    ------   -----------------  -----------------  -----------------
       1        0.000002809897     0.000029090445    -0.000034776469
       2       -0.000038488282    -0.000003056180     0.000008206303
       3        0.000001155050    -0.000017302545     0.000007863881
       4        0.000032147634    -0.000027275129     0.000043986092
       5       -0.001104130517     0.001522545253    -0.000649942246
       6       -0.000001914808     0.000005017270    -0.000000520624
       7       -0.000004258276     0.000002730183     0.000008988650
       8       -0.000934475603     0.001353197359    -0.001061507619
       9        0.001057086176    -0.001501344020     0.000695605736
      10        0.000000143380    -0.000005625472     0.000005950168
      11        0.000009174894    -0.000005805234    -0.000012972813
      12        0.000960434953    -0.001359804529     0.001008450330
      13       -0.000011848365    -0.000011858564     0.000004430291
      14       -0.000000041336    -0.000006374783     0.000002250099
      15        0.000005011802    -0.000003829071     0.000006201011
      16        0.000009883110     0.000000161998    -0.000005662874
      17        0.000002691332     0.000019134951    -0.000028059758
      18       -0.000001662536    -0.000004364916     0.000000821177
      19        0.000019193066     0.000014033115    -0.000002337190
      20       -0.000002911565     0.000000729875     0.000003025856

  **** Optimization is complete! (in 7 steps) ****
    Final optimized geometry and variables:
    Molecular point group: c1

    Geometry (in Angstrom), charge = 0, multiplicity = 1:

    O            1.769762297457     0.442200604796     0.491733061150
    C            0.863586810817     0.569280598989    -0.258994583489
    C           -0.424738149170    -0.212641186654    -0.220047367662
    O            0.865978254969     1.439707686064    -1.255578717504
    C           -0.478970437029    -1.234209352445     0.907652385428
    H           -1.228353056240     0.510672631180    -0.151519902833
    H           -0.537980127093    -0.691406113549    -1.187773313935
    C           -1.725789709480    -2.120034771508     0.891185745627
    H           -0.399964631885    -0.729306158325     1.864290099592
    H            0.397675903338    -1.867530768468     0.842573491030
    C           -3.055513650678    -1.374828471127     0.966753780384
    H           -1.707056295887    -2.754434342601     0.008793643122
    H           -1.659025545208    -2.796746807598     1.737286603355
    H           -3.236035160429    -0.771169519918     0.085126754834
    H           -3.880321069195    -2.072196729341     1.055031395368
    H           -3.085680139775    -0.717981382129     1.830322397090
    C            2.016989092891     2.244758871899    -1.411275637838
    H            2.182712561817     2.847520423349    -0.530682679600
    H            1.825757944312     2.876145727593    -2.263737688374
    H            2.889093853674     1.633036310613    -1.588667332817

  Mulliken Charges: (a.u.)
   Center  Symbol    Alpha    Beta     Spin     Total
       1     O     4.19662  4.19662  0.00000 -0.39325
       2     C     2.80600  2.80600  0.00000  0.38800
       3     C     3.10232  3.10232  0.00000 -0.20464
       4     O     4.14700  4.14700  0.00000 -0.29400
       5     C     3.08969  3.08969  0.00000 -0.17938
       6     H     0.43837  0.43837  0.00000  0.12326
       7     H     0.43974  0.43974  0.00000  0.12053
       8     C     3.09394  3.09394  0.00000 -0.18787
       9     H     0.44583  0.44583  0.00000  0.10835
      10     H     0.44148  0.44148  0.00000  0.11704
      11     C     3.15525  3.15525  0.00000 -0.31050
      12     H     0.45354  0.45354  0.00000  0.09292
      13     H     0.44670  0.44670  0.00000  0.10659
      14     H     0.45401  0.45401  0.00000  0.09198
      15     H     0.44486  0.44486  0.00000  0.11029
      16     H     0.45289  0.45289  0.00000  0.09423
      17     C     3.03790  3.03790  0.00000 -0.07581
      18     H     0.45436  0.45436  0.00000  0.09128
      19     H     0.44524  0.44524  0.00000  0.10953
      20     H     0.45427  0.45427  0.00000  0.09147

   Total alpha = 32.00000, Total beta = 32.00000, Total charge =  0.00000

*** Psi4 exiting successfully. Buy a developer a beer!
