  ==> Input File <==

--------------------------------------------------------------------------
set {
	reference rhf
	basis 6-31G*
}

set_num_threads( 1 )
memory 2 gb

molecule MOL {
0 1

H	 -4.236494	 0.538104	 0.039757
O	 -3.517110	 -0.026191	 -0.205115
C	 -2.306886	 0.532354	 0.237577
C	 -1.177863	 -0.397191	 -0.171080
H	 -2.156308	 1.517575	 -0.201710
H	 -2.315015	 0.655684	 1.319734
C	 0.198102	 0.111031	 0.262842
H	 -1.208843	 -0.518759	 -1.250427
H	 -1.368741	 -1.376554	 0.258909
C	 1.331804	 -0.827780	 -0.158768
H	 0.361943	 1.100838	 -0.156218
H	 0.217265	 0.229072	 1.345532
C	 2.723619	 -0.410569	 0.329459
H	 1.342964	 -0.912588	 -1.244120
H	 1.116806	 -1.824343	 0.220779
C	 2.997067	 -0.711575	 1.804232
H	 2.839320	 0.657901	 0.164918
H	 3.480240	 -0.894957	 -0.284591
H	 2.248057	 -0.249790	 2.442023
H	 2.994630	 -1.777022	 2.009156
H	 3.967009	 -0.325751	 2.102738

	symmetry c1
}
set optking {
	frozen_dihedral = ("
		2 3 4 8,
		8 4 7 10,
		4 7 10 14,
		1 2 3 5
	")
}

ee = energy('scf')
oeprop('DIPOLE', 'QUADRUPOLE', 'MULLIKEN_CHARGES')
f=open( 'psi4out.xyz', 'w' )
f.write( "21  " )
f.write( str(ee) + "\n" )
f.write( MOL.save_string_xyz() )
f.close()
--------------------------------------------------------------------------

    Molecular point group: c1

    Geometry (in Angstrom), charge = 0, multiplicity = 1:

       Center              X                  Y                   Z               Mass
    ------------   -----------------  -----------------  -----------------  -----------------
           H         -4.200002581595     0.773834739213    -0.265712256314     1.007825032070
           O         -3.480618581595     0.209539739213    -0.510584256314    15.994914619560
           C         -2.270394581595     0.768084739213    -0.067892256314    12.000000000000
           C         -1.141371581595    -0.161460260787    -0.476549256314    12.000000000000
           H         -2.119816581595     1.753305739213    -0.507179256314     1.007825032070
           H         -2.278523581595     0.891414739213     1.014264743686     1.007825032070
           C          0.234593418405     0.346761739213    -0.042627256314    12.000000000000
           H         -1.172351581595    -0.283028260787    -1.555896256314     1.007825032070
           H         -1.332249581595    -1.140823260787    -0.046560256314     1.007825032070
           C          1.368295418405    -0.592049260787    -0.464237256314    12.000000000000
           H          0.398434418405     1.336568739213    -0.461687256314     1.007825032070
           H          0.253756418405     0.464802739213     1.040062743686     1.007825032070
           C          2.760110418405    -0.174838260787     0.023989743686    12.000000000000
           H          1.379455418405    -0.676857260787    -1.549589256314     1.007825032070
           H          1.153297418405    -1.588612260787    -0.084690256314     1.007825032070
           C          3.033558418405    -0.475844260787     1.498762743686    12.000000000000
           H          2.875811418405     0.893631739213    -0.140551256314     1.007825032070
           H          3.516731418405    -0.659226260787    -0.590060256314     1.007825032070
           H          2.284548418405    -0.014059260787     2.136553743686     1.007825032070
           H          3.031121418405    -1.541291260787     1.703686743686     1.007825032070
           H          4.003500418405    -0.090020260787     1.797268743686     1.007825032070

  Charge       = 0
  Multiplicity = 1
  Basis Set: 6-31G*
  Basis Set:

    Orbital Energies (a.u.)
    -----------------------

    Doubly Occupied:

       1A    -20.551922     2A    -11.267171     3A    -11.216160
       4A    -11.214849     5A    -11.213301     6A    -11.210778
       7A    -11.208437     8A     -1.358745     9A     -1.086242
      10A     -1.033426    11A     -0.954919    12A     -0.874259
      13A     -0.806264    14A     -0.781737    15A     -0.692605
      16A     -0.661547    17A     -0.618318    18A     -0.611846
      19A     -0.586565    20A     -0.566286    21A     -0.538803
      22A     -0.520642    23A     -0.508874    24A     -0.487928
      25A     -0.479556    26A     -0.460663    27A     -0.454836
      28A     -0.443615    29A     -0.434074

  @DF-RHF Final Energy:  -310.21202895282653

   => Energetics <=

    Nuclear Repulsion Energy =            312.0146976491875535
    One-Electron Energy =               -1038.7647970009022629
    Two-Electron Energy =                 416.5380703988900564
    DFT Exchange-Correlation Energy =       0.0000000000000000
    Empirical Dispersion Energy =           0.0000000000000000
    PCM Polarization Energy =               0.0000000000000000
    EFP Energy =                            0.0000000000000000
    Total Energy =                       -310.2120289528245962

  Mulliken Charges: (a.u.)
   Center  Symbol    Alpha    Beta     Spin     Total
       1     H     0.28116  0.28116  0.00000  0.43768
       2     O     4.37177  4.37177  0.00000 -0.74354
       3     C     2.98976  2.98976  0.00000  0.02048
       4     C     3.15912  3.15912  0.00000 -0.31824
       5     H     0.43290  0.43290  0.00000  0.13420
       6     H     0.43287  0.43287  0.00000  0.13426
       7     C     3.16156  3.16156  0.00000 -0.32311
       8     H     0.41478  0.41478  0.00000  0.17045
       9     H     0.41458  0.41458  0.00000  0.17085
      10     C     3.15235  3.15235  0.00000 -0.30471
      11     H     0.42319  0.42319  0.00000  0.15363
      12     H     0.42278  0.42278  0.00000  0.15445
      13     C     3.15336  3.15336  0.00000 -0.30673
      14     H     0.42049  0.42049  0.00000  0.15902
      15     H     0.42292  0.42292  0.00000  0.15416
      16     C     3.24055  3.24055  0.00000 -0.48109
      17     H     0.42376  0.42376  0.00000  0.15248
      18     H     0.42019  0.42019  0.00000  0.15962
      19     H     0.42168  0.42168  0.00000  0.15664
      20     H     0.42089  0.42089  0.00000  0.15822
      21     H     0.41936  0.41936  0.00000  0.16128

   Total alpha = 29.00000, Total beta = 29.00000, Total charge = -0.00000
