  ==> Input File <==

--------------------------------------------------------------------------
set {
	reference rhf
	basis 6-31G*
}

set_num_threads( 4 )
memory 2 gb

molecule MOL {
0 1

H	 -3.261111	 -0.295142	 1.469456
C	 -3.306842	 -0.277400	 0.373456
C	 -2.660244	 0.921717	 -0.272021
O	 -3.838538	 -1.161155	 -0.216482
C	 -1.220012	 1.144545	 0.209990
H	 -2.705793	 0.797307	 -1.347733
H	 -3.263782	 1.790044	 -0.010477
C	 -0.252658	 0.041456	 -0.226725
H	 -0.873521	 2.100229	 -0.171974
H	 -1.211708	 1.231594	 1.295398
C	 1.180775	 0.282413	 0.250794
H	 -0.266029	 -0.034465	 -1.312038
H	 -0.597733	 -0.921000	 0.146291
C	 2.148627	 -0.814315	 -0.201312
H	 1.516199	 1.249228	 -0.115937
H	 1.192670	 0.346017	 1.338083
C	 3.580890	 -0.659131	 0.322722
H	 2.166869	 -0.852443	 -1.289387
H	 1.762857	 -1.776509	 0.128956
C	 4.668597	 -0.837544	 -0.737789
H	 3.739257	 -1.391849	 1.110118
H	 3.689262	 0.316926	 0.791219
H	 4.574870	 -1.799531	 -1.234844
H	 4.624465	 -0.065982	 -1.499182
H	 5.655820	 -0.793740	 -0.287827

	symmetry c1
}
set optking {
	frozen_dihedral = ("
		20 17 14 18
	")
}

ee = optimize('scf')
oeprop('DIPOLE', 'QUADRUPOLE', 'MULLIKEN_CHARGES')
f=open( 'psi4out.xyz', 'w' )
f.write( "25  " )
f.write( str(ee) + "\n" )
f.write( MOL.save_string_xyz() )
f.close()
--------------------------------------------------------------------------

    Molecular point group: c1
  Charge       = 0
  Multiplicity = 1
  Basis Set: 6-31G*
  Basis Set:
  @DF-RHF Final Energy:  -387.11817231210000
    Total Energy =                       -387.1181723120995457
    Molecular point group: c1
  Basis Set: 6-31G*
  Basis Set:
  Basis Set: 6-31G*
  Basis Set:
  @DF-RHF Final Energy:  -387.11843248061751
    Total Energy =                       -387.1184324806182531
  Basis Set: 6-31G*
  Basis Set:
  Basis Set: 6-31G*
  Basis Set:
  @DF-RHF Final Energy:  -387.11855911452034
    Total Energy =                       -387.1185591145203944
  Basis Set: 6-31G*
  Basis Set:
  Basis Set: 6-31G*
  Basis Set:
  @DF-RHF Final Energy:  -387.11865983767422
    Total Energy =                       -387.1186598376738175
  Basis Set: 6-31G*
  Basis Set:
  Basis Set: 6-31G*
  Basis Set:
  @DF-RHF Final Energy:  -387.11869149109293
    Total Energy =                       -387.1186914910930454
  Basis Set: 6-31G*
  Basis Set:
  Charge       = 0
  Multiplicity = 1
  Basis Set: 6-31G*
  Basis Set:

    Orbital Energies (a.u.)
    -----------------------

    Doubly Occupied:

       1A    -20.562066     2A    -11.326211     3A    -11.235448
       4A    -11.234734     5A    -11.223878     6A    -11.220796
       7A    -11.217413     8A    -11.216392     9A    -11.210620
      10A     -1.402008    11A     -1.103550    12A     -1.068319
      13A     -1.014866    14A     -0.943368    15A     -0.868309
      16A     -0.815685    17A     -0.794079    18A     -0.787145
      19A     -0.664400    20A     -0.662516    21A     -0.636032
      22A     -0.615526    23A     -0.608513    24A     -0.590996
      25A     -0.569535    26A     -0.555848    27A     -0.533905
      28A     -0.519344    29A     -0.511865    30A     -0.499103
      31A     -0.484045    32A     -0.481180    33A     -0.466781
      34A     -0.458816    35A     -0.439764    36A     -0.409593

  @DF-RHF Final Energy:  -387.11869192898803

   => Energetics <=

    Nuclear Repulsion Energy =            435.5637229321090445
    One-Electron Energy =               -1387.4595232700764882
    Two-Electron Energy =                 564.7771084089795295
    DFT Exchange-Correlation Energy =       0.0000000000000000
    Empirical Dispersion Energy =           0.0000000000000000
    PCM Polarization Energy =               0.0000000000000000
    EFP Energy =                            0.0000000000000000
    Total Energy =                       -387.1186919289879143
    Molecular point group: c1
  Basis Set: 6-31G*
  Basis Set:

  -Total Gradient:
     Atom            X                  Y                   Z
    ------   -----------------  -----------------  -----------------
       1        0.000014642765     0.000001934752     0.000001154705
       2       -0.000001844532     0.000004506363     0.000039557413
       3        0.000027148302     0.000018712848    -0.000042013915
       4        0.000012749232     0.000015049829    -0.000013634853
       5       -0.000045674664    -0.000034226728     0.000028469833
       6       -0.000003879633    -0.000010824534    -0.000001530156
       7        0.000005015444     0.000033055826    -0.000021698608
       8       -0.000013731943     0.000012584996    -0.000021633352
       9       -0.000038383062     0.000008212440     0.000004393877
      10       -0.000002345713    -0.000016509037     0.000006134825
      11       -0.000045309349    -0.000044412239    -0.000043043060
      12       -0.000018831764    -0.000018479808     0.000001225662
      13        0.000022028354     0.000008465820     0.000004805707
      14       -0.000408955063     0.004317782417    -0.000312434462
      15       -0.000022475182    -0.000035132599     0.000002668075
      16        0.000037444955    -0.000021266204     0.000011595903
      17        0.000228729844    -0.003655671341     0.000595654842
      18        0.000271904163    -0.002771465879     0.000127595574
      19       -0.000025377157     0.000041480239     0.000024127200
      20       -0.000073981578     0.002155776974    -0.000393887403
      21        0.000050413182    -0.000005817922     0.000075167771
      22        0.000042227003    -0.000028060486    -0.000109893703
      23       -0.000082041429     0.000033440263     0.000049073031
      24        0.000056642433     0.000013395107    -0.000013905944
      25        0.000013885392    -0.000022531095     0.000002051039

  **** Optimization is complete! (in 6 steps) ****
    Final optimized geometry and variables:
    Molecular point group: c1

    Geometry (in Angstrom), charge = 0, multiplicity = 1:

    H           -3.329314066513    -0.125053112024     1.508046209725
    C           -3.357832740378    -0.097409229956     0.411579302208
    C           -2.687662517433     1.099758079641    -0.213267990438
    O           -3.895431593836    -0.967128355221    -0.193739302895
    C           -1.250674230202     1.298079133626     0.288773966059
    H           -2.721303759151     0.986776398493    -1.290727762841
    H           -3.282822527433     1.973395864531     0.049565630887
    C           -0.290204561958     0.191857421759    -0.155589954487
    H           -0.889251899021     2.256500586082    -0.072395739552
    H           -1.253975014512     1.366146654561     1.375398329611
    C            1.141602324103     0.413924057630     0.333179788843
    H           -0.297211598872     0.130222650569    -1.241913937043
    H           -0.645894007806    -0.772426960844     0.202750416197
    C            2.111083792598    -0.677857795195    -0.121706148301
    H            1.498248753074     1.379505599041    -0.021575668216
    H            1.148286855134     0.468355158447     1.420726232697
    C            3.552699732626    -0.484878906148     0.396146716231
    H            2.114431238068    -0.734253184292    -1.208110746278
    H            1.733965332108    -1.642832832519     0.209709161221
    C            4.617267730580    -0.664415527687    -0.686334327146
    H            3.747260960127    -1.170291845027     1.216015980110
    H            3.656494553327     0.514083808451     0.813412180432
    H            4.564429060190    -1.654461117833    -1.130781594698
    H            4.485405482643     0.061687567829    -1.483458644741
    H            5.616653732169    -0.536476031565    -0.281700981641

  Mulliken Charges: (a.u.)
   Center  Symbol    Alpha    Beta     Spin     Total
       1     H     0.43259  0.43259  0.00000  0.13481
       2     C     2.83084  2.83084  0.00000  0.33831
       3     C     3.20813  3.20813  0.00000 -0.41625
       4     O     4.23774  4.23774  0.00000 -0.47548
       5     C     3.16665  3.16665  0.00000 -0.33330
       6     H     0.39969  0.39969  0.00000  0.20062
       7     H     0.40659  0.40659  0.00000  0.18682
       8     C     3.15574  3.15574  0.00000 -0.31148
       9     H     0.41281  0.41281  0.00000  0.17438
      10     H     0.41956  0.41956  0.00000  0.16088
      11     C     3.15410  3.15410  0.00000 -0.30820
      12     H     0.41794  0.41794  0.00000  0.16412
      13     H     0.41826  0.41826  0.00000  0.16349
      14     C     3.15534  3.15534  0.00000 -0.31068
      15     H     0.42270  0.42270  0.00000  0.15460
      16     H     0.42265  0.42265  0.00000  0.15470
      17     C     3.15480  3.15480  0.00000 -0.30960
      18     H     0.42004  0.42004  0.00000  0.15991
      19     H     0.42014  0.42014  0.00000  0.15972
      20     C     3.23994  3.23994  0.00000 -0.47988
      21     H     0.41956  0.41956  0.00000  0.16088
      22     H     0.42125  0.42125  0.00000  0.15750
      23     H     0.42097  0.42097  0.00000  0.15806
      24     H     0.42182  0.42182  0.00000  0.15636
      25     H     0.42015  0.42015  0.00000  0.15970

   Total alpha = 36.00000, Total beta = 36.00000, Total charge =  0.00000
