  ==> Input File <==

--------------------------------------------------------------------------
set {
	reference rhf
	basis 6-31G*
}

set_num_threads( 1 )
memory 2 gb

molecule MOL {
0 1

H	 1.299240	 6.620071	 -0.486216
C	 0.284349	 6.315667	 -0.722554
C	 0.137662	 4.795443	 -0.671798
H	 -0.379337	 6.794852	 -0.008941
H	 0.044389	 6.701999	 -1.709452
C	 -1.281464	 4.331335	 -1.007211
H	 0.409482	 4.442069	 0.317566
H	 0.838823	 4.343079	 -1.371392
C	 -1.454533	 2.812558	 -0.982143
H	 -1.983850	 4.777424	 -0.312011
H	 -1.547100	 4.689241	 -1.999371
C	 -1.411804	 2.199737	 0.409930
H	 -2.420277	 2.545713	 -1.408642
H	 -0.711484	 2.326287	 -1.610312
C	 -1.181045	 0.701995	 0.511084
O	 -1.571391	 2.862566	 1.390540
C	 -2.285934	 -0.139295	 -0.145128
H	 -1.105101	 0.463673	 1.565195
H	 -0.225370	 0.467087	 0.046123
C	 -3.651768	 0.085446	 0.506485
H	 -2.346596	 0.110469	 -1.202272
H	 -2.034737	 -1.195320	 -0.088721
C	 -4.759797	 -0.746382	 -0.137905
H	 -3.908762	 1.140117	 0.445781
H	 -3.588286	 -0.154158	 1.565709
H	 -4.868882	 -0.505166	 -1.191300
H	 -4.548009	 -1.809175	 -0.062213
H	 -5.715422	 -0.564821	 0.343442

	symmetry c1
}
set optking {
	frozen_dihedral = ("
		10 6 3 2,
		16 12 15 17
	")
}

ee = energy('scf')
oeprop('DIPOLE', 'QUADRUPOLE', 'MULLIKEN_CHARGES')
f=open( 'psi4out.xyz', 'w' )
f.write( "28  " )
f.write( str(ee) + "\n" )
f.write( MOL.save_string_xyz() )
f.close()
--------------------------------------------------------------------------

    Molecular point group: c1

    Geometry (in Angstrom), charge = 0, multiplicity = 1:

       Center              X                  Y                   Z               Mass
    ------------   -----------------  -----------------  -----------------  -----------------
           H          3.025998528009     4.287228683356    -0.402827975708     1.007825032070
           C          2.011107528009     3.982824683356    -0.639165975708    12.000000000000
           C          1.864420528009     2.462600683356    -0.588409975708    12.000000000000
           H          1.347421528009     4.462009683356     0.074447024292     1.007825032070
           H          1.771147528009     4.369156683356    -1.626063975708     1.007825032070
           C          0.445294528009     1.998492683356    -0.923822975708    12.000000000000
           H          2.136240528009     2.109226683356     0.400954024292     1.007825032070
           H          2.565581528009     2.010236683356    -1.288003975708     1.007825032070
           C          0.272225528009     0.479715683356    -0.898754975708    12.000000000000
           H         -0.257091471991     2.444581683356    -0.228622975708     1.007825032070
           H          0.179658528009     2.356398683356    -1.915982975708     1.007825032070
           C          0.314954528009    -0.133105316644     0.493318024292    12.000000000000
           H         -0.693518471991     0.212870683356    -1.325253975708     1.007825032070
           H          1.015274528009    -0.006555316644    -1.526923975708     1.007825032070
           C          0.545713528009    -1.630847316644     0.594472024292    12.000000000000
           O          0.155367528009     0.529723683356     1.473928024292    15.994914619560
           C         -0.559175471991    -2.472137316644    -0.061739975708    12.000000000000
           H          0.621657528009    -1.869169316644     1.648583024292     1.007825032070
           H          1.501388528009    -1.865755316644     0.129511024292     1.007825032070
           C         -1.925009471991    -2.247396316644     0.589873024292    12.000000000000
           H         -0.619837471991    -2.222373316644    -1.118883975708     1.007825032070
           H         -0.307978471991    -3.528162316644    -0.005332975708     1.007825032070
           C         -3.033038471991    -3.079224316644    -0.054516975708    12.000000000000
           H         -2.182003471991    -1.192725316644     0.529169024292     1.007825032070
           H         -1.861527471991    -2.487000316644     1.649097024292     1.007825032070
           H         -3.142123471991    -2.838008316644    -1.107911975708     1.007825032070
           H         -2.821250471991    -4.142017316644     0.021175024292     1.007825032070
           H         -3.988663471991    -2.897663316644     0.426830024292     1.007825032070

  Charge       = 0
  Multiplicity = 1
  Basis Set: 6-31G*
  Basis Set:

    Orbital Energies (a.u.)
    -----------------------

    Doubly Occupied:

       1A    -20.548653     2A    -11.322459     3A    -11.231652
       4A    -11.230561     5A    -11.228616     6A    -11.222574
       7A    -11.216990     8A    -11.214669     9A    -11.212686
      10A    -11.206000    11A     -1.393845    12A     -1.095757
      13A     -1.077211    14A     -1.020488    15A     -0.990949
      16A     -0.906115    17A     -0.874281    18A     -0.812249
      19A     -0.798101    20A     -0.721152    21A     -0.665894
      22A     -0.652583    23A     -0.629938    24A     -0.613327
      25A     -0.608509    26A     -0.587847    27A     -0.584280
      28A     -0.573456    29A     -0.545830    30A     -0.534902
      31A     -0.517565    32A     -0.510149    33A     -0.501490
      34A     -0.485392    35A     -0.476204    36A     -0.472746
      37A     -0.467213    38A     -0.461894    39A     -0.455867
      40A     -0.393794

  @DF-RHF Final Energy:  -426.16833246223041

   => Energetics <=

    Nuclear Repulsion Energy =            542.4008113583620343
    One-Electron Energy =               -1653.0105839740867850
    Two-Electron Energy =                 684.4414401534927492
    DFT Exchange-Correlation Energy =       0.0000000000000000
    Empirical Dispersion Energy =           0.0000000000000000
    PCM Polarization Energy =               0.0000000000000000
    EFP Energy =                            0.0000000000000000
    Total Energy =                       -426.1683324622320015

  Mulliken Charges: (a.u.)
   Center  Symbol    Alpha    Beta     Spin     Total
       1     H     0.41926  0.41926  0.00000  0.16148
       2     C     3.24014  3.24014  0.00000 -0.48028
       3     C     3.15647  3.15647  0.00000 -0.31295
       4     H     0.41829  0.41829  0.00000  0.16343
       5     H     0.42358  0.42358  0.00000  0.15284
       6     C     3.14883  3.14883  0.00000 -0.29767
       7     H     0.41042  0.41042  0.00000  0.17915
       8     H     0.42758  0.42758  0.00000  0.14484
       9     C     3.21230  3.21230  0.00000 -0.42461
      10     H     0.40671  0.40671  0.00000  0.18658
      11     H     0.42187  0.42187  0.00000  0.15626
      12     C     2.73214  2.73214  0.00000  0.53572
      13     H     0.40348  0.40348  0.00000  0.19305
      14     H     0.41266  0.41266  0.00000  0.17469
      15     C     3.20185  3.20185  0.00000 -0.40369
      16     O     4.26736  4.26736  0.00000 -0.53471
      17     C     3.16392  3.16392  0.00000 -0.32784
      18     H     0.40031  0.40031  0.00000  0.19939
      19     H     0.41065  0.41065  0.00000  0.17870
      20     C     3.15531  3.15531  0.00000 -0.31063
      21     H     0.41970  0.41970  0.00000  0.16060
      22     H     0.41382  0.41382  0.00000  0.17236
      23     C     3.23998  3.23998  0.00000 -0.47995
      24     H     0.41776  0.41776  0.00000  0.16449
      25     H     0.41631  0.41631  0.00000  0.16738
      26     H     0.42221  0.42221  0.00000  0.15559
      27     H     0.42094  0.42094  0.00000  0.15811
      28     H     0.41617  0.41617  0.00000  0.16766

   Total alpha = 40.00000, Total beta = 40.00000, Total charge = -0.00000
