  ==> Input File <==

--------------------------------------------------------------------------
set {
	reference rhf
	basis 6-31G*
}

set_num_threads( 4 )
memory 2 gb

molecule MOL {
0 1

H	 2.845955	 -0.323208	 0.022310
C	 1.900140	 0.071967	 -0.330070
C	 0.778463	 -0.508087	 0.517968
H	 1.782469	 -0.206877	 -1.370777
H	 1.922247	 1.149867	 -0.254252
N	 -0.540928	 0.005139	 0.058438
H	 0.716718	 -1.581298	 0.454712
H	 0.859711	 -0.198647	 1.550086
O	 -1.453716	 -0.760008	 0.033142
O	 -0.593275	 1.155952	 -0.253636

	symmetry c1
}
set optking {
	frozen_dihedral = ("
		9 6 3 2
	")
}

ee = optimize('scf')
oeprop('DIPOLE', 'QUADRUPOLE', 'MULLIKEN_CHARGES')
f=open( 'psi4out.xyz', 'w' )
f.write( "10  " )
f.write( str(ee) + "\n" )
f.write( MOL.save_string_xyz() )
f.close()
--------------------------------------------------------------------------

    Molecular point group: c1
  Charge       = 0
  Multiplicity = 1
  Basis Set: 6-31G*
  Basis Set:
  @DF-RHF Final Energy:  -282.70019116199990
    Total Energy =                       -282.7001911619999532
    Molecular point group: c1
  Basis Set: 6-31G*
  Basis Set:
  Basis Set: 6-31G*
  Basis Set:
  @DF-RHF Final Energy:  -282.69521953695352
    Total Energy =                       -282.6952195369534593
  Basis Set: 6-31G*
  Basis Set:
  Basis Set: 6-31G*
  Basis Set:
  @DF-RHF Final Energy:  -282.70020250285336
    Total Energy =                       -282.7002025028533581
  Basis Set: 6-31G*
  Basis Set:
  Basis Set: 6-31G*
  Basis Set:
  @DF-RHF Final Energy:  -282.70045814847867
    Total Energy =                       -282.7004581484787309
  Basis Set: 6-31G*
  Basis Set:
  Basis Set: 6-31G*
  Basis Set:
  @DF-RHF Final Energy:  -282.70046078238477
    Total Energy =                       -282.7004607823845959
  Basis Set: 6-31G*
  Basis Set:
  Charge       = 0
  Multiplicity = 1
  Basis Set: 6-31G*
  Basis Set:

    Orbital Energies (a.u.)
    -----------------------

    Doubly Occupied:

       1A    -20.603582     2A    -20.601913     3A    -15.849511
       4A    -11.304567     5A    -11.248701     6A     -1.633042
       7A     -1.418482     8A     -1.126285     9A     -0.967422
      10A     -0.835353    11A     -0.761744    12A     -0.742286
      13A     -0.726583    14A     -0.648305    15A     -0.591685
      16A     -0.563888    17A     -0.541407    18A     -0.486420
      19A     -0.478291    20A     -0.450729

  @DF-RHF Final Energy:  -282.70046171149602

   => Energetics <=

    Nuclear Repulsion Energy =            186.1007344973199054
    One-Electron Energy =                -754.4419943156312911
    Two-Electron Energy =                 285.6407981068155095
    DFT Exchange-Correlation Energy =       0.0000000000000000
    Empirical Dispersion Energy =           0.0000000000000000
    PCM Polarization Energy =               0.0000000000000000
    EFP Energy =                            0.0000000000000000
    Total Energy =                       -282.7004617114959046
    Molecular point group: c1
  Basis Set: 6-31G*
  Basis Set:

  -Total Gradient:
     Atom            X                  Y                   Z
    ------   -----------------  -----------------  -----------------
       1        0.000006966118    -0.000000238958     0.000000565868
       2        0.000022254813     0.000085269966     0.000055898414
       3       -0.000035920519    -0.000098065707    -0.000049791299
       4       -0.000001507192     0.000001906928     0.000007804147
       5       -0.000000411102    -0.000002753841    -0.000003158875
       6        0.000000501535    -0.000052333277    -0.000129994463
       7       -0.000006466772    -0.000004565593     0.000004212493
       8       -0.000002653830     0.000009881966    -0.000009815605
       9       -0.000004530707     0.000028265714     0.000122841621
      10        0.000021767659     0.000032632802     0.000001437700

  **** Optimization is complete! (in 6 steps) ****
    Final optimized geometry and variables:
    Molecular point group: c1

    Geometry (in Angstrom), charge = 0, multiplicity = 1:

    H            2.855033451954    -0.339199151132     0.026103571870
    C            1.918571672790     0.069840846652    -0.336047087265
    C            0.785866666035    -0.497206227988     0.500802395482
    H            1.808703256653    -0.205493285746    -1.378292662922
    H            1.956252471391     1.146887312729    -0.262601253543
    N           -0.543065096381     0.006665706333     0.052269651472
    H            0.717783612967    -1.571050457403     0.452580213278
    H            0.859281508135    -0.190152126113     1.535810556540
    O           -1.443353718726    -0.773904069726     0.039982659920
    O           -0.626671450728     1.161722406032    -0.232889182418

  Mulliken Charges: (a.u.)
   Center  Symbol    Alpha    Beta     Spin     Total
       1     H     0.40781  0.40781  0.00000  0.18438
       2     C     3.25455  3.25455  0.00000 -0.50911
       3     C     3.09506  3.09506  0.00000 -0.19011
       4     H     0.40398  0.40398  0.00000  0.19203
       5     H     0.39295  0.39295  0.00000  0.21410
       6     N     3.21851  3.21851  0.00000  0.56297
       7     H     0.38490  0.38490  0.00000  0.23021
       8     H     0.38543  0.38543  0.00000  0.22914
       9     O     4.22771  4.22771  0.00000 -0.45542
      10     O     4.22910  4.22910  0.00000 -0.45820

   Total alpha = 20.00000, Total beta = 20.00000, Total charge =  0.00000
