  ==> Input File <==

--------------------------------------------------------------------------
set {
	reference rhf
	basis 6-31G*
}

set_num_threads( 1 )
memory 2 gb

molecule MOL {
0 1

H	 -3.295993	 0.474140	 -0.256787
C	 -2.592269	 0.058694	 -0.975340
O	 -1.392607	 -0.295399	 -0.366433
H	 -3.017835	 -0.838330	 -1.403574
H	 -2.438612	 0.788454	 -1.769233
C	 -0.719715	 0.768384	 0.229244
C	 0.719720	 0.768376	 -0.229267
H	 -1.185038	 1.714362	 -0.050570
H	 -0.750528	 0.687237	 1.313896
O	 1.392611	 -0.295398	 0.366430
H	 0.750534	 0.687200	 -1.313918
H	 1.185043	 1.714359	 0.050526
C	 2.706965	 -0.449871	 -0.062409
H	 2.756559	 -0.644779	 -1.131878
H	 3.305899	 0.433456	 0.155466
H	 3.125548	 -1.294566	 0.467107

	symmetry c1
}
set optking {
	frozen_dihedral = ("
		3 6 7 11,
		7 10 13 14
	")
}

ee = energy('scf')
oeprop('DIPOLE', 'QUADRUPOLE', 'MULLIKEN_CHARGES')
f=open( 'psi4out.xyz', 'w' )
f.write( "16  " )
f.write( str(ee) + "\n" )
f.write( MOL.save_string_xyz() )
f.close()
--------------------------------------------------------------------------

    Molecular point group: c1

    Geometry (in Angstrom), charge = 0, multiplicity = 1:

       Center              X                  Y                   Z               Mass
    ------------   -----------------  -----------------  -----------------  -----------------
           H         -3.316149545943     0.384786451197    -0.074446046441     1.007825032070
           C         -2.612425545943    -0.030659548803    -0.792999046441    12.000000000000
           O         -1.412763545943    -0.384752548803    -0.184092046441    15.994914619560
           H         -3.037991545943    -0.927683548803    -1.221233046441     1.007825032070
           H         -2.458768545943     0.699100451197    -1.586892046441     1.007825032070
           C         -0.739871545943     0.679030451197     0.411584953559    12.000000000000
           C          0.699563454057     0.679022451197    -0.046926046441    12.000000000000
           H         -1.205194545943     1.625008451197     0.131770953559     1.007825032070
           H         -0.770684545943     0.597883451197     1.496236953559     1.007825032070
           O          1.372454454057    -0.384751548803     0.548770953559    15.994914619560
           H          0.730377454057     0.597846451197    -1.131577046441     1.007825032070
           H          1.164886454057     1.625005451197     0.232866953559     1.007825032070
           C          2.686808454057    -0.539224548803     0.119931953559    12.000000000000
           H          2.736402454057    -0.734132548803    -0.949537046441     1.007825032070
           H          3.285742454057     0.344102451197     0.337806953559     1.007825032070
           H          3.105391454057    -1.383919548803     0.649447953559     1.007825032070

  Charge       = 0
  Multiplicity = 1
  Basis Set: 6-31G*
  Basis Set:

    Orbital Energies (a.u.)
    -----------------------

    Doubly Occupied:

       1A    -20.553377     2A    -20.551855     3A    -11.268380
       4A    -11.267102     5A    -11.265935     6A    -11.263238
       7A     -1.388290     8A     -1.370644     9A     -1.029586
      10A     -0.937102    11A     -0.895179    12A     -0.822768
      13A     -0.686620    14A     -0.677470    15A     -0.657690
      16A     -0.638079    17A     -0.623988    18A     -0.601816
      19A     -0.556876    20A     -0.527893    21A     -0.508397
      22A     -0.475841    23A     -0.473357    24A     -0.416949
      25A     -0.406486

  @DF-RHF Final Energy:  -306.97321197868365

   => Energetics <=

    Nuclear Repulsion Energy =            259.2241954996373465
    One-Electron Energy =                -932.6648982494593838
    Two-Electron Energy =                 366.4674907711381593
    DFT Exchange-Correlation Energy =       0.0000000000000000
    Empirical Dispersion Energy =           0.0000000000000000
    PCM Polarization Energy =               0.0000000000000000
    EFP Energy =                            0.0000000000000000
    Total Energy =                       -306.9732119786839348

  Mulliken Charges: (a.u.)
   Center  Symbol    Alpha    Beta     Spin     Total
       1     H     0.42911  0.42911  0.00000  0.14178
       2     C     3.08151  3.08151  0.00000 -0.16303
       3     O     4.29913  4.29913  0.00000 -0.59827
       4     H     0.41152  0.41152  0.00000  0.17696
       5     H     0.43169  0.43169  0.00000  0.13662
       6     C     2.99845  2.99845  0.00000  0.00309
       7     C     2.98871  2.98871  0.00000  0.02259
       8     H     0.43106  0.43106  0.00000  0.13788
       9     H     0.41503  0.41503  0.00000  0.16994
      10     O     4.30059  4.30059  0.00000 -0.60117
      11     H     0.42738  0.42738  0.00000  0.14523
      12     H     0.43497  0.43497  0.00000  0.13006
      13     C     3.07922  3.07922  0.00000 -0.15844
      14     H     0.42868  0.42868  0.00000  0.14265
      15     H     0.43193  0.43193  0.00000  0.13615
      16     H     0.41102  0.41102  0.00000  0.17795

   Total alpha = 25.00000, Total beta = 25.00000, Total charge = -0.00000
