                              Psi4 1.0.54 Driver

  ==> Input File <==

--------------------------------------------------------------------------
set {
	reference rhf
	basis cc-pvtz
}

set_num_threads( 4 )
memory 2 gb

molecule MOL {
0 1

H	 2.153881	 -0.374593	 -0.692085
O	 1.583947	 -0.677544	 -0.001533
C	 0.489979	 0.078084	 0.002623
C	 -0.763662	 -0.754014	 0.000816
O	 0.539051	 1.259395	 -0.000088
C	 -2.038001	 0.074705	 -0.000833
H	 -0.712945	 -1.405886	 -0.864342
H	 -0.715137	 -1.405770	 0.866182
H	 -2.087267	 0.710831	 -0.874232
H	 -2.903419	 -0.576199	 -0.001922
H	 -2.089467	 0.710909	 0.872389

	symmetry c1
}
set optking {
	frozen_dihedral = ("
		1 2 3 5
	")
}

ee,wfn = optimize('scf', return_wfn=True)
oeprop( wfn, 'DIPOLE', 'QUADRUPOLE', 'MULLIKEN_CHARGES')
f=open( 'psi4out.xyz', 'w' )
f.write( "11  " )
f.write( str(ee) + "\n" )
f.write( MOL.save_string_xyz() )
f.close()
--------------------------------------------------------------------------

    Molecular point group: c1
  Charge       = 0
  Multiplicity = 1
  Basis Set: CC-PVTZ
  Basis Set:
  @DF-RHF Final Energy:  -266.94137653143321
    Total Energy =                       -266.9413765314333773
    Molecular point group: c1
  Basis Set: CC-PVTZ
  Basis Set:
  Basis Set: CC-PVTZ
  Basis Set:
  @DF-RHF Final Energy:  -266.93941121857608
    Total Energy =                       -266.9394112185759695
  Basis Set: CC-PVTZ
  Basis Set:
  Basis Set: CC-PVTZ
  Basis Set:
  @DF-RHF Final Energy:  -266.94245080472444
    Total Energy =                       -266.9424508047242171
  Basis Set: CC-PVTZ
  Basis Set:
  Basis Set: CC-PVTZ
  Basis Set:
  @DF-RHF Final Energy:  -266.94253678906648
    Total Energy =                       -266.9425367890665939
  Basis Set: CC-PVTZ
  Basis Set:
  Basis Set: CC-PVTZ
  Basis Set:
  @DF-RHF Final Energy:  -266.94254442056808
    Total Energy =                       -266.9425444205680833
  Basis Set: CC-PVTZ
  Basis Set:
  Basis Set: CC-PVTZ
  Basis Set:
  @DF-RHF Final Energy:  -266.94254614771023
    Total Energy =                       -266.9425461477102317
  Basis Set: CC-PVTZ
  Basis Set:
  Charge       = 0
  Multiplicity = 1
  Basis Set: CC-PVTZ
  Basis Set:

    Orbital Energies (a.u.)
    -----------------------

    Doubly Occupied:

       1A    -20.595255     2A    -20.547001     3A    -11.374769
       4A    -11.242661     5A    -11.218734     6A     -1.469859
       7A     -1.371490     8A     -1.065364     9A     -0.915551
      10A     -0.805082    11A     -0.709546    12A     -0.686996
      13A     -0.661576    14A     -0.611187    15A     -0.576815
      16A     -0.528841    17A     -0.527249    18A     -0.505548
      19A     -0.489232    20A     -0.448872

  @DF-RHF Final Energy:  -266.94254653307053

   => Energetics <=

    Nuclear Repulsion Energy =            179.7331269432430929
    One-Electron Energy =                -720.6480910803816187
    Two-Electron Energy =                 273.9724176040679140
    DFT Exchange-Correlation Energy =       0.0000000000000000
    Empirical Dispersion Energy =           0.0000000000000000
    PCM Polarization Energy =               0.0000000000000000
    EFP Energy =                            0.0000000000000000
    Total Energy =                       -266.9425465330706402
    Molecular point group: c1
  Basis Set: CC-PVTZ
  Basis Set:

  -Total Gradient:
     Atom            X                  Y                   Z
    ------   -----------------  -----------------  -----------------
       1       -0.003927629490    -0.007358123932    -0.007380893040
       2        0.004333729158     0.009326705969     0.013775252665
       3        0.000769881985    -0.002182087154    -0.016163274065
       4        0.000006962123     0.000016453133     0.000000114057
       5       -0.001203632823     0.000180159218     0.009783306622
       6        0.000018313417    -0.000025000174    -0.000012369620
       7        0.000011642768     0.000011903225    -0.000005357136
       8       -0.000003623658     0.000007348697    -0.000005692479
       9       -0.000002373133     0.000005746101    -0.000003238221
      10        0.000003673144     0.000006908384     0.000001726369
      11       -0.000006943486     0.000009986535     0.000010424848

  **** Optimization is complete! (in 7 steps) ****
    Final optimized geometry and variables:
    Molecular point group: c1

    Geometry (in Angstrom), charge = 0, multiplicity = 1:

    H            2.266745462684    -0.400031421247    -0.476003809728
    O            1.599330915377    -0.659942685485     0.138440855315
    C            0.490816056046     0.087742365710    -0.022367262184
    C           -0.757565163176    -0.751720928277    -0.015147931416
    O            0.524911049993     1.264150022077    -0.066876894176
    C           -2.041434414225     0.061376292719    -0.012453376987
    H           -0.703828811500    -1.405815077737    -0.879718610554
    H           -0.694584378913    -1.404203147325     0.848782500385
    H           -2.101850356394     0.697018800524    -0.885611132043
    H           -2.900107717444    -0.598584838199    -0.009218979012
    H           -2.096489953958     0.697488781284     0.860965244527

  Mulliken Charges: (a.u.)
   Center  Symbol    Alpha    Beta     Spin     Total
       1     H     0.38120  0.38120  0.00000  0.23760
       2     O     4.17244  4.17244  0.00000 -0.34488
       3     C     2.80367  2.80367  0.00000  0.39265
       4     C     3.09957  3.09957  0.00000 -0.19914
       5     O     4.17475  4.17475  0.00000 -0.34950
       6     C     3.13957  3.13957  0.00000 -0.27914
       7     H     0.44458  0.44458  0.00000  0.11084
       8     H     0.43865  0.43865  0.00000  0.12269
       9     H     0.44824  0.44824  0.00000  0.10351
      10     H     0.44983  0.44983  0.00000  0.10035
      11     H     0.44749  0.44749  0.00000  0.10501

   Total alpha = 20.00000, Total beta = 20.00000, Total charge = -0.00000

*** Psi4 exiting successfully. Buy a developer a beer!
