  ==> Input File <==

--------------------------------------------------------------------------
set {
	reference rhf
	basis 6-31G*
}

set_num_threads( 1 )
memory 2 gb

molecule MOL {
0 1

H	 -2.698709	 -0.000305	 0.034435
C	 -1.693833	 0.000034	 0.434417
O	 -0.828952	 -0.000968	 -0.659236
H	 -1.574200	 0.882896	 1.055746
H	 -1.574147	 -0.881698	 1.057355
C	 -0.410773	 -1.238364	 -1.186949
C	 0.420892	 -2.047250	 -0.193493
C	 -1.567861	 -2.047446	 -1.769607
H	 0.237990	 -0.950359	 -2.005601
H	 1.200362	 -1.427699	 0.236776
H	 0.891587	 -2.884664	 -0.698884
H	 -0.181579	 -2.450786	 0.614189
H	 -2.165312	 -1.427874	 -2.429638
H	 -1.183191	 -2.884445	 -2.343999
H	 -2.215980	 -2.451668	 -0.998642

	symmetry c1
}
set optking {
	frozen_dihedral = ("
		9 6 3 2
	")
}

ee = energy('scf')
oeprop('DIPOLE', 'QUADRUPOLE', 'MULLIKEN_CHARGES')
f=open( 'psi4out.xyz', 'w' )
f.write( "15  " )
f.write( str(ee) + "\n" )
f.write( MOL.save_string_xyz() )
f.close()
--------------------------------------------------------------------------

    Molecular point group: c1

    Geometry (in Angstrom), charge = 0, multiplicity = 1:

       Center              X                  Y                   Z               Mass
    ------------   -----------------  -----------------  -----------------  -----------------
           H         -1.866915459301     1.060830662499     0.691260426010     1.007825032070
           C         -0.862039459301     1.061169662499     1.091242426010    12.000000000000
           O          0.002841540699     1.060167662499    -0.002410573990    15.994914619560
           H         -0.742406459301     1.944031662499     1.712571426010     1.007825032070
           H         -0.742353459301     0.179437662499     1.714180426010     1.007825032070
           C          0.421020540699    -0.177228337501    -0.530123573990    12.000000000000
           C          1.252685540699    -0.986114337501     0.463332426010    12.000000000000
           C         -0.736067459301    -0.986310337501    -1.112781573990    12.000000000000
           H          1.069783540699     0.110776662499    -1.348775573990     1.007825032070
           H          2.032155540699    -0.366563337501     0.893601426010     1.007825032070
           H          1.723380540699    -1.823528337501    -0.042058573990     1.007825032070
           H          0.650214540699    -1.389650337501     1.271014426010     1.007825032070
           H         -1.333518459301    -0.366738337501    -1.772812573990     1.007825032070
           H         -0.351397459301    -1.823309337501    -1.687173573990     1.007825032070
           H         -1.384186459301    -1.390532337501    -0.341816573990     1.007825032070

  Charge       = 0
  Multiplicity = 1
  Basis Set: 6-31G*
  Basis Set:

    Orbital Energies (a.u.)
    -----------------------

    Doubly Occupied:

       1A    -20.545876     2A    -11.275256     3A    -11.260959
       4A    -11.210874     5A    -11.210533     6A     -1.369483
       7A     -1.050426     8A     -0.939767     9A     -0.931199
      10A     -0.781397    11A     -0.674921    12A     -0.640481
      13A     -0.632573    14A     -0.573871    15A     -0.564010
      16A     -0.551552    17A     -0.535824    18A     -0.500722
      19A     -0.496793    20A     -0.441864    21A     -0.402978

  @DF-RHF Final Energy:  -232.13467608884989

   => Energetics <=

    Nuclear Repulsion Energy =            198.8610778445151652
    One-Electron Energy =                -708.8086983579026992
    Two-Electron Energy =                 277.8129444245367381
    DFT Exchange-Correlation Energy =       0.0000000000000000
    Empirical Dispersion Energy =           0.0000000000000000
    PCM Polarization Energy =               0.0000000000000000
    EFP Energy =                            0.0000000000000000
    Total Energy =                       -232.1346760888507674

  Mulliken Charges: (a.u.)
   Center  Symbol    Alpha    Beta     Spin     Total
       1     H     0.42564  0.42564  0.00000  0.14873
       2     C     3.08027  3.08027  0.00000 -0.16054
       3     O     4.31396  4.31396  0.00000 -0.62792
       4     H     0.41484  0.41484  0.00000  0.17032
       5     H     0.43090  0.43090  0.00000  0.13819
       6     C     2.90959  2.90959  0.00000  0.18082
       7     C     3.25269  3.25269  0.00000 -0.50538
       8     C     3.25258  3.25258  0.00000 -0.50516
       9     H     0.41495  0.41495  0.00000  0.17011
      10     H     0.41115  0.41115  0.00000  0.17770
      11     H     0.41927  0.41927  0.00000  0.16147
      12     H     0.42138  0.42138  0.00000  0.15724
      13     H     0.41143  0.41143  0.00000  0.17714
      14     H     0.41959  0.41959  0.00000  0.16082
      15     H     0.42176  0.42176  0.00000  0.15648

   Total alpha = 21.00000, Total beta = 21.00000, Total charge =  0.00000
