  ==> Input File <==

--------------------------------------------------------------------------
set {
	reference rhf
	basis 6-31G*
}

set_num_threads( 4 )
memory 2 gb

molecule MOL {
0 1

O	 -3.670572	 -0.414367	 0.338081
C	 -2.668563	 0.129746	 -0.000350
C	 -2.608463	 1.558265	 -0.476784
O	 -1.481751	 -0.454642	 0.000584
H	 -2.994324	 2.202126	 0.304508
H	 -1.602455	 1.855269	 -0.734027
H	 -3.255915	 1.664998	 -1.338928
C	 -0.334255	 0.388708	 0.000906
C	 0.891947	 -0.504646	 0.000751
H	 -0.365390	 1.025305	 -0.873475
H	 -0.365484	 1.024911	 0.875569
C	 2.191998	 0.301789	 0.000897
H	 0.855148	 -1.151283	 -0.871571
H	 0.855132	 -1.151660	 0.872805
C	 3.441114	 -0.581407	 0.000108
H	 2.215074	 0.954890	 -0.869742
H	 2.215465	 0.953923	 0.872248
C	 4.739576	 0.224112	 -0.001102
H	 3.419457	 -1.233487	 -0.870178
H	 3.420834	 -1.233096	 0.870717
H	 4.804918	 0.861552	 -0.878265
H	 5.606527	 -0.429058	 -0.001824
H	 4.806469	 0.861674	 0.875853

	symmetry c1
}
set optking {
	frozen_dihedral = ("
		1 2 4 8
	")
}

ee = optimize('scf')
oeprop('DIPOLE', 'QUADRUPOLE', 'MULLIKEN_CHARGES')
f=open( 'psi4out.xyz', 'w' )
f.write( "23  " )
f.write( str(ee) + "\n" )
f.write( MOL.save_string_xyz() )
f.close()
--------------------------------------------------------------------------

    Molecular point group: c1
  Charge       = 0
  Multiplicity = 1
  Basis Set: 6-31G*
  Basis Set:
  @DF-RHF Final Energy:  -422.94502014181205
    Total Energy =                       -422.9450201418117103
    Molecular point group: c1
  Basis Set: 6-31G*
  Basis Set:
  Basis Set: 6-31G*
  Basis Set:
  @DF-RHF Final Energy:  -422.94895564990941
    Total Energy =                       -422.9489556499088394
  Basis Set: 6-31G*
  Basis Set:
  Basis Set: 6-31G*
  Basis Set:
  @DF-RHF Final Energy:  -422.95733251033147
    Total Energy =                       -422.9573325103311845
  Basis Set: 6-31G*
  Basis Set:
  Basis Set: 6-31G*
  Basis Set:
  @DF-RHF Final Energy:  -422.96172232041863
    Total Energy =                       -422.9617223204189713
  Basis Set: 6-31G*
  Basis Set:
  @DF-RHF Final Energy:  -422.96212714095253
    Total Energy =                       -422.9621271409534984
  @DF-RHF Final Energy:  -422.96256745313474
    Total Energy =                       -422.9625674531355344
  @DF-RHF Final Energy:  -422.96294352153939
    Total Energy =                       -422.9629435215391595
  @DF-RHF Final Energy:  -422.96309494069862
    Total Energy =                       -422.9630949406988520
  @DF-RHF Final Energy:  -422.96314970118999
    Total Energy =                       -422.9631497011888541
  @DF-RHF Final Energy:  -422.96330896479623
    Total Energy =                       -422.9633089647962834
  @DF-RHF Final Energy:  -422.94775777275999
    Total Energy =                       -422.9477577727594735
  @DF-RHF Final Energy:  -422.96266135828108
    Total Energy =                       -422.9626613582803429
  @DF-RHF Final Energy:  -422.96385951873879
    Total Energy =                       -422.9638595187387864
  @DF-RHF Final Energy:  -422.96409514877621
    Total Energy =                       -422.9640951487765506
  @DF-RHF Final Energy:  -422.96455186553516
    Total Energy =                       -422.9645518655350998
  @DF-RHF Final Energy:  -422.96468995103999
    Total Energy =                       -422.9646899510398725
  @DF-RHF Final Energy:  -422.96480693415253
    Total Energy =                       -422.9648069341527616
  @DF-RHF Final Energy:  -422.96490589864669
    Total Energy =                       -422.9649058986465207
  @DF-RHF Final Energy:  -422.96499572442855
    Total Energy =                       -422.9649957244283769
  @DF-RHF Final Energy:  -422.96521151223601
    Total Energy =                       -422.9652115122366922
  Basis Set: 6-31G*
  Basis Set:
  @DF-RHF Final Energy:  -422.96525559030886
    Total Energy =                       -422.9652555903088569
  Basis Set: 6-31G*
  Basis Set:
  Basis Set: 6-31G*
  Basis Set:
  @DF-RHF Final Energy:  -422.96528994010487
    Total Energy =                       -422.9652899401058903
  Basis Set: 6-31G*
  Basis Set:
  Basis Set: 6-31G*
  Basis Set:
  @DF-RHF Final Energy:  -422.96529936562354
    Total Energy =                       -422.9652993656231956
  Basis Set: 6-31G*
  Basis Set:
  Charge       = 0
  Multiplicity = 1
  Basis Set: 6-31G*
  Basis Set:

    Orbital Energies (a.u.)
    -----------------------

    Doubly Occupied:

       1A    -20.597837     2A    -20.539045     3A    -11.375147
       4A    -11.297036     5A    -11.241556     6A    -11.229986
       7A    -11.229309     8A    -11.225432     9A    -11.216437
      10A     -1.461039    11A     -1.363943    12A     -1.098139
      13A     -1.036827    14A     -1.015297    15A     -0.943599
      16A     -0.848472    17A     -0.808004    18A     -0.779049
      19A     -0.699653    20A     -0.695274    21A     -0.659071
      22A     -0.650403    23A     -0.611476    24A     -0.595615
      25A     -0.581303    26A     -0.574154    27A     -0.569621
      28A     -0.541798    29A     -0.529902    30A     -0.505092
      31A     -0.499181    32A     -0.482514    33A     -0.475983
      34A     -0.473969    35A     -0.443921    36A     -0.429822

  @DF-RHF Final Energy:  -422.96530014272230

   => Energetics <=

    Nuclear Repulsion Energy =            449.4751521553894236
    One-Electron Energy =               -1466.2310970599135089
    Two-Electron Energy =                 593.7906447618015591
    DFT Exchange-Correlation Energy =       0.0000000000000000
    Empirical Dispersion Energy =           0.0000000000000000
    PCM Polarization Energy =               0.0000000000000000
    EFP Energy =                            0.0000000000000000
    Total Energy =                       -422.9653001427225263
    Molecular point group: c1
  Basis Set: 6-31G*
  Basis Set:

  -Total Gradient:
     Atom            X                  Y                   Z
    ------   -----------------  -----------------  -----------------
       1        0.000265211203     0.000475427531     0.001992392792
       2       -0.000399551876    -0.000781371742    -0.001814161628
       3        0.000024674262     0.000009020871    -0.000004769956
       4        0.000115423401     0.000448091859    -0.001923336133
       5       -0.000004781315     0.000005086739    -0.000004917275
       6       -0.000009655268     0.000010336717     0.000002132895
       7        0.000011726442    -0.000011536570    -0.000005616895
       8       -0.000035882857    -0.000162076247     0.001740659583
       9        0.000012318955     0.000011100840    -0.000003110245
      10        0.000020802279     0.000008034826     0.000012281513
      11       -0.000018368124    -0.000001814549     0.000003905941
      12        0.000000809693    -0.000012759963     0.000004647218
      13        0.000000164310     0.000000458869     0.000000932383
      14        0.000004153933    -0.000000038937    -0.000001700638
      15        0.000005103693     0.000007417491     0.000002039011
      16       -0.000000473076    -0.000003706503    -0.000000327432
      17       -0.000000090182     0.000000949429    -0.000002523114
      18        0.000005994947    -0.000005466724     0.000001185620
      19       -0.000000019158     0.000001522051     0.000000710011
      20       -0.000000247939     0.000000511892    -0.000000557377
      21       -0.000000926267    -0.000000586513     0.000000592894
      22        0.000003780241     0.000002013471     0.000000124929
      23       -0.000000167283    -0.000000614836    -0.000000584098

  **** Optimization is complete! (in 24 steps) ****
    Final optimized geometry and variables:
    Molecular point group: c1

    Geometry (in Angstrom), charge = 0, multiplicity = 1:

    O           -3.630823934121    -0.644393691817     0.231205224731
    C           -2.724565667296     0.059992673343    -0.057839928270
    C           -2.906867737259     1.514782296073    -0.426677963500
    O           -1.486533211845    -0.438640572581    -0.087517389026
    H           -2.401328893168     2.167284588356     0.276327946964
    H           -2.504614835978     1.713841100136    -1.413860487985
    H           -3.963479256023     1.734008060508    -0.416639018620
    C           -0.331321616958     0.376320644443    -0.012254938676
    C            0.875226752945    -0.544859874760    -0.002232081818
    H           -0.287646614942     1.049684451316    -0.861110917144
    H           -0.362170825414     0.972654872984     0.893606666482
    C            2.194276520222     0.224870567198     0.083288122602
    H            0.851991794919    -1.151760803689    -0.902423181984
    H            0.781342319331    -1.225791172718     0.837954665329
    C            3.418057540299    -0.693212661426     0.095110846638
    H            2.271895816084     0.912112654448    -0.757823956785
    H            2.200833931067     0.839585648738     0.982041308070
    C            4.736585847941     0.074111467167     0.181111676786
    H            3.414542710092    -1.307260863864    -0.802451165712
    H            3.343282699935    -1.379608775110     0.935246838494
    H            4.856180957691     0.745312045550    -0.664657975373
    H            5.584427393274    -0.603417430134     0.187547342731
    H            4.784425390137     0.672123842018     1.086746041664

  Mulliken Charges: (a.u.)
   Center  Symbol    Alpha    Beta     Spin     Total
       1     O     4.26446  4.26446  0.00000 -0.52893
       2     C     2.61474  2.61474  0.00000  0.77051
       3     C     3.30838  3.30838  0.00000 -0.61676
       4     O     4.30684  4.30684  0.00000 -0.61368
       5     H     0.40376  0.40376  0.00000  0.19247
       6     H     0.40214  0.40214  0.00000  0.19573
       7     H     0.38812  0.38812  0.00000  0.22376
       8     C     2.99517  2.99517  0.00000  0.00967
       9     C     3.16201  3.16201  0.00000 -0.32402
      10     H     0.42055  0.42055  0.00000  0.15890
      11     H     0.41901  0.41901  0.00000  0.16199
      12     C     3.16111  3.16111  0.00000 -0.32222
      13     H     0.41023  0.41023  0.00000  0.17954
      14     H     0.40828  0.40828  0.00000  0.18345
      15     C     3.15183  3.15183  0.00000 -0.30367
      16     H     0.42249  0.42249  0.00000  0.15503
      17     H     0.42194  0.42194  0.00000  0.15612
      18     C     3.24008  3.24008  0.00000 -0.48016
      19     H     0.42011  0.42011  0.00000  0.15978
      20     H     0.41965  0.41965  0.00000  0.16070
      21     H     0.42126  0.42126  0.00000  0.15748
      22     H     0.41683  0.41683  0.00000  0.16634
      23     H     0.42102  0.42102  0.00000  0.15796

   Total alpha = 36.00000, Total beta = 36.00000, Total charge =  0.00000
