  ==> Input File <==

--------------------------------------------------------------------------
set {
	reference rhf
	basis 6-31G*
}

set_num_threads( 1 )
memory 2 gb

molecule MOL {
0 1

O	 -0.291628	 1.323815	 -0.000732
C	 -0.449655	 0.146360	 0.000961
C	 -1.783294	 -0.549321	 -0.000296
O	 0.550821	 -0.724572	 0.000672
H	 -1.863538	 -1.185371	 -0.874187
H	 -2.574672	 0.185258	 -0.002793
H	 -1.866414	 -1.182381	 0.875436
C	 0.218702	 -2.083597	 0.222099
H	 -0.248511	 -2.207514	 1.188386
H	 1.151195	 -2.624740	 0.185076
H	 -0.452435	 -2.440098	 -0.545901

	symmetry c1
}
set optking {
	frozen_dihedral = ("
		2 4 8 9
	")
}

ee = energy('scf')
oeprop('DIPOLE', 'QUADRUPOLE', 'MULLIKEN_CHARGES')
f=open( 'psi4out.xyz', 'w' )
f.write( "11  " )
f.write( str(ee) + "\n" )
f.write( MOL.save_string_xyz() )
f.close()
--------------------------------------------------------------------------

    Molecular point group: c1

    Geometry (in Angstrom), charge = 0, multiplicity = 1:

       Center              X                  Y                   Z               Mass
    ------------   -----------------  -----------------  -----------------  -----------------
           O          0.058540929094     1.726083792355    -0.048069133538    15.994914619560
           C         -0.099486070906     0.548628792355    -0.046376133538    12.000000000000
           C         -1.433125070906    -0.147052207645    -0.047633133538    12.000000000000
           O          0.900989929094    -0.322303207645    -0.046665133538    15.994914619560
           H         -1.513369070906    -0.783102207645    -0.921524133538     1.007825032070
           H         -2.224503070906     0.587526792355    -0.050130133538     1.007825032070
           H         -1.516245070906    -0.780112207645     0.828098866462     1.007825032070
           C          0.568870929094    -1.681328207645     0.174761866462    12.000000000000
           H          0.101657929094    -1.805245207645     1.141048866462     1.007825032070
           H          1.501363929094    -2.222471207645     0.137738866462     1.007825032070
           H         -0.102266070906    -2.037829207645    -0.593238133538     1.007825032070

  Charge       = 0
  Multiplicity = 1
  Basis Set: 6-31G*
  Basis Set:

    Orbital Energies (a.u.)
    -----------------------

    Doubly Occupied:

       1A    -20.610503     2A    -20.544415     3A    -11.379174
       4A    -11.300254     5A    -11.241850     6A     -1.470996
       7A     -1.370828     8A     -1.027209     9A     -0.991515
      10A     -0.785284    11A     -0.702628    12A     -0.699045
      13A     -0.684946    14A     -0.605872    15A     -0.590284
      16A     -0.565882    17A     -0.556794    18A     -0.529025
      19A     -0.451351    20A     -0.435655

  @DF-RHF Final Energy:  -266.81051583321516

   => Energetics <=

    Nuclear Repulsion Energy =            185.2440405565957633
    One-Electron Energy =                -731.0220061121947310
    Two-Electron Energy =                 278.9674497223826961
    DFT Exchange-Correlation Energy =       0.0000000000000000
    Empirical Dispersion Energy =           0.0000000000000000
    PCM Polarization Energy =               0.0000000000000000
    EFP Energy =                            0.0000000000000000
    Total Energy =                       -266.8105158332162432

  Mulliken Charges: (a.u.)
   Center  Symbol    Alpha    Beta     Spin     Total
       1     O     4.26980  4.26980  0.00000 -0.53961
       2     C     2.60721  2.60721  0.00000  0.78558
       3     C     3.31902  3.31902  0.00000 -0.63803
       4     O     4.29220  4.29220  0.00000 -0.58440
       5     H     0.39986  0.39986  0.00000  0.20029
       6     H     0.38759  0.38759  0.00000  0.22481
       7     H     0.40313  0.40313  0.00000  0.19375
       8     C     3.10012  3.10012  0.00000 -0.20024
       9     H     0.41235  0.41235  0.00000  0.17530
      10     H     0.39431  0.39431  0.00000  0.21137
      11     H     0.41441  0.41441  0.00000  0.17118

   Total alpha = 20.00000, Total beta = 20.00000, Total charge =  0.00000
