                              Psi4 1.0.54 Driver

  ==> Input File <==

--------------------------------------------------------------------------
set {
	reference rhf
	basis cc-pvtz
}

set_num_threads( 4 )
memory 2 gb

molecule MOL {
0 1

H	 2.614283	 2.028610	 0.296620
O	 3.358864	 1.662087	 -0.142800
C	 3.565468	 0.338079	 0.273842
C	 2.533667	 -0.637565	 -0.272227
H	 4.548038	 0.064914	 -0.086598
H	 3.593945	 0.282242	 1.360360
C	 3.003406	 -2.090008	 -0.312265
H	 1.633189	 -0.560797	 0.329774
H	 2.269880	 -0.317041	 -1.277253
C	 1.954117	 -3.034716	 -0.896523
H	 3.260207	 -2.411643	 0.691531
H	 3.913933	 -2.157828	 -0.905246
C	 2.399104	 -4.492340	 -1.029090
H	 1.053963	 -2.988270	 -0.288417
H	 1.672389	 -2.671045	 -1.880821
C	 2.630858	 -5.220493	 0.293720
H	 1.640803	 -5.030433	 -1.591196
H	 3.306036	 -4.537232	 -1.627934
C	 2.975896	 -6.696256	 0.110740
H	 1.738286	 -5.135965	 0.909868
H	 3.430707	 -4.740428	 0.849402
C	 3.211602	 -7.425388	 1.429338
H	 2.173897	 -7.187329	 -0.433524
H	 3.862575	 -6.782716	 -0.511665
H	 2.330998	 -7.384694	 2.061887
H	 3.451273	 -8.469539	 1.263766
H	 4.033629	 -6.981332	 1.981095

	symmetry c1
}
set optking {
	frozen_dihedral = ("
		8 4 3 2
	")
}

ee,wfn = optimize('scf', return_wfn=True)
oeprop( wfn, 'DIPOLE', 'QUADRUPOLE', 'MULLIKEN_CHARGES')
f=open( 'psi4out.xyz', 'w' )
f.write( "27  " )
f.write( str(ee) + "\n" )
f.write( MOL.save_string_xyz() )
f.close()
--------------------------------------------------------------------------

    Molecular point group: c1
  Charge       = 0
  Multiplicity = 1
  Basis Set: CC-PVTZ
  Basis Set:
  @DF-RHF Final Energy:  -388.42648656339480
    Total Energy =                       -388.4264865633946329
    Molecular point group: c1
  Basis Set: CC-PVTZ
  Basis Set:
  Basis Set: CC-PVTZ
  Basis Set:
  @DF-RHF Final Energy:  -387.95014786569726
    Total Energy =                       -387.9501478656976587
  Basis Set: CC-PVTZ
  Basis Set:
  Basis Set: CC-PVTZ
  Basis Set:
  @DF-RHF Final Energy:  -388.14595428267376
    Total Energy =                       -388.1459542826738698
  Basis Set: CC-PVTZ
  Basis Set:
  Basis Set: CC-PVTZ
  Basis Set:
  @DF-RHF Final Energy:  -388.34644332984885
    Total Energy =                       -388.3464433298489666
  Basis Set: CC-PVTZ
  Basis Set:
  @DF-RHF Final Energy:  -388.42427785981306
    Total Energy =                       -388.4242778598127188
  @DF-RHF Final Energy:  -388.42681498648585
    Total Energy =                       -388.4268149864861925
  @DF-RHF Final Energy:  -388.42695628141081
    Total Energy =                       -388.4269562814106393
  Basis Set: CC-PVTZ
  Basis Set:
  @DF-RHF Final Energy:  -388.42696534211871
    Total Energy =                       -388.4269653421185922
  Basis Set: CC-PVTZ
  Basis Set:
  Basis Set: CC-PVTZ
  Basis Set:
  @DF-RHF Final Energy:  -388.42696342167324
    Total Energy =                       -388.4269634216730083
  Basis Set: CC-PVTZ
  Basis Set:
  Basis Set: CC-PVTZ
  Basis Set:
  @DF-RHF Final Energy:  -388.42696750217988
    Total Energy =                       -388.4269675021799912
  Basis Set: CC-PVTZ
  Basis Set:
  Charge       = 0
  Multiplicity = 1
  Basis Set: CC-PVTZ
  Basis Set:

    Orbital Energies (a.u.)
    -----------------------

    Doubly Occupied:

       1A    -20.545249     2A    -11.264437     3A    -11.215640
       4A    -11.213789     5A    -11.213418     6A    -11.213143
       7A    -11.212209     8A    -11.210990     9A    -11.206754
      10A     -1.362770    11A     -1.095874    12A     -1.062900
      13A     -1.012017    14A     -0.945590    15A     -0.883620
      16A     -0.824109    17A     -0.804486    18A     -0.777743
      19A     -0.695010    20A     -0.647887    21A     -0.638677
      22A     -0.611719    23A     -0.610080    24A     -0.584181
      25A     -0.575396    26A     -0.556275    27A     -0.543181
      28A     -0.522730    29A     -0.509909    30A     -0.488794
      31A     -0.482344    32A     -0.477285    33A     -0.465651
      34A     -0.461062    35A     -0.458047    36A     -0.443751
      37A     -0.422633

  @DF-RHF Final Energy:  -388.42696759462905

   => Energetics <=

    Nuclear Repulsion Energy =            454.0251629161146525
    One-Electron Energy =               -1426.3855519947112498
    Two-Electron Energy =                 583.9334214839675496
    DFT Exchange-Correlation Energy =       0.0000000000000000
    Empirical Dispersion Energy =           0.0000000000000000
    PCM Polarization Energy =               0.0000000000000000
    EFP Energy =                            0.0000000000000000
    Total Energy =                       -388.4269675946291045
    Molecular point group: c1
  Basis Set: CC-PVTZ
  Basis Set:

  -Total Gradient:
     Atom            X                  Y                   Z
    ------   -----------------  -----------------  -----------------
       1       -0.000022166899     0.000002306721    -0.000004710677
       2        0.002909076455    -0.000216618104    -0.001035045153
       3       -0.003855953907    -0.000295211194     0.002185719681
       4        0.000706305325     0.002724692644    -0.004210559291
       5       -0.000008493465     0.000019338323    -0.000015424686
       6       -0.000000925102     0.000000966110     0.000006623672
       7        0.000028257785     0.000012633909    -0.000006244767
       8        0.000254093706    -0.002265782294     0.003089556961
       9        0.000007645214    -0.000005077369    -0.000004874010
      10       -0.000009791941     0.000004173029     0.000003705936
      11       -0.000000910121    -0.000001133516     0.000004769115
      12        0.000006701981     0.000000599656    -0.000004469541
      13       -0.000000631998     0.000008150093     0.000011352831
      14       -0.000004453038    -0.000007052362    -0.000003685337
      15        0.000006687798    -0.000004654841    -0.000002191221
      16       -0.000017821251    -0.000009853651     0.000001132357
      17       -0.000006217836    -0.000000911460    -0.000004697426
      18        0.000001278696     0.000006624740    -0.000003180425
      19        0.000008665069     0.000008522281     0.000000582875
      20       -0.000002178065    -0.000000055366     0.000000085510
      21        0.000006110599     0.000006439720     0.000002792201
      22       -0.000016299861     0.000003899262    -0.000006936904
      23       -0.000004785852     0.000001597766    -0.000004317434
      24        0.000005489808     0.000000427639    -0.000002648643
      25       -0.000001194836     0.000002937498     0.000000853302
      26        0.000008342204    -0.000000370003    -0.000002825186
      27        0.000003169531     0.000003410779     0.000004636259

  **** Optimization is complete! (in 11 steps) ****
    Final optimized geometry and variables:
    Molecular point group: c1

    Geometry (in Angstrom), charge = 0, multiplicity = 1:

    H           -1.200834110121     4.749830665842    -0.907050186757
    O           -0.292165084919     4.605906733680    -0.713485924764
    C           -0.129194901248     3.384606078101    -0.043314028191
    C           -0.513476963256     2.179108794692    -0.892325868063
    H            0.923017186100     3.334456831528     0.206029914835
    H           -0.680990817946     3.380390108351     0.893618815162
    C            0.108750343070     0.881549510440    -0.378549683936
    H           -1.595190980169     2.061132344934    -0.887667250444
    H           -0.203297231937     2.362635002168    -1.914980962936
    C           -0.335478206049    -0.345072258733    -1.173285131418
    H           -0.145712661661     0.756144531446     0.669726583448
    H            1.192018574715     0.963477711653    -0.422960700881
    C            0.343249106938    -1.655396899560    -0.770385503474
    H           -1.413550761383    -0.458602339939    -1.086050615598
    H           -0.135581592315    -0.164469486293    -2.225844900241
    C            0.000517921038    -2.155811453628     0.631588971705
    H            0.062313645777    -2.420426025174    -1.488962816561
    H            1.421297034996    -1.541561348351    -0.857657204782
    C            0.623173619216    -3.512536252239     0.950519287189
    H           -1.080526647780    -2.226681796270     0.731972631034
    H            0.329130346917    -1.436238116673     1.375230630977
    C            0.286690249421    -4.012901427930     2.351283177971
    H            0.288836728713    -4.241991838703     0.217912364092
    H            1.702361753832    -3.445867077455     0.842048085308
    H           -0.785036287397    -4.121844594056     2.481043657173
    H            0.742309852346    -4.977393778129     2.544221365881
    H            0.641333178157    -3.322513479740     3.109475452029

  Mulliken Charges: (a.u.)
   Center  Symbol    Alpha    Beta     Spin     Total
       1     H     0.39525  0.39525  0.00000  0.20950
       2     O     4.20086  4.20086  0.00000 -0.40172
       3     C     2.96574  2.96574  0.00000  0.06852
       4     C     3.09861  3.09861  0.00000 -0.19723
       5     H     0.45822  0.45822  0.00000  0.08355
       6     H     0.46931  0.46931  0.00000  0.06138
       7     C     3.10120  3.10120  0.00000 -0.20239
       8     H     0.46038  0.46038  0.00000  0.07925
       9     H     0.44714  0.44714  0.00000  0.10572
      10     C     3.09951  3.09951  0.00000 -0.19901
      11     H     0.45301  0.45301  0.00000  0.09398
      12     H     0.45216  0.45216  0.00000  0.09569
      13     C     3.09815  3.09815  0.00000 -0.19630
      14     H     0.45335  0.45335  0.00000  0.09331
      15     H     0.44728  0.44728  0.00000  0.10545
      16     C     3.08813  3.08813  0.00000 -0.17627
      17     H     0.44822  0.44822  0.00000  0.10356
      18     H     0.45317  0.45317  0.00000  0.09367
      19     C     3.08403  3.08403  0.00000 -0.16806
      20     H     0.45547  0.45547  0.00000  0.08906
      21     H     0.45355  0.45355  0.00000  0.09290
      22     C     3.14973  3.14973  0.00000 -0.29945
      23     H     0.45398  0.45398  0.00000  0.09203
      24     H     0.45439  0.45439  0.00000  0.09121
      25     H     0.45538  0.45538  0.00000  0.08924
      26     H     0.44833  0.44833  0.00000  0.10334
      27     H     0.45547  0.45547  0.00000  0.08907

   Total alpha = 37.00000, Total beta = 37.00000, Total charge = -0.00000

*** Psi4 exiting successfully. Buy a developer a beer!
