  ==> Input File <==

--------------------------------------------------------------------------
set {
	reference rhf
	basis 6-31G*
}

set_num_threads( 4 )
memory 2 gb

molecule MOL {
0 1

H	 -4.217246	 0.600588	 -0.091699
O	 -3.517110	 -0.026191	 -0.205115
C	 -2.306886	 0.532354	 0.237577
C	 -1.177863	 -0.397191	 -0.171080
H	 -2.156308	 1.517575	 -0.201710
H	 -2.315015	 0.655684	 1.319734
C	 0.198102	 0.111031	 0.262842
H	 -1.208843	 -0.518759	 -1.250427
H	 -1.368741	 -1.376554	 0.258909
C	 1.331804	 -0.827780	 -0.158768
H	 0.361943	 1.100838	 -0.156218
H	 0.217265	 0.229072	 1.345532
C	 2.723619	 -0.410569	 0.329459
H	 1.342964	 -0.912588	 -1.244120
H	 1.116806	 -1.824343	 0.220779
C	 3.243875	 0.895854	 -0.272975
H	 3.424222	 -1.207124	 0.091250
H	 2.714788	 -0.329854	 1.414619
H	 3.251977	 0.848779	 -1.358681
H	 2.637085	 1.747371	 0.016682
H	 4.259473	 1.094070	 0.055697

	symmetry c1
}
set optking {
	frozen_dihedral = ("
		1 2 3 5
	")
}

ee = optimize('scf')
oeprop('DIPOLE', 'QUADRUPOLE', 'MULLIKEN_CHARGES')
f=open( 'psi4out.xyz', 'w' )
f.write( "21  " )
f.write( str(ee) + "\n" )
f.write( MOL.save_string_xyz() )
f.close()
--------------------------------------------------------------------------

    Molecular point group: c1
  Charge       = 0
  Multiplicity = 1
  Basis Set: 6-31G*
  Basis Set:
  @DF-RHF Final Energy:  -310.21271320594167
    Total Energy =                       -310.2127132059418955
    Molecular point group: c1
  Basis Set: 6-31G*
  Basis Set:
  Basis Set: 6-31G*
  Basis Set:
  @DF-RHF Final Energy:  -310.21271809305733
    Total Energy =                       -310.2127180930573331
  Basis Set: 6-31G*
  Basis Set:
  Basis Set: 6-31G*
  Basis Set:
  @DF-RHF Final Energy:  -310.21271978474306
    Total Energy =                       -310.2127197847430580
  Basis Set: 6-31G*
  Basis Set:
  Charge       = 0
  Multiplicity = 1
  Basis Set: 6-31G*
  Basis Set:

    Orbital Energies (a.u.)
    -----------------------

    Doubly Occupied:

       1A    -20.551721     2A    -11.267082     3A    -11.215707
       4A    -11.215180     5A    -11.213624     6A    -11.210708
       7A    -11.208274     8A     -1.358539     9A     -1.086305
      10A     -1.033246    11A     -0.954436    12A     -0.875761
      13A     -0.807387    14A     -0.779004    15A     -0.693022
      16A     -0.660642    17A     -0.622610    18A     -0.606305
      19A     -0.586875    20A     -0.570117    21A     -0.535668
      22A     -0.520081    23A     -0.511384    24A     -0.485373
      25A     -0.480933    26A     -0.460750    27A     -0.455984
      28A     -0.444173    29A     -0.432687

  @DF-RHF Final Energy:  -310.21271984490875

   => Energetics <=

    Nuclear Repulsion Energy =            312.4555525249920720
    One-Electron Energy =               -1039.6493862319402979
    Two-Electron Energy =                 416.9811138620396491
    DFT Exchange-Correlation Energy =       0.0000000000000000
    Empirical Dispersion Energy =           0.0000000000000000
    PCM Polarization Energy =               0.0000000000000000
    EFP Energy =                            0.0000000000000000
    Total Energy =                       -310.2127198449085768
    Molecular point group: c1
  Basis Set: 6-31G*
  Basis Set:

  -Total Gradient:
     Atom            X                  Y                   Z
    ------   -----------------  -----------------  -----------------
       1        0.000169893691     0.000268017930    -0.000762279461
       2       -0.000299855544    -0.000256002273     0.001060959299
       3        0.000534793487    -0.000414419469    -0.000893728708
       4       -0.000015461929     0.000026369985    -0.000041538423
       5       -0.000359464426     0.000293903134     0.000609080019
       6        0.000007867490     0.000074345640     0.000020625254
       7       -0.000005221833     0.000019619829     0.000008169019
       8        0.000028981759    -0.000027050194    -0.000008740582
       9       -0.000036490747     0.000020971327     0.000015594541
      10       -0.000013772311    -0.000020888519     0.000013132529
      11        0.000035990493     0.000048892707     0.000009043476
      12       -0.000013447202    -0.000021307354    -0.000019637891
      13        0.000014592682    -0.000014961701    -0.000030624826
      14        0.000005536151    -0.000020214328     0.000002695708
      15       -0.000013015918     0.000008661274     0.000013501712
      16       -0.000018181437     0.000005109722     0.000009596933
      17        0.000000985456     0.000007374744    -0.000012379791
      18        0.000008272766    -0.000014780090    -0.000002654274
      19        0.000007038422    -0.000006299972     0.000007432099
      20       -0.000035456619     0.000013422671    -0.000005650584
      21       -0.000003584418     0.000009234940     0.000007403951

  **** Optimization is complete! (in 4 steps) ****
    Final optimized geometry and variables:
    Molecular point group: c1

    Geometry (in Angstrom), charge = 0, multiplicity = 1:

    H           -4.220328102961     0.593540915517    -0.074384300862
    O           -3.519284423571    -0.031475419884    -0.190486605922
    C           -2.305171136867     0.535693978045     0.230980416985
    C           -1.177240815863    -0.396160045019    -0.174426052887
    H           -2.162924260116     1.516978400028    -0.219387623662
    H           -2.304611486740     0.674291270575     1.311488770437
    C            0.198791144921     0.110633967906     0.260860181368
    H           -1.206769313675    -0.521578258486    -1.253339621011
    H           -1.370642706895    -1.373692642476     0.258710612625
    C            1.331960001078    -0.829191322643    -0.159874213388
    H            0.364259562884     1.100530069254    -0.157618497141
    H            0.216736672258     0.228212171316     1.343520306663
    C            2.723742508988    -0.412802913729     0.329111208949
    H            1.343805627767    -0.914258295035    -1.245210073216
    H            1.115872566735    -1.825475102795     0.219784277843
    C            3.242079957243     0.896884403454    -0.267872940380
    H            3.425005085629    -1.207540402048     0.086844989152
    H            2.715634699527    -0.336885267689     1.414613598105
    H            3.250849804781     0.854087062807    -1.353752872517
    H            2.633624445624     1.746191654178     0.024809931047
    H            4.257149900720     1.095593498614     0.062121853682

  Mulliken Charges: (a.u.)
   Center  Symbol    Alpha    Beta     Spin     Total
       1     H     0.28109  0.28109  0.00000  0.43781
       2     O     4.37196  4.37196  0.00000 -0.74393
       3     C     2.98976  2.98976  0.00000  0.02049
       4     C     3.15884  3.15884  0.00000 -0.31768
       5     H     0.43336  0.43336  0.00000  0.13328
       6     H     0.43231  0.43231  0.00000  0.13539
       7     C     3.16197  3.16197  0.00000 -0.32394
       8     H     0.41533  0.41533  0.00000  0.16933
       9     H     0.41437  0.41437  0.00000  0.17125
      10     C     3.15177  3.15177  0.00000 -0.30354
      11     H     0.42180  0.42180  0.00000  0.15641
      12     H     0.42378  0.42378  0.00000  0.15244
      13     C     3.15250  3.15250  0.00000 -0.30501
      14     H     0.42310  0.42310  0.00000  0.15380
      15     H     0.42087  0.42087  0.00000  0.15825
      16     C     3.24120  3.24120  0.00000 -0.48240
      17     H     0.42061  0.42061  0.00000  0.15878
      18     H     0.42348  0.42348  0.00000  0.15303
      19     H     0.42203  0.42203  0.00000  0.15594
      20     H     0.42064  0.42064  0.00000  0.15871
      21     H     0.41921  0.41921  0.00000  0.16158

   Total alpha = 29.00000, Total beta = 29.00000, Total charge =  0.00000
