  ==> Input File <==

--------------------------------------------------------------------------
set {
	reference rhf
	basis 6-31G*
}

set_num_threads( 1 )
memory 2 gb

molecule MOL {
0 1

H	 3.253074	 0.098092	 0.259561
N	 2.434251	 -0.367735	 -0.081097
C	 1.267428	 0.496480	 0.024474
H	 2.314327	 -1.189715	 0.480046
C	 -0.016086	 -0.325158	 -0.029487
H	 1.288818	 1.183521	 -0.816092
H	 1.267576	 1.109062	 0.929528
C	 -1.282277	 0.529072	 0.046735
H	 -0.012495	 -0.908639	 -0.945788
H	 -0.015903	 -1.041248	 0.791956
C	 -2.563920	 -0.301775	 -0.006060
H	 -1.284084	 1.244622	 -0.773004
H	 -1.271387	 1.115393	 0.963286
H	 -2.621848	 -0.873522	 -0.927727
H	 -3.445135	 0.329952	 0.047812
H	 -2.609542	 -1.004582	 0.821105

	symmetry c1
}
set optking {
	frozen_dihedral = ("
		6 3 5 9,
		12 8 5 9
	")
}

ee = energy('scf')
oeprop('DIPOLE', 'QUADRUPOLE', 'MULLIKEN_CHARGES')
f=open( 'psi4out.xyz', 'w' )
f.write( "16  " )
f.write( str(ee) + "\n" )
f.write( MOL.save_string_xyz() )
f.close()
--------------------------------------------------------------------------

    Molecular point group: c1

    Geometry (in Angstrom), charge = 0, multiplicity = 1:

       Center              X                  Y                   Z               Mass
    ------------   -----------------  -----------------  -----------------  -----------------
           H          3.255980123418     0.102231656099     0.257788919880     1.007825032070
           N          2.437157123418    -0.363595343901    -0.082869080120    14.003074004780
           C          1.270334123418     0.500619656099     0.022701919880    12.000000000000
           H          2.317233123418    -1.185575343901     0.478273919880     1.007825032070
           C         -0.013179876582    -0.321018343901    -0.031259080120    12.000000000000
           H          1.291724123418     1.187660656099    -0.817864080120     1.007825032070
           H          1.270482123418     1.113201656099     0.927755919880     1.007825032070
           C         -1.279370876582     0.533211656099     0.044962919880    12.000000000000
           H         -0.009588876582    -0.904499343901    -0.947560080120     1.007825032070
           H         -0.012996876582    -1.037108343901     0.790183919880     1.007825032070
           C         -2.561013876582    -0.297635343901    -0.007832080120    12.000000000000
           H         -1.281177876582     1.248761656099    -0.774776080120     1.007825032070
           H         -1.268480876582     1.119532656099     0.961513919880     1.007825032070
           H         -2.618941876582    -0.869382343901    -0.929499080120     1.007825032070
           H         -3.442228876582     0.334091656099     0.046039919880     1.007825032070
           H         -2.606635876582    -1.000442343901     0.819332919880     1.007825032070

  Charge       = 0
  Multiplicity = 1
  Basis Set: 6-31G*
  Basis Set:

    Orbital Energies (a.u.)
    -----------------------

    Doubly Occupied:

       1A    -15.531287     2A    -11.239324     3A    -11.217299
       4A    -11.213911     5A    -11.209567     6A     -1.176699
       7A     -1.061304     8A     -0.959662     9A     -0.845022
      10A     -0.796006    11A     -0.654631    12A     -0.647093
      13A     -0.602729    14A     -0.574643    15A     -0.571378
      16A     -0.522659    17A     -0.506779    18A     -0.472581
      19A     -0.467451    20A     -0.460597    21A     -0.380185

  @DF-RHF Final Energy:  -212.31562949162091

   => Energetics <=

    Nuclear Repulsion Energy =            186.4284039899085599
    One-Electron Energy =                -655.2665606299743786
    Two-Electron Energy =                 256.5225271484449650
    DFT Exchange-Correlation Energy =       0.0000000000000000
    Empirical Dispersion Energy =           0.0000000000000000
    PCM Polarization Energy =               0.0000000000000000
    EFP Energy =                            0.0000000000000000
    Total Energy =                       -212.3156294916208253

  Mulliken Charges: (a.u.)
   Center  Symbol    Alpha    Beta     Spin     Total
       1     H     0.33300  0.33300  0.00000  0.33399
       2     N     3.92410  3.92410  0.00000 -0.84820
       3     C     3.05291  3.05291  0.00000 -0.10581
       4     H     0.33528  0.33528  0.00000  0.32945
       5     C     3.15950  3.15950  0.00000 -0.31900
       6     H     0.41998  0.41998  0.00000  0.16004
       7     H     0.43471  0.43471  0.00000  0.13058
       8     C     3.15475  3.15475  0.00000 -0.30949
       9     H     0.41327  0.41327  0.00000  0.17347
      10     H     0.42789  0.42789  0.00000  0.14422
      11     C     3.23908  3.23908  0.00000 -0.47815
      12     H     0.42119  0.42119  0.00000  0.15762
      13     H     0.42295  0.42295  0.00000  0.15410
      14     H     0.42042  0.42042  0.00000  0.15916
      15     H     0.41903  0.41903  0.00000  0.16195
      16     H     0.42196  0.42196  0.00000  0.15608

   Total alpha = 21.00000, Total beta = 21.00000, Total charge =  0.00000
