                              Psi4 1.0.54 Driver

  ==> Input File <==

--------------------------------------------------------------------------
set {
	reference rhf
	basis cc-pvtz
}

set_num_threads( 4 )
memory 2 gb

molecule MOL {
0 1

H	 -1.835082	 1.385983	 0.000069
C	 -1.300516	 0.441153	 -0.000028
O	 -0.006604	 0.654344	 -0.000106
O	 -1.828920	 -0.612308	 0.000113
C	 0.489982	 1.715522	 0.810528
C	 1.990150	 1.760742	 0.642734
H	 0.208618	 1.531473	 1.837620
H	 0.025428	 2.640107	 0.498606
H	 2.441301	 0.827542	 0.955098
H	 2.400468	 2.559974	 1.248308
H	 2.257195	 1.941723	 -0.390659

	symmetry c1
}
set optking {
	frozen_dihedral = ("
		5 3 2 4
	")
}

ee,wfn = optimize('scf', return_wfn=True)
oeprop( wfn, 'DIPOLE', 'QUADRUPOLE', 'MULLIKEN_CHARGES')
f=open( 'psi4out.xyz', 'w' )
f.write( "11  " )
f.write( str(ee) + "\n" )
f.write( MOL.save_string_xyz() )
f.close()
--------------------------------------------------------------------------

    Molecular point group: c1
  Charge       = 0
  Multiplicity = 1
  Basis Set: CC-PVTZ
  Basis Set:
  @DF-RHF Final Energy:  -266.91847820505802
    Total Energy =                       -266.9184782050580225
    Molecular point group: c1
  Basis Set: CC-PVTZ
  Basis Set:
  Basis Set: CC-PVTZ
  Basis Set:
  @DF-RHF Final Energy:  -266.91931838015091
    Total Energy =                       -266.9193183801509690
  Basis Set: CC-PVTZ
  Basis Set:
  Basis Set: CC-PVTZ
  Basis Set:
  @DF-RHF Final Energy:  -266.91725923406580
    Total Energy =                       -266.9172592340656252
  Basis Set: CC-PVTZ
  Basis Set:
  Basis Set: CC-PVTZ
  Basis Set:
  @DF-RHF Final Energy:  -266.91975380272498
    Total Energy =                       -266.9197538027251539
  Basis Set: CC-PVTZ
  Basis Set:
  Basis Set: CC-PVTZ
  Basis Set:
  @DF-RHF Final Energy:  -266.91977957194160
    Total Energy =                       -266.9197795719415467
  Basis Set: CC-PVTZ
  Basis Set:
  Basis Set: CC-PVTZ
  Basis Set:
  @DF-RHF Final Energy:  -266.91978975618042
    Total Energy =                       -266.9197897561803643
  Basis Set: CC-PVTZ
  Basis Set:
  Charge       = 0
  Multiplicity = 1
  Basis Set: CC-PVTZ
  Basis Set:

    Orbital Energies (a.u.)
    -----------------------

    Doubly Occupied:

       1A    -20.599324     2A    -20.550363     3A    -11.372598
       4A    -11.304013     5A    -11.231009     6A     -1.474557
       7A     -1.384637     8A     -1.054674     9A     -0.889282
      10A     -0.844539    11A     -0.742918    12A     -0.694430
      13A     -0.664585    14A     -0.623359    15A     -0.570625
      16A     -0.554133    17A     -0.538854    18A     -0.515121
      19A     -0.464998    20A     -0.454611

  @DF-RHF Final Energy:  -266.91979035250131

   => Energetics <=

    Nuclear Repulsion Energy =            176.7398531393124870
    One-Electron Energy =                -714.2620284297565831
    Two-Electron Energy =                 270.6023849379428157
    DFT Exchange-Correlation Energy =       0.0000000000000000
    Empirical Dispersion Energy =           0.0000000000000000
    PCM Polarization Energy =               0.0000000000000000
    EFP Energy =                            0.0000000000000000
    Total Energy =                       -266.9197903525013089
    Molecular point group: c1
  Basis Set: CC-PVTZ
  Basis Set:

  -Total Gradient:
     Atom            X                  Y                   Z
    ------   -----------------  -----------------  -----------------
       1       -0.000008662684     0.000040770454     0.000026938758
       2        0.000869446181    -0.002360253334    -0.006566163487
       3        0.000023885933     0.003872015148    -0.002832828449
       4       -0.000681396449     0.000734610941     0.005600825765
       5       -0.000213162522    -0.002317460456     0.003757341941
       6       -0.000025726898    -0.000003830732     0.000001403995
       7        0.000037361923     0.000030307785     0.000014156431
       8        0.000020236816     0.000006929853    -0.000001599858
       9       -0.000003570208    -0.000003969438     0.000002719026
      10       -0.000008752120    -0.000001393621     0.000000161771
      11       -0.000009659975     0.000002273401    -0.000002955896

  **** Optimization is complete! (in 7 steps) ****
    Final optimized geometry and variables:
    Molecular point group: c1

    Geometry (in Angstrom), charge = 0, multiplicity = 1:

    H           -1.660417207565     0.645441681437    -0.504929606987
    C           -1.172072795544    -0.315357234756    -0.333304831141
    O            0.142398196852    -0.222617905261    -0.202572534394
    O           -1.763583296434    -1.324326513312    -0.261651997161
    C            0.652262325886     0.881597044707     0.523259547990
    C            2.137992820626     0.977207141339     0.268914549333
    H            0.449368079665     0.729050782196     1.576461778469
    H            0.148524590814     1.790539719493     0.208749356515
    H            2.633947846840     0.066001439892     0.575924045147
    H            2.555170814188     1.804335297912     0.830740683462
    H            2.335369839511     1.138203160351    -0.783043802024

  Mulliken Charges: (a.u.)
   Center  Symbol    Alpha    Beta     Spin     Total
       1     H     0.47554  0.47554  0.00000  0.04891
       2     C     2.84236  2.84236  0.00000  0.31527
       3     O     4.13427  4.13427  0.00000 -0.26854
       4     O     4.16954  4.16954  0.00000 -0.33909
       5     C     2.97566  2.97566  0.00000  0.04868
       6     C     3.13270  3.13270  0.00000 -0.26539
       7     H     0.45652  0.45652  0.00000  0.08696
       8     H     0.46377  0.46377  0.00000  0.07247
       9     H     0.44496  0.44496  0.00000  0.11008
      10     H     0.45549  0.45549  0.00000  0.08902
      11     H     0.44918  0.44918  0.00000  0.10164

   Total alpha = 20.00000, Total beta = 20.00000, Total charge = -0.00000

*** Psi4 exiting successfully. Buy a developer a beer!
