  ==> Input File <==

--------------------------------------------------------------------------
set {
	reference rhf
	basis 6-31G*
}

set_num_threads( 1 )
memory 2 gb

molecule MOL {
0 1

H	 0.340614	 -3.436405	 -0.411429
O	 0.787984	 -2.666349	 -0.074342
C	 -0.009266	 -1.613457	 -0.253860
C	 0.624473	 -0.343591	 0.253101
O	 -1.080914	 -1.711432	 -0.756840
C	 -0.265902	 0.883932	 0.072916
H	 0.882396	 -0.511623	 1.293588
H	 1.569106	 -0.223907	 -0.271395
C	 -1.728698	 0.646073	 0.462102
H	 -0.209144	 1.219470	 -0.958188
H	 0.135059	 1.692851	 0.673903
C	 -2.482460	 -0.343073	 -0.431425
H	 -2.245265	 1.602650	 0.432430
H	 -1.779332	 0.308348	 1.496285
C	 -3.960546	 -0.461025	 -0.060175
H	 -2.395034	 -0.026811	 -1.468912
H	 -2.024850	 -1.327147	 -0.371646
H	 -4.472726	 -1.168004	 -0.705284
H	 -4.465146	 0.496508	 -0.151489
H	 -4.081218	 -0.800940	 0.964585

	symmetry c1
}
set optking {
	frozen_dihedral = ("
		16 12 9 6,
		12 9 6 10,
		5 3 4 7,
		1 2 3 5
	")
}

ee = energy('scf')
oeprop('DIPOLE', 'QUADRUPOLE', 'MULLIKEN_CHARGES')
f=open( 'psi4out.xyz', 'w' )
f.write( "20  " )
f.write( str(ee) + "\n" )
f.write( MOL.save_string_xyz() )
f.close()
--------------------------------------------------------------------------

    Molecular point group: c1

    Geometry (in Angstrom), charge = 0, multiplicity = 1:

       Center              X                  Y                   Z               Mass
    ------------   -----------------  -----------------  -----------------  -----------------
           H          1.352352709392    -2.687049727535    -0.305847959568     1.007825032070
           O          1.799722709392    -1.916993727535     0.031239040432    15.994914619560
           C          1.002472709392    -0.864101727535    -0.148278959568    12.000000000000
           C          1.636211709392     0.405764272465     0.358682040432    12.000000000000
           O         -0.069175290608    -0.962076727535    -0.651258959568    15.994914619560
           C          0.745836709392     1.633287272465     0.178497040432    12.000000000000
           H          1.894134709392     0.237732272465     1.399169040432     1.007825032070
           H          2.580844709392     0.525448272465    -0.165813959568     1.007825032070
           C         -0.716959290608     1.395428272465     0.567683040432    12.000000000000
           H          0.802594709392     1.968825272465    -0.852606959568     1.007825032070
           H          1.146797709392     2.442206272465     0.779484040432     1.007825032070
           C         -1.470721290608     0.406282272465    -0.325843959568    12.000000000000
           H         -1.233526290608     2.352005272465     0.538011040432     1.007825032070
           H         -0.767593290608     1.057703272465     1.601866040432     1.007825032070
           C         -2.948807290608     0.288330272465     0.045406040432    12.000000000000
           H         -1.383295290608     0.722544272465    -1.363330959568     1.007825032070
           H         -1.013111290608    -0.577791727535    -0.266064959568     1.007825032070
           H         -3.460987290608    -0.418648727535    -0.599702959568     1.007825032070
           H         -3.453407290608     1.245863272465    -0.045907959568     1.007825032070
           H         -3.069479290608    -0.051584727535     1.070166040432     1.007825032070

  Charge       = 0
  Multiplicity = 1
  Basis Set: 6-31G*
  Basis Set:

    Orbital Energies (a.u.)
    -----------------------

    Doubly Occupied:

       1A    -20.631113     2A    -20.569719     3A    -11.405159
       4A    -11.251849     5A    -11.225071     6A    -11.199703
       7A    -11.169296     8A    -11.128931     9A     -1.511893
      10A     -1.414931    11A     -1.092124    12A     -1.034021
      13A     -0.943439    14A     -0.888585    15A     -0.859084
      16A     -0.784018    17A     -0.727014    18A     -0.705214
      19A     -0.687256    20A     -0.629317    21A     -0.607411
      22A     -0.590761    23A     -0.570115    24A     -0.538022
      25A     -0.532962    26A     -0.519726    27A     -0.510170
      28A     -0.480578    29A     -0.478643    30A     -0.431053
      31A     -0.425542    32A     -0.296034

  @DF-RHF Final Energy:  -383.75523617078011

   => Energetics <=

    Nuclear Repulsion Energy =            409.5698408316429777
    One-Electron Energy =               -1334.9726288716474301
    Two-Electron Energy =                 541.6475518692245714
    DFT Exchange-Correlation Energy =       0.0000000000000000
    Empirical Dispersion Energy =           0.0000000000000000
    PCM Polarization Energy =               0.0000000000000000
    EFP Energy =                            0.0000000000000000
    Total Energy =                       -383.7552361707798809

  Mulliken Charges: (a.u.)
   Center  Symbol    Alpha    Beta     Spin     Total
       1     H     0.26639  0.26639  0.00000  0.46722
       2     O     4.34523  4.34523  0.00000 -0.69047
       3     C     2.62304  2.62304  0.00000  0.75391
       4     C     3.21272  3.21272  0.00000 -0.42544
       5     O     4.27050  4.27050  0.00000 -0.54101
       6     C     3.15951  3.15951  0.00000 -0.31902
       7     H     0.39370  0.39370  0.00000  0.21261
       8     H     0.39273  0.39273  0.00000  0.21454
       9     C     3.16265  3.16265  0.00000 -0.32530
      10     H     0.41432  0.41432  0.00000  0.17136
      11     H     0.41358  0.41358  0.00000  0.17285
      12     C     3.17784  3.17784  0.00000 -0.35569
      13     H     0.42121  0.42121  0.00000  0.15757
      14     H     0.43118  0.43118  0.00000  0.13764
      15     C     3.22945  3.22945  0.00000 -0.45891
      16     H     0.44116  0.44116  0.00000  0.11769
      17     H     0.33660  0.33660  0.00000  0.32680
      18     H     0.43085  0.43085  0.00000  0.13830
      19     H     0.44047  0.44047  0.00000  0.11906
      20     H     0.43687  0.43687  0.00000  0.12626

   Total alpha = 32.00000, Total beta = 32.00000, Total charge = -0.00000
