  ==> Input File <==

--------------------------------------------------------------------------
set {
	reference rhf
	basis cc-pvtz
}

set_num_threads( 4 )
memory 2 gb

molecule MOL {
0 1

H	 1.077000	 -2.119000	 -0.000000
C	 0.603000	 -1.151000	 -0.000000
N	 -0.717000	 -1.162000	 -0.000000
C	 1.382000	 -0.004000	 0.000000
C	 -1.366000	 -0.009000	 0.000000
C	 0.693000	 1.201000	 0.000000
C	 2.890000	 -0.065000	 0.000000
C	 -0.688000	 1.204000	 -0.000000
C	 -2.871000	 -0.082000	 -0.000000
H	 1.233000	 2.133000	 -0.000000
H	 3.305000	 0.424000	 -0.876000
H	 3.238000	 -1.092000	 -0.000000
H	 3.305000	 0.424000	 0.876000
H	 -1.233000	 2.130000	 -0.000000
H	 -3.220000	 -0.621000	 -0.874000
H	 -3.321000	 0.904000	 -0.000000
H	 -3.220000	 -0.621000	 0.874000

	symmetry c1
}
ee = optimize('scf')
oeprop('DIPOLE', 'QUADRUPOLE', 'MULLIKEN_CHARGES')
f=open( 'psi4out.xyz', 'w' )
f.write( "17  " )
f.write( str(ee) + "\n" )
f.write( MOL.save_string_xyz() )
f.close()
--------------------------------------------------------------------------

    Molecular point group: c1
  Charge       = 0
  Multiplicity = 1
  Basis Set: CC-PVTZ
  Basis Set:
  @DF-RHF Final Energy:  -324.88121324222647
    Total Energy =                       -324.8812132422266359
    Molecular point group: c1
  Basis Set: CC-PVTZ
  Basis Set:
  Basis Set: CC-PVTZ
  Basis Set:
  @DF-RHF Final Energy:  -324.88133397324185
    Total Energy =                       -324.8813339732419081
  Basis Set: CC-PVTZ
  Basis Set:
  Charge       = 0
  Multiplicity = 1
  Basis Set: CC-PVTZ
  Basis Set:

    Orbital Energies (a.u.)
    -----------------------

    Doubly Occupied:

       1A    -15.546406     2A    -11.266745     3A    -11.257129
       4A    -11.242798     5A    -11.234458     6A    -11.225840
       7A    -11.225009     8A    -11.213964     9A     -1.262837
      10A     -1.099677    11A     -1.060697    12A     -0.986502
      13A     -0.914169    14A     -0.856589    15A     -0.809643
      16A     -0.687966    17A     -0.672328    18A     -0.626537
      19A     -0.592834    20A     -0.575874    21A     -0.575367
      22A     -0.558452    23A     -0.546480    24A     -0.534672
      25A     -0.508703    26A     -0.501134    27A     -0.403008
      28A     -0.375170    29A     -0.326056

  @DF-RHF Final Energy:  -324.88133853021748

   => Energetics <=

    Nuclear Repulsion Energy =            346.8937375034494153
    One-Electron Energy =               -1126.1760613246262892
    Two-Electron Energy =                 454.4009852909593405
    DFT Exchange-Correlation Energy =       0.0000000000000000
    Empirical Dispersion Energy =           0.0000000000000000
    PCM Polarization Energy =               0.0000000000000000
    EFP Energy =                            0.0000000000000000
    Total Energy =                       -324.8813385302175334
    Molecular point group: c1
  Basis Set: CC-PVTZ
  Basis Set:

  -Total Gradient:
     Atom            X                  Y                   Z
    ------   -----------------  -----------------  -----------------
       1        0.000009581730    -0.000009544459     0.000000000007
       2       -0.000018545674     0.000020577407    -0.000000000091
       3       -0.000177889443    -0.000158567997    -0.000000000012
       4        0.000096878378     0.000054183493     0.000000000048
       5        0.000405976212     0.000062958921     0.000000000248
       6       -0.000057738792    -0.000120803402     0.000000000000
       7       -0.000011023128    -0.000029354808     0.000000000180
       8       -0.000161832005     0.000127475720    -0.000000000089
       9       -0.000022335283     0.000016399789    -0.000000000011
      10       -0.000025914099     0.000007040232     0.000000000002
      11       -0.000018305353     0.000007496886     0.000022496042
      12        0.000026516559    -0.000011105258    -0.000000000012
      13       -0.000018305447     0.000007496963    -0.000022496222
      14       -0.000040389099     0.000000003670    -0.000000000000
      15        0.000016935644    -0.000001051018     0.000021919186
      16       -0.000020545883     0.000027844951    -0.000000000015
      17        0.000016935681    -0.000001051088    -0.000021919258

  **** Optimization is complete! (in 3 steps) ****
    Final optimized geometry and variables:
    Molecular point group: c1

    Geometry (in Angstrom), charge = 0, multiplicity = 1:

    H           -2.098952372110    -1.087648149324    -0.000000000912
    C           -1.133489703883    -0.613007739569    -0.000000000425
    N           -1.143440058589     0.703929162811     0.000000000240
    C            0.010762484757    -1.389767639555     0.000000000049
    C            0.004390020208     1.352772075108     0.000000000790
    C            1.211704973333    -0.701681827978    -0.000000000006
    C           -0.050442080442    -2.895008066945    -0.000000000257
    C            1.214643639198     0.675541518584     0.000000000056
    C           -0.065772337416     2.855454388217    -0.000000000183
    H            2.142644942033    -1.239459593002    -0.000000000122
    H            0.439086518291    -3.308045305636    -0.874663803442
    H           -1.075201047737    -3.242050144247    -0.000000000663
    H            0.439086517605    -3.308045305862     0.874663803140
    H            2.138763748416     1.219504011072    -0.000000000158
    H           -0.604148557694     3.202539771836    -0.873115931912
    H            0.919702837750     3.301711636909    -0.000000001570
    H           -0.604148555847     3.202539772938     0.873115932038

  Mulliken Charges: (a.u.)
   Center  Symbol    Alpha    Beta     Spin     Total
       1     H     0.42404  0.42404  0.00000  0.15192
       2     C     3.08428  3.08428  0.00000 -0.16857
       3     N     3.60100  3.60100  0.00000 -0.20199
       4     C     2.94075  2.94075  0.00000  0.11850
       5     C     2.94472  2.94472  0.00000  0.11056
       6     C     3.10305  3.10305  0.00000 -0.20609
       7     C     3.14066  3.14066  0.00000 -0.28131
       8     C     3.09163  3.09163  0.00000 -0.18326
       9     C     3.13530  3.13530  0.00000 -0.27060
      10     H     0.42447  0.42447  0.00000  0.15105
      11     H     0.44793  0.44793  0.00000  0.10413
      12     H     0.45025  0.45025  0.00000  0.09951
      13     H     0.44793  0.44793  0.00000  0.10413
      14     H     0.41679  0.41679  0.00000  0.16641
      15     H     0.44596  0.44596  0.00000  0.10808
      16     H     0.45528  0.45528  0.00000  0.08945
      17     H     0.44596  0.44596  0.00000  0.10808

   Total alpha = 29.00000, Total beta = 29.00000, Total charge = -0.00000
