                              Psi4 1.0.54 Driver

  ==> Input File <==

--------------------------------------------------------------------------
set {
	reference rhf
	basis cc-pvtz
}

set_num_threads( 4 )
memory 2 gb

molecule MOL {
0 1

H	 2.930497	 -0.162535	 1.788799
C	 2.240819	 -0.476692	 1.012633
C	 0.983066	 0.380813	 1.047946
H	 1.989835	 -1.517472	 1.176050
H	 2.760309	 -0.404498	 0.065188
N	 0.000297	 0.000045	 0.046090
H	 0.533082	 0.274537	 2.025360
H	 1.250606	 1.436781	 0.951589
C	 -1.359159	 0.315706	 0.454404
C	 0.319551	 0.524668	 -1.272004
C	 -2.416729	 -0.286720	 -0.460525
H	 -1.478729	 1.390261	 0.442008
H	 -1.539692	 0.003361	 1.486761
C	 -0.221907	 -0.333131	 -2.407541
H	 1.395339	 0.570005	 -1.370416
H	 -0.037493	 1.552612	 -1.380463
H	 -2.285276	 0.073129	 -1.473515
H	 -2.371743	 -1.368476	 -0.483209
H	 -3.408658	 -0.007405	 -0.121593
H	 0.182735	 -1.335814	 -2.345904
H	 -1.302029	 -0.408303	 -2.385998
H	 0.057485	 0.092997	 -3.365229

	symmetry c1
}
set optking {
	frozen_dihedral = ("
		3 6 9 11
	")
}

ee,wfn = optimize('scf', return_wfn=True)
oeprop( wfn, 'DIPOLE', 'QUADRUPOLE', 'MULLIKEN_CHARGES')
f=open( 'psi4out.xyz', 'w' )
f.write( "22  " )
f.write( str(ee) + "\n" )
f.write( MOL.save_string_xyz() )
f.close()
--------------------------------------------------------------------------

    Molecular point group: c1
  Charge       = 0
  Multiplicity = 1
  Basis Set: CC-PVTZ
  Basis Set:
  @DF-RHF Final Energy:  -290.45620158307651
    Total Energy =                       -290.4562015830764494
    Molecular point group: c1
  Basis Set: CC-PVTZ
  Basis Set:
  Basis Set: CC-PVTZ
  Basis Set:
  @DF-RHF Final Energy:  -290.46937263403123
    Total Energy =                       -290.4693726340314583
  Basis Set: CC-PVTZ
  Basis Set:
  Basis Set: CC-PVTZ
  Basis Set:
  @DF-RHF Final Energy:  -290.46004302065217
    Total Energy =                       -290.4600430206522788
  Basis Set: CC-PVTZ
  Basis Set:
  Basis Set: CC-PVTZ
  Basis Set:
  @DF-RHF Final Energy:  -290.47297103939269
    Total Energy =                       -290.4729710393923483
  Basis Set: CC-PVTZ
  Basis Set:
  @DF-RHF Final Energy:  -290.47372671130387
    Total Energy =                       -290.4737267113036410
  @DF-RHF Final Energy:  -290.47410766445165
    Total Energy =                       -290.4741076644520490
  @DF-RHF Final Energy:  -290.47435918231724
    Total Energy =                       -290.4743591823170163
  @DF-RHF Final Energy:  -290.47443774884681
    Total Energy =                       -290.4744377488468672
  Basis Set: CC-PVTZ
  Basis Set:
  @DF-RHF Final Energy:  -290.47449243340924
    Total Energy =                       -290.4744924334091820
  Basis Set: CC-PVTZ
  Basis Set:
  Basis Set: CC-PVTZ
  Basis Set:
  @DF-RHF Final Energy:  -290.47451260084773
    Total Energy =                       -290.4745126008478451
  Basis Set: CC-PVTZ
  Basis Set:
  Basis Set: CC-PVTZ
  Basis Set:
  @DF-RHF Final Energy:  -290.47451616134327
    Total Energy =                       -290.4745161613429332
  Basis Set: CC-PVTZ
  Basis Set:
  Charge       = 0
  Multiplicity = 1
  Basis Set: CC-PVTZ
  Basis Set:

    Orbital Energies (a.u.)
    -----------------------

    Doubly Occupied:

       1A    -15.532871     2A    -11.239590     3A    -11.239036
       4A    -11.237965     5A    -11.205519     6A    -11.204344
       7A    -11.201002     8A     -1.224774     9A     -1.028494
      10A     -1.019532    11A     -0.959645    12A     -0.855876
      13A     -0.832978    14A     -0.774696    15A     -0.661829
      16A     -0.643207    17A     -0.609742    18A     -0.601013
      19A     -0.568550    20A     -0.558926    21A     -0.540063
      22A     -0.531713    23A     -0.513147    24A     -0.498971
      25A     -0.490141    26A     -0.476200    27A     -0.467979
      28A     -0.463769    29A     -0.342573

  @DF-RHF Final Energy:  -290.47451643226208

   => Energetics <=

    Nuclear Repulsion Energy =            339.3653213944432423
    One-Electron Energy =               -1064.6313801833093748
    Two-Electron Energy =                 434.7915423566044524
    DFT Exchange-Correlation Energy =       0.0000000000000000
    Empirical Dispersion Energy =           0.0000000000000000
    PCM Polarization Energy =               0.0000000000000000
    EFP Energy =                            0.0000000000000000
    Total Energy =                       -290.4745164322616233
    Molecular point group: c1
  Basis Set: CC-PVTZ
  Basis Set:

  -Total Gradient:
     Atom            X                  Y                   Z
    ------   -----------------  -----------------  -----------------
       1       -0.000009278462    -0.000001449822    -0.000001137099
       2       -0.000011977588     0.000006481691     0.000002431440
       3       -0.000020049971     0.001406931064    -0.000442503846
       4        0.000000483817    -0.000005142576    -0.000005144680
       5       -0.000007328586    -0.000002629965     0.000009602244
       6       -0.000053161716    -0.001375403029     0.000329865126
       7       -0.000005495245    -0.000001571038    -0.000006872013
       8       -0.000001485970     0.000002988972     0.000003516543
       9        0.000215719876    -0.001310357872     0.000721377816
      10        0.000057802998     0.000017375793    -0.000035265442
      11       -0.000140855100     0.001276005754    -0.000606297991
      12       -0.000000300206     0.000003956543     0.000000152575
      13       -0.000006896992    -0.000001144409     0.000016895970
      14       -0.000018695118     0.000005197384    -0.000006309237
      15       -0.000007438278     0.000004839170    -0.000004802701
      16        0.000012163289    -0.000024713952     0.000016021369
      17       -0.000004981287    -0.000006320289     0.000007603835
      18        0.000001153984     0.000002014789    -0.000001504908
      19        0.000004647745    -0.000000390066    -0.000003967820
      20       -0.000011678719     0.000010922490     0.000012695957
      21        0.000013757452    -0.000004010031    -0.000009052065
      22       -0.000006105925    -0.000003580600     0.000002694925

  **** Optimization is complete! (in 12 steps) ****
    Final optimized geometry and variables:
    Molecular point group: c1

    Geometry (in Angstrom), charge = 0, multiplicity = 1:

    H            3.320734993001    -0.274638415752     1.125583718153
    C            2.467211110977    -0.457083139103     0.481837983634
    C            1.225527981583     0.206133908964     1.061613228891
    H            2.319501069007    -1.527140533597     0.401834350012
    H            2.714424445025    -0.078300200334    -0.502229481713
    N            0.025780462360    -0.039729657737     0.280865064890
    H            1.063800973284    -0.195694046147     2.054063604860
    H            1.407383189807     1.277628953730     1.188704781686
    C           -1.176300104555     0.191527416670     1.062316483159
    C            0.032878346540     0.657453052489    -1.004460890323
    C           -2.458002254660    -0.274971379858     0.386508939262
    H           -1.280140771085     1.249762789664     1.326082351154
    H           -1.070723544799    -0.349197276533     1.994474135546
    C           -0.111055157311    -0.276541852190    -2.199591188427
    H            0.957599326726     1.212667154410    -1.108875669426
    H           -0.755612524284     1.404577211803    -1.030817839937
    H           -2.671878049186     0.274647081659    -0.520958047436
    H           -2.398497593691    -1.328009121762     0.139013585982
    H           -3.295928662152    -0.129927634533     1.059123956477
    H            0.699112382041    -0.995025553452    -2.220982919290
    H           -1.040257804046    -0.829773884399    -2.158214777508
    H           -0.092678483637     0.286559316179    -3.127665409494

  Mulliken Charges: (a.u.)
   Center  Symbol    Alpha    Beta     Spin     Total
       1     H     0.44967  0.44967  0.00000  0.10067
       2     C     3.14643  3.14643  0.00000 -0.29285
       3     C     3.03784  3.03784  0.00000 -0.07567
       4     H     0.45087  0.45087  0.00000  0.09826
       5     H     0.45505  0.45505  0.00000  0.08991
       6     N     3.61653  3.61653  0.00000 -0.23307
       7     H     0.45467  0.45467  0.00000  0.09066
       8     H     0.46776  0.46776  0.00000  0.06448
       9     C     3.03526  3.03526  0.00000 -0.07052
      10     C     3.06699  3.06699  0.00000 -0.13398
      11     C     3.15429  3.15429  0.00000 -0.30857
      12     H     0.47030  0.47030  0.00000  0.05940
      13     H     0.45504  0.45504  0.00000  0.08993
      14     C     3.13007  3.13007  0.00000 -0.26014
      15     H     0.44714  0.44714  0.00000  0.10573
      16     H     0.45074  0.45074  0.00000  0.09853
      17     H     0.45307  0.45307  0.00000  0.09386
      18     H     0.44978  0.44978  0.00000  0.10045
      19     H     0.44631  0.44631  0.00000  0.10738
      20     H     0.45238  0.45238  0.00000  0.09524
      21     H     0.45276  0.45276  0.00000  0.09447
      22     H     0.45707  0.45707  0.00000  0.08586

   Total alpha = 29.00000, Total beta = 29.00000, Total charge = -0.00000

*** Psi4 exiting successfully. Buy a developer a beer!
