  ==> Input File <==

--------------------------------------------------------------------------
set {
	reference rhf
	basis 6-31G*
}

set_num_threads( 4 )
memory 2 gb

molecule MOL {
0 1

O	 -0.411203	 0.198736	 0.780103
C	 0.486307	 0.169203	 0.000779
C	 1.608116	 -0.841643	 0.000302
O	 0.622649	 1.040247	 -0.989323
C	 2.990107	 -0.200498	 -0.000684
H	 1.468623	 -1.481519	 -0.865924
H	 1.469683	 -1.481289	 0.866878
H	 3.129736	 0.423364	 -0.875135
H	 3.757882	 -0.966877	 -0.001197
H	 3.130964	 0.423383	 0.873533
C	 -0.366650	 2.056930	 -1.111983
C	 0.009377	 2.914893	 -2.301442
H	 -0.395679	 2.632760	 -0.197018
H	 -1.334630	 1.592972	 -1.243697
H	 0.983476	 3.367952	 -2.156432
H	 -0.721556	 3.706331	 -2.431876
H	 0.039356	 2.322571	 -3.208918

	symmetry c1
}
set optking {
	frozen_dihedral = ("
		4 2 3 6
	")
}

ee = optimize('scf')
oeprop('DIPOLE', 'QUADRUPOLE', 'MULLIKEN_CHARGES')
f=open( 'psi4out.xyz', 'w' )
f.write( "17  " )
f.write( str(ee) + "\n" )
f.write( MOL.save_string_xyz() )
f.close()
--------------------------------------------------------------------------

    Molecular point group: c1
  Charge       = 0
  Multiplicity = 1
  Basis Set: 6-31G*
  Basis Set:
  @DF-RHF Final Energy:  -344.91008542005341
    Total Energy =                       -344.9100854200532922
    Molecular point group: c1
  Basis Set: 6-31G*
  Basis Set:
  Basis Set: 6-31G*
  Basis Set:
  @DF-RHF Final Energy:  -344.91020551675314
    Total Energy =                       -344.9102055167532512
  Basis Set: 6-31G*
  Basis Set:
  Basis Set: 6-31G*
  Basis Set:
  @DF-RHF Final Energy:  -344.90974513544080
    Total Energy =                       -344.9097451354407440
  Basis Set: 6-31G*
  Basis Set:
  Basis Set: 6-31G*
  Basis Set:
  @DF-RHF Final Energy:  -344.91035218367773
    Total Energy =                       -344.9103521836775599
  Basis Set: 6-31G*
  Basis Set:
  Basis Set: 6-31G*
  Basis Set:
  @DF-RHF Final Energy:  -344.91035493538806
    Total Energy =                       -344.9103549353883409
  Basis Set: 6-31G*
  Basis Set:
  Charge       = 0
  Multiplicity = 1
  Basis Set: 6-31G*
  Basis Set:

    Orbital Energies (a.u.)
    -----------------------

    Doubly Occupied:

       1A    -20.601768     2A    -20.542573     3A    -11.370572
       4A    -11.285080     5A    -11.236935     6A    -11.223977
       7A    -11.222754     8A     -1.467386     9A     -1.360628
      10A     -1.072893    11A     -1.030249    12A     -0.906648
      13A     -0.858059    14A     -0.777749    15A     -0.691794
      16A     -0.678247    17A     -0.671655    18A     -0.622829
      19A     -0.588353    20A     -0.573015    21A     -0.552990
      22A     -0.544040    23A     -0.525088    24A     -0.510640
      25A     -0.504296    26A     -0.494536    27A     -0.451959
      28A     -0.431185

  @DF-RHF Final Energy:  -344.91035535434912

   => Energetics <=

    Nuclear Repulsion Energy =            317.2511734064344182
    One-Electron Energy =               -1098.7272659668167307
    Two-Electron Energy =                 436.5657372060332477
    DFT Exchange-Correlation Energy =       0.0000000000000000
    Empirical Dispersion Energy =           0.0000000000000000
    PCM Polarization Energy =               0.0000000000000000
    EFP Energy =                            0.0000000000000000
    Total Energy =                       -344.9103553543490648
    Molecular point group: c1
  Basis Set: 6-31G*
  Basis Set:

  -Total Gradient:
     Atom            X                  Y                   Z
    ------   -----------------  -----------------  -----------------
       1        0.000028472021     0.000003720168    -0.000013637424
       2       -0.000394697871    -0.000414545070    -0.000200518652
       3        0.000398603836     0.000440590604    -0.000257289777
       4        0.000224057792     0.000289231977     0.000196546796
       5       -0.000001579727    -0.000000243036     0.000004387751
       6       -0.000268691880    -0.000290212505     0.000266168174
       7        0.000006027330     0.000002542449    -0.000004061372
       8       -0.000007834252    -0.000004901650     0.000007224380
       9        0.000009152372    -0.000004653746     0.000000375664
      10       -0.000000307921     0.000001055913    -0.000000707924
      11        0.000002358166    -0.000035020544    -0.000004383330
      12        0.000003768950     0.000003276478     0.000001768017
      13       -0.000000241079     0.000003131393     0.000004758301
      14       -0.000001273369     0.000006682071     0.000000292190
      15        0.000001571830     0.000001736657    -0.000002269119
      16        0.000000617163    -0.000001557100     0.000001655749
      17       -0.000000003358    -0.000000834057    -0.000000309421

  **** Optimization is complete! (in 6 steps) ****
    Final optimized geometry and variables:
    Molecular point group: c1

    Geometry (in Angstrom), charge = 0, multiplicity = 1:

    O           -1.121518193816    -0.590057831196     1.291173137684
    C           -0.212307889805    -0.605261417476     0.524669076976
    C            0.905770747812    -1.620540714013     0.540442318326
    O           -0.077381744588     0.271821929973    -0.460513989967
    C            2.304335398794    -0.999091037154     0.518096872558
    H            0.772734587872    -2.261726069589    -0.326694499112
    H            0.763191938305    -2.229963753583     1.422737086250
    H            2.462891038095    -0.422000149908    -0.383681608182
    H            3.056776702028    -1.778839462588     0.561043599144
    H            2.455395063496    -0.345187827109     1.370967895380
    C           -1.079847204472     1.274651006256    -0.590417204415
    C           -0.699475358479     2.147119848816    -1.767855276342
    H           -1.131014674909     1.842523275888     0.328380549145
    H           -2.038388795668     0.796788230995    -0.739764790713
    H            0.265148424667     2.614346732089    -1.604982402162
    H           -1.440592498278     2.928146554588    -1.903407088133
    H           -0.646911084826     1.562358275795    -2.679205408547

  Mulliken Charges: (a.u.)
   Center  Symbol    Alpha    Beta     Spin     Total
       1     O     4.28675  4.28675  0.00000 -0.57350
       2     C     2.61037  2.61037  0.00000  0.77926
       3     C     3.19964  3.19964  0.00000 -0.39928
       4     O     4.30952  4.30952  0.00000 -0.61903
       5     C     3.24718  3.24718  0.00000 -0.49435
       6     H     0.40316  0.40316  0.00000  0.19367
       7     H     0.39783  0.39783  0.00000  0.20434
       8     H     0.40644  0.40644  0.00000  0.18712
       9     H     0.41381  0.41381  0.00000  0.17238
      10     H     0.41440  0.41440  0.00000  0.17119
      11     C     3.00210  3.00210  0.00000 -0.00419
      12     C     3.24877  3.24877  0.00000 -0.49754
      13     H     0.40986  0.40986  0.00000  0.18027
      14     H     0.41009  0.41009  0.00000  0.17982
      15     H     0.41206  0.41206  0.00000  0.17588
      16     H     0.41610  0.41610  0.00000  0.16780
      17     H     0.41193  0.41193  0.00000  0.17614

   Total alpha = 28.00000, Total beta = 28.00000, Total charge =  0.00000
