                              Psi4 1.0.54 Driver

  ==> Input File <==

--------------------------------------------------------------------------
set {
	reference rhf
	basis cc-pvtz
}

set_num_threads( 4 )
memory 2 gb

molecule MOL {
0 1

H	 -3.436473	 1.252944	 -1.023892
O	 -3.458596	 0.315260	 -0.960865
C	 -3.176635	 -0.080824	 0.355601
C	 -1.763371	 0.265266	 0.799691
H	 -3.321825	 -1.153438	 0.379502
H	 -3.895468	 0.357385	 1.043382
C	 -0.673390	 -0.426948	 -0.013392
H	 -1.631049	 1.344913	 0.747560
H	 -1.664587	 -0.001624	 1.849167
C	 0.737842	 -0.043159	 0.423759
H	 -0.806103	 -0.190518	 -1.063345
H	 -0.797221	 -1.503753	 0.074146
C	 1.824000	 -0.743224	 -0.390623
H	 0.850588	 1.033777	 0.343840
H	 0.868587	 -0.286314	 1.476203
C	 3.255957	 -0.453067	 0.062319
H	 1.718250	 -0.470599	 -1.438164
H	 1.658105	 -1.815850	 -0.339904
C	 3.441165	 -0.363477	 1.575202
H	 3.572585	 0.485508	 -0.382202
H	 3.919690	 -1.215512	 -0.337126
H	 2.785132	 0.387599	 2.003666
H	 4.460594	 -0.089531	 1.822103
H	 3.230165	 -1.305655	 2.066513

	symmetry c1
}
set optking {
	frozen_dihedral = ("
		20 16 13 17
	")
}

ee,wfn = optimize('scf', return_wfn=True)
oeprop( wfn, 'DIPOLE', 'QUADRUPOLE', 'MULLIKEN_CHARGES')
f=open( 'psi4out.xyz', 'w' )
f.write( "24  " )
f.write( str(ee) + "\n" )
f.write( MOL.save_string_xyz() )
f.close()
--------------------------------------------------------------------------

    Molecular point group: c1
  Charge       = 0
  Multiplicity = 1
  Basis Set: CC-PVTZ
  Basis Set:
  @DF-RHF Final Energy:  -349.37639326168284
    Total Energy =                       -349.3763932616826651
    Molecular point group: c1
  Basis Set: CC-PVTZ
  Basis Set:
  Basis Set: CC-PVTZ
  Basis Set:
  @DF-RHF Final Energy:  -349.37508650575313
    Total Energy =                       -349.3750865057532451
  Basis Set: CC-PVTZ
  Basis Set:
  Basis Set: CC-PVTZ
  Basis Set:
  @DF-RHF Final Energy:  -349.37818055585780
    Total Energy =                       -349.3781805558580800
  Basis Set: CC-PVTZ
  Basis Set:
  Basis Set: CC-PVTZ
  Basis Set:
  @DF-RHF Final Energy:  -349.37838780587361
    Total Energy =                       -349.3783878058735013
  Basis Set: CC-PVTZ
  Basis Set:
  Basis Set: CC-PVTZ
  Basis Set:
  @DF-RHF Final Energy:  -349.37840387045378
    Total Energy =                       -349.3784038704540649
  Basis Set: CC-PVTZ
  Basis Set:
  Basis Set: CC-PVTZ
  Basis Set:
  @DF-RHF Final Energy:  -349.37840961487541
    Total Energy =                       -349.3784096148756362
  Basis Set: CC-PVTZ
  Basis Set:
  Charge       = 0
  Multiplicity = 1
  Basis Set: CC-PVTZ
  Basis Set:

    Orbital Energies (a.u.)
    -----------------------

    Doubly Occupied:

       1A    -20.546220     2A    -11.265419     3A    -11.215014
       4A    -11.212104     5A    -11.209975     6A    -11.209405
       7A    -11.208687     8A    -11.205633     9A     -1.364066
      10A     -1.089428    11A     -1.048736    12A     -0.986178
      13A     -0.916484    14A     -0.853501    15A     -0.802237
      16A     -0.771900    17A     -0.681688    18A     -0.656804
      19A     -0.627407    20A     -0.619396    21A     -0.595818
      22A     -0.587382    23A     -0.556237    24A     -0.544387
      25A     -0.519008    26A     -0.506492    27A     -0.501585
      28A     -0.471200    29A     -0.469126    30A     -0.460467
      31A     -0.455369    32A     -0.450329    33A     -0.420621

  @DF-RHF Final Energy:  -349.37840975530867

   => Energetics <=

    Nuclear Repulsion Energy =            385.3899598636536439
    One-Electron Energy =               -1237.4801258991024042
    Two-Electron Energy =                 502.7117562801399231
    DFT Exchange-Correlation Energy =       0.0000000000000000
    Empirical Dispersion Energy =           0.0000000000000000
    PCM Polarization Energy =               0.0000000000000000
    EFP Energy =                            0.0000000000000000
    Total Energy =                       -349.3784097553088372
    Molecular point group: c1
  Basis Set: CC-PVTZ
  Basis Set:

  -Total Gradient:
     Atom            X                  Y                   Z
    ------   -----------------  -----------------  -----------------
       1        0.000000249370    -0.000007175848     0.000004220431
       2        0.000005931889     0.000000216422     0.000001812335
       3       -0.000000941224     0.000003888096    -0.000001635818
       4        0.000005039611    -0.000021264731     0.000014671923
       5        0.000001790443     0.000005718876     0.000000342525
       6        0.000003299956    -0.000001001648    -0.000003138675
       7       -0.000003374684     0.000012941179     0.000002541467
       8       -0.000003800419    -0.000013033199    -0.000006623692
       9        0.000000600444     0.000003224376     0.000003332703
      10       -0.000009002382     0.000028817270    -0.000026350317
      11        0.000000688848     0.000010562804     0.000000352987
      12       -0.000002026675     0.000004328363    -0.000001128242
      13        0.001800780623    -0.006329887849    -0.001679604598
      14       -0.000008948959     0.000004735365    -0.000007928459
      15        0.000000666630     0.000002085841    -0.000012329810
      16       -0.001956436574     0.004676090638     0.004568066032
      17       -0.001216026404     0.004596096522     0.000734875487
      18       -0.000001451906    -0.000005289264    -0.000017970994
      19        0.000009813066    -0.000000410285    -0.000002831922
      20        0.001366503993    -0.002957263478    -0.003569561049
      21        0.000006604878     0.000001179621     0.000012010860
      22        0.000014473725    -0.000013397877    -0.000011969403
      23       -0.000015455092    -0.000002593271     0.000003542039
      24        0.000001020833     0.000001432077    -0.000004695815

  **** Optimization is complete! (in 7 steps) ****
    Final optimized geometry and variables:
    Molecular point group: c1

    Geometry (in Angstrom), charge = 0, multiplicity = 1:

    H           -3.286476232553     1.567435743061    -1.361243987137
    O           -3.389760407310     0.643926995036    -1.219362091822
    C           -3.151268188121     0.339590257776     0.129637677232
    C           -1.716196226175     0.600536474502     0.561891312890
    H           -3.388545174849    -0.710743963761     0.242153856828
    H           -3.834094130818     0.894721337546     0.767896335329
    C           -0.684672514454    -0.247910534376    -0.175939408339
    H           -1.491296503639     1.656725867328     0.421099403826
    H           -1.647113633649     0.416181180488     1.631256797369
    C            0.751822915926     0.051007356122     0.245023706348
    H           -0.792418632596    -0.093099129022    -1.243694864225
    H           -0.899699234872    -1.299111559062     0.002248004910
    C            1.774237230068    -0.824770930361    -0.480703210052
    H            0.971601039996     1.098578699978     0.048337248399
    H            0.841795373031    -0.082396429225     1.318545102139
    C            3.243157711107    -0.476779220654    -0.206820601489
    H            1.594264456325    -0.708549577939    -1.545359199217
    H            1.590367556043    -1.866135963534    -0.232443108216
    C            3.613879941922    -0.248158933594     1.254804885881
    H            3.527816792691     0.381085425115    -0.809637536338
    H            3.850581467053    -1.292841672547    -0.589137811939
    H            3.131948930678     0.630713077905     1.664904458591
    H            4.684243036970    -0.111782615589     1.357964809053
    H            3.330387666437    -1.097684069706     1.868261073110

  Mulliken Charges: (a.u.)
   Center  Symbol    Alpha    Beta     Spin     Total
       1     H     0.39532  0.39532  0.00000  0.20936
       2     O     4.20372  4.20372  0.00000 -0.40745
       3     C     2.97789  2.97789  0.00000  0.04421
       4     C     3.10167  3.10167  0.00000 -0.20334
       5     H     0.45881  0.45881  0.00000  0.08238
       6     H     0.46027  0.46027  0.00000  0.07946
       7     C     3.08875  3.08875  0.00000 -0.17749
       8     H     0.45920  0.45920  0.00000  0.08161
       9     H     0.45343  0.45343  0.00000  0.09315
      10     C     3.09222  3.09222  0.00000 -0.18443
      11     H     0.44577  0.44577  0.00000  0.10847
      12     H     0.45548  0.45548  0.00000  0.08903
      13     C     3.09529  3.09529  0.00000 -0.19057
      14     H     0.45487  0.45487  0.00000  0.09026
      15     H     0.45301  0.45301  0.00000  0.09398
      16     C     3.08943  3.08943  0.00000 -0.17887
      17     H     0.45094  0.45094  0.00000  0.09812
      18     H     0.45189  0.45189  0.00000  0.09621
      19     C     3.15629  3.15629  0.00000 -0.31259
      20     H     0.45332  0.45332  0.00000  0.09335
      21     H     0.45075  0.45075  0.00000  0.09850
      22     H     0.45237  0.45237  0.00000  0.09526
      23     H     0.44536  0.44536  0.00000  0.10928
      24     H     0.45394  0.45394  0.00000  0.09211

   Total alpha = 33.00000, Total beta = 33.00000, Total charge = -0.00000

*** Psi4 exiting successfully. Buy a developer a beer!
