  ==> Input File <==

--------------------------------------------------------------------------
set {
	reference rhf
	basis 6-31G*
}

set_num_threads( 4 )
memory 2 gb

molecule MOL {
0 1

H	 2.780950	 -0.924286	 -1.681180
C	 2.062734	 -1.148110	 -0.900798
C	 1.322923	 0.120767	 -0.479465
H	 1.377463	 -1.896783	 -1.285853
H	 2.604400	 -1.584760	 -0.067415
C	 0.306652	 -0.176050	 0.621399
H	 0.803493	 0.549569	 -1.330199
H	 2.024549	 0.862825	 -0.117066
N	 -1.068537	 -0.011044	 0.085269
H	 0.372515	 -1.192590	 0.973735
H	 0.391664	 0.520566	 1.441230
O	 -1.656956	 -0.997225	 -0.235017
O	 -1.478635	 1.104830	 -0.018026

	symmetry c1
}
set optking {
	frozen_dihedral = ("
		7 3 6 9
	")
}

ee = optimize('scf')
oeprop('DIPOLE', 'QUADRUPOLE', 'MULLIKEN_CHARGES')
f=open( 'psi4out.xyz', 'w' )
f.write( "13  " )
f.write( str(ee) + "\n" )
f.write( MOL.save_string_xyz() )
f.close()
--------------------------------------------------------------------------

    Molecular point group: c1
  Charge       = 0
  Multiplicity = 1
  Basis Set: 6-31G*
  Basis Set:
  @DF-RHF Final Energy:  -321.72981684977594
    Total Energy =                       -321.7298168497759434
    Molecular point group: c1
  Basis Set: 6-31G*
  Basis Set:
  Basis Set: 6-31G*
  Basis Set:
  @DF-RHF Final Energy:  -321.72739349581695
    Total Energy =                       -321.7273934958168979
  Basis Set: 6-31G*
  Basis Set:
  Basis Set: 6-31G*
  Basis Set:
  @DF-RHF Final Energy:  -321.72155654297080
    Total Energy =                       -321.7215565429710296
  Basis Set: 6-31G*
  Basis Set:
  Basis Set: 6-31G*
  Basis Set:
  @DF-RHF Final Energy:  -321.73003388164500
    Total Energy =                       -321.7300338816448289
  Basis Set: 6-31G*
  Basis Set:
  @DF-RHF Final Energy:  -321.72962543844505
    Total Energy =                       -321.7296254384449412
  @DF-RHF Final Energy:  -321.73026778909764
    Total Energy =                       -321.7302677890976383
  @DF-RHF Final Energy:  -321.73032580215187
    Total Energy =                       -321.7303258021517536
  @DF-RHF Final Energy:  -321.73036440659973
    Total Energy =                       -321.7303644065997332
  @DF-RHF Final Energy:  -321.73042695399107
    Total Energy =                       -321.7304269539913548
  @DF-RHF Final Energy:  -321.73046835247470
    Total Energy =                       -321.7304683524745315
  @DF-RHF Final Energy:  -321.73053335411709
    Total Energy =                       -321.7305333541169716
  @DF-RHF Final Energy:  -321.73056664560153
    Total Energy =                       -321.7305666456016979
  @DF-RHF Final Energy:  -321.73059680252095
    Total Energy =                       -321.7305968025207221
  Basis Set: 6-31G*
  Basis Set:
  @DF-RHF Final Energy:  -321.73060993984797
    Total Energy =                       -321.7306099398481365
  Basis Set: 6-31G*
  Basis Set:
  Basis Set: 6-31G*
  Basis Set:
  @DF-RHF Final Energy:  -321.73061214760628
    Total Energy =                       -321.7306121476061094
  Basis Set: 6-31G*
  Basis Set:
  Basis Set: 6-31G*
  Basis Set:
  @DF-RHF Final Energy:  -321.73061329886571
    Total Energy =                       -321.7306132988657055
  Basis Set: 6-31G*
  Basis Set:
  Charge       = 0
  Multiplicity = 1
  Basis Set: 6-31G*
  Basis Set:

    Orbital Energies (a.u.)
    -----------------------

    Doubly Occupied:

       1A    -20.604120     2A    -20.599410     3A    -15.848256
       4A    -11.300322     5A    -11.253948     6A    -11.231851
       7A     -1.631804     8A     -1.417225     9A     -1.130789
      10A     -1.024912    11A     -0.885415    12A     -0.829313
      13A     -0.761920    14A     -0.735672    15A     -0.723143
      16A     -0.655324    17A     -0.615148    18A     -0.587609
      19A     -0.538175    20A     -0.516900    21A     -0.512931
      22A     -0.482759    23A     -0.474095    24A     -0.449229

  @DF-RHF Final Energy:  -321.73061369749519

   => Energetics <=

    Nuclear Repulsion Energy =            249.0345739268448995
    One-Electron Energy =                -931.9098344409794663
    Two-Electron Energy =                 361.1446468166392378
    DFT Exchange-Correlation Energy =       0.0000000000000000
    Empirical Dispersion Energy =           0.0000000000000000
    PCM Polarization Energy =               0.0000000000000000
    EFP Energy =                            0.0000000000000000
    Total Energy =                       -321.7306136974953006
    Molecular point group: c1
  Basis Set: 6-31G*
  Basis Set:

  -Total Gradient:
     Atom            X                  Y                   Z
    ------   -----------------  -----------------  -----------------
       1       -0.000002150922    -0.000002191759     0.000002695071
       2       -0.000000940710    -0.000009924910     0.000002883626
       3        0.000431695506     0.003178830843     0.000829541568
       4        0.000004311132    -0.000007743997    -0.000003100038
       5        0.000005027314    -0.000005211077    -0.000001765399
       6       -0.000134398147    -0.002679547287    -0.000495370373
       7       -0.000341959584    -0.002092093070    -0.000602574081
       8       -0.000005759095     0.000005968070     0.000004985852
       9        0.000026468391     0.001606922002     0.000237096934
      10       -0.000003679068     0.000002464499     0.000001106503
      11       -0.000003017892     0.000001058292     0.000001229759
      12        0.000011771990    -0.000009277363    -0.000001197697
      13        0.000012631088     0.000010745758     0.000024468274

  **** Optimization is complete! (in 17 steps) ****
    Final optimized geometry and variables:
    Molecular point group: c1

    Geometry (in Angstrom), charge = 0, multiplicity = 1:

    H            2.920956118214    -0.874583412929    -1.523140790440
    C            2.206545489719    -1.034651871012    -0.723095014384
    C            1.463561640223     0.261149126881    -0.398328512169
    H            1.511597211583    -1.803979903576    -1.041181614696
    H            2.752902986199    -1.404613079677     0.139765158316
    C            0.440471018499     0.096506224086     0.738175301205
    H            0.952758462199     0.600787378355    -1.289881022618
    H            2.168852131329     1.033584390694    -0.114318862451
    N           -0.960662472737     0.210494504244     0.246936357241
    H            0.488596381729    -0.885605833544     1.188508793479
    H            0.531394384333     0.845025302278     1.506730586274
    O           -1.263489457387    -0.462680156218    -0.691634143522
    O           -1.693100400821     0.943161170334     0.834398155614

  Mulliken Charges: (a.u.)
   Center  Symbol    Alpha    Beta     Spin     Total
       1     H     0.41162  0.41162  0.00000  0.17676
       2     C     3.24739  3.24739  0.00000 -0.49478
       3     C     3.17227  3.17227  0.00000 -0.34454
       4     H     0.40590  0.40590  0.00000  0.18820
       5     H     0.41944  0.41944  0.00000  0.16111
       6     C     3.09225  3.09225  0.00000 -0.18451
       7     H     0.39361  0.39361  0.00000  0.21278
       8     H     0.40766  0.40766  0.00000  0.18468
       9     N     3.22400  3.22400  0.00000  0.55201
      10     H     0.38495  0.38495  0.00000  0.23010
      11     H     0.38308  0.38308  0.00000  0.23385
      12     O     4.23134  4.23134  0.00000 -0.46269
      13     O     4.22648  4.22648  0.00000 -0.45297

   Total alpha = 24.00000, Total beta = 24.00000, Total charge = -0.00000
