  ==> Input File <==

--------------------------------------------------------------------------
set {
	reference rhf
	basis cc-pvtz
}

set_num_threads( 4 )
memory 2 gb

molecule MOL {
0 1

H	 -1.312286	 1.283945	 -2.972548
O	 -1.660619	 0.795806	 -2.249163
C	 -0.867479	 0.984689	 -1.111010
C	 0.445554	 0.234825	 -1.217970
H	 -0.671725	 2.037058	 -0.931208
H	 -1.429552	 0.607524	 -0.268690
O	 1.172093	 0.457955	 -0.054438
H	 1.002754	 0.582486	 -2.089495
H	 0.248046	 -0.825709	 -1.358799
C	 2.395478	 -0.199028	 -0.000366
H	 2.505946	 -0.901710	 -0.823354
H	 3.174616	 0.545641	 -0.071768
H	 2.513730	 -0.742241	 0.934223

	symmetry c1
}
set optking {
	frozen_dihedral = ("
		4 7 10 13
	")
}

ee = optimize('scf')
oeprop('DIPOLE', 'QUADRUPOLE', 'MULLIKEN_CHARGES')
f=open( 'psi4out.xyz', 'w' )
f.write( "13  " )
f.write( str(ee) + "\n" )
f.write( MOL.save_string_xyz() )
f.close()
--------------------------------------------------------------------------

    Molecular point group: c1
  Charge       = 0
  Multiplicity = 1
  Basis Set: CC-PVTZ
  Basis Set:
  @DF-RHF Final Energy:  -268.05831522335109
    Total Energy =                       -268.0583152233510873
    Molecular point group: c1
  Basis Set: CC-PVTZ
  Basis Set:
  Basis Set: CC-PVTZ
  Basis Set:
  @DF-RHF Final Energy:  -268.05884166382845
    Total Energy =                       -268.0588416638284457
  Basis Set: CC-PVTZ
  Basis Set:
  Basis Set: CC-PVTZ
  Basis Set:
  @DF-RHF Final Energy:  -268.05894589357320
    Total Energy =                       -268.0589458935732523
  Basis Set: CC-PVTZ
  Basis Set:
  Charge       = 0
  Multiplicity = 1
  Basis Set: CC-PVTZ
  Basis Set:

    Orbital Energies (a.u.)
    -----------------------

    Doubly Occupied:

       1A    -20.552678     2A    -20.552524     3A    -11.269715
       4A    -11.267361     5A    -11.266922     6A     -1.387817
       7A     -1.368377     8A     -1.019400     9A     -0.914240
      10A     -0.842456    11A     -0.711227    12A     -0.673663
      13A     -0.660513    14A     -0.638649    15A     -0.597826
      16A     -0.570778    17A     -0.549716    18A     -0.491380
      19A     -0.482763    20A     -0.441104    21A     -0.419633

  @DF-RHF Final Energy:  -268.05894649053437

   => Energetics <=

    Nuclear Repulsion Energy =            190.1835687510753132
    One-Electron Energy =                -743.1275445090631138
    Two-Electron Energy =                 284.8850292674535467
    DFT Exchange-Correlation Energy =       0.0000000000000000
    Empirical Dispersion Energy =           0.0000000000000000
    PCM Polarization Energy =               0.0000000000000000
    EFP Energy =                            0.0000000000000000
    Total Energy =                       -268.0589464905342538
    Molecular point group: c1
  Basis Set: CC-PVTZ
  Basis Set:

  -Total Gradient:
     Atom            X                  Y                   Z
    ------   -----------------  -----------------  -----------------
       1       -0.000017126997    -0.000002344003    -0.000017240622
       2       -0.000048572411     0.000038363013    -0.000057382487
       3        0.000018777555    -0.000031075986    -0.000031220909
       4       -0.000611939193    -0.001011503857     0.000553366101
       5       -0.000014896522     0.000009497071     0.000006572611
       6        0.000038053619    -0.000000240100     0.000001638892
       7        0.000738390452     0.001059304407    -0.000857285345
       8        0.000009767924     0.000014344602     0.000052479252
       9       -0.000010089046     0.000008765909    -0.000022720296
      10        0.000481429912     0.001100170163     0.000971309591
      11       -0.000003585941    -0.000003227601     0.000004484177
      12        0.000009330880     0.000004618154     0.000004878835
      13       -0.000589540230    -0.001186671770    -0.000608879801

  **** Optimization is complete! (in 4 steps) ****
    Final optimized geometry and variables:
    Molecular point group: c1

    Geometry (in Angstrom), charge = 0, multiplicity = 1:

    H           -1.621835521691     0.836190188284    -2.008703742256
    O           -1.962311655966     0.341852921792    -1.285782968981
    C           -1.158150142817     0.523380077064    -0.153888930174
    C            0.154542432921    -0.223917695066    -0.279516063137
    H           -0.962426562335     1.574666580636     0.032071252764
    H           -1.710855886563     0.138844587257     0.691294192470
    O            0.887370247306    -0.008809528108     0.882714102952
    H            0.700593298031     0.133955334828    -1.153608414199
    H           -0.044472899727    -1.282388093710    -0.428041284057
    C            2.122985739479    -0.652227654903     0.961943167294
    H            2.247925670570    -1.381821968014     0.168451337136
    H            2.930241323643     0.068885803594     0.894063298302
    H            2.192688368726    -1.173657104248     1.908255273175

  Mulliken Charges: (a.u.)
   Center  Symbol    Alpha    Beta     Spin     Total
       1     H     0.39419  0.39419  0.00000  0.21162
       2     O     4.20213  4.20213  0.00000 -0.40426
       3     C     2.97513  2.97513  0.00000  0.04975
       4     C     2.96494  2.96494  0.00000  0.07012
       5     H     0.46688  0.46688  0.00000  0.06624
       6     H     0.45296  0.45296  0.00000  0.09408
       7     O     4.18030  4.18030  0.00000 -0.36059
       8     H     0.48200  0.48200  0.00000  0.03599
       9     H     0.46913  0.46913  0.00000  0.06174
      10     C     3.02735  3.02735  0.00000 -0.05471
      11     H     0.47167  0.47167  0.00000  0.05666
      12     H     0.45945  0.45945  0.00000  0.08110
      13     H     0.45387  0.45387  0.00000  0.09226

   Total alpha = 21.00000, Total beta = 21.00000, Total charge = -0.00000
