                              Psi4 1.0.54 Driver

  ==> Input File <==

--------------------------------------------------------------------------
set {
	reference rhf
	basis cc-pvtz
}

set_num_threads( 4 )
memory 2 gb

molecule MOL {
0 1

O	 2.361028	 0.350870	 0.957029
C	 1.704209	 0.119472	 -0.000093
C	 0.380337	 -0.600947	 -0.000234
O	 2.058539	 0.473693	 -1.224591
C	 -0.824290	 0.329213	 -0.000115
H	 0.371455	 -1.255476	 -0.865660
H	 0.371410	 -1.255787	 0.864952
C	 -2.146151	 -0.432825	 -0.000068
H	 -0.773936	 0.979158	 -0.866319
H	 -0.773838	 0.979034	 0.866186
C	 -3.366283	 0.483552	 0.000557
H	 -2.189286	 -1.084450	 -0.869996
H	 -2.188867	 -1.085083	 0.869399
C	 -4.687436	 -0.278003	 0.000108
H	 -3.325150	 1.134819	 -0.867957
H	 -3.325087	 1.133730	 0.869885
H	 -4.773783	 -0.912098	 -0.876078
H	 -5.531922	 0.401392	 0.000363
H	 -4.773901	 -0.912898	 0.875703
C	 3.284778	 1.160623	 -1.372202
H	 3.271091	 2.088290	 -0.819518
H	 3.390714	 1.357204	 -2.426707
H	 4.106389	 0.553740	 -1.021686

	symmetry c1
}
set optking {
	frozen_dihedral = ("
		1 2 3 6
	")
}

ee,wfn = optimize('scf', return_wfn=True)
oeprop( wfn, 'DIPOLE', 'QUADRUPOLE', 'MULLIKEN_CHARGES')
f=open( 'psi4out.xyz', 'w' )
f.write( "23  " )
f.write( str(ee) + "\n" )
f.write( MOL.save_string_xyz() )
f.close()
--------------------------------------------------------------------------

    Molecular point group: c1
  Charge       = 0
  Multiplicity = 1
  Basis Set: CC-PVTZ
  Basis Set:
  @DF-RHF Final Energy:  -423.12932176709836
    Total Energy =                       -423.1293217670988724
    Molecular point group: c1
  Basis Set: CC-PVTZ
  Basis Set:
  Basis Set: CC-PVTZ
  Basis Set:
  @DF-RHF Final Energy:  -423.12964711834599
    Total Energy =                       -423.1296471183462700
  Basis Set: CC-PVTZ
  Basis Set:
  Basis Set: CC-PVTZ
  Basis Set:
  @DF-RHF Final Energy:  -423.12990490328104
    Total Energy =                       -423.1299049032819539
  Basis Set: CC-PVTZ
  Basis Set:
  Basis Set: CC-PVTZ
  Basis Set:
  @DF-RHF Final Energy:  -423.12998013340905
    Total Energy =                       -423.1299801334091626
  Basis Set: CC-PVTZ
  Basis Set:
  Basis Set: CC-PVTZ
  Basis Set:
  @DF-RHF Final Energy:  -423.12998921877420
    Total Energy =                       -423.1299892187739715
  Basis Set: CC-PVTZ
  Basis Set:
  Charge       = 0
  Multiplicity = 1
  Basis Set: CC-PVTZ
  Basis Set:

    Orbital Energies (a.u.)
    -----------------------

    Doubly Occupied:

       1A    -20.597014     2A    -20.532062     3A    -11.363042
       4A    -11.278294     5A    -11.231903     6A    -11.227372
       7A    -11.219772     8A    -11.218153     9A    -11.210267
      10A     -1.471507    11A     -1.364196    12A     -1.098547
      13A     -1.046732    14A     -0.985714    15A     -0.935313
      16A     -0.847274    17A     -0.799110    18A     -0.775165
      19A     -0.696201    20A     -0.683271    21A     -0.675804
      22A     -0.655240    23A     -0.608987    24A     -0.595747
      25A     -0.580214    26A     -0.572948    27A     -0.541342
      28A     -0.537392    29A     -0.525181    30A     -0.506666
      31A     -0.493058    32A     -0.477705    33A     -0.471424
      34A     -0.468194    35A     -0.457387    36A     -0.430443

  @DF-RHF Final Energy:  -423.12998964312447

   => Energetics <=

    Nuclear Repulsion Energy =            455.4709999051179352
    One-Electron Energy =               -1478.8446962910279581
    Two-Electron Energy =                 600.2437067427854345
    DFT Exchange-Correlation Energy =       0.0000000000000000
    Empirical Dispersion Energy =           0.0000000000000000
    PCM Polarization Energy =               0.0000000000000000
    EFP Energy =                            0.0000000000000000
    Total Energy =                       -423.1299896431246452
    Molecular point group: c1
  Basis Set: CC-PVTZ
  Basis Set:

  -Total Gradient:
     Atom            X                  Y                   Z
    ------   -----------------  -----------------  -----------------
       1       -0.000038887721     0.000036008448     0.000006961071
       2        0.000070590481    -0.000061648424     0.000060079863
       3        0.000012174935     0.000001397652     0.000030398128
       4        0.000026181842    -0.000020567345    -0.000091049167
       5       -0.000000151451     0.000000550922     0.000001949899
       6       -0.000029804528     0.000036134809    -0.000032303577
       7        0.000007066671     0.000002738754    -0.000009616515
       8        0.000002422296    -0.000010088857    -0.000003460501
       9       -0.000000622841     0.000001119919    -0.000004322240
      10        0.000001254725     0.000001223144     0.000002043025
      11        0.000004198403     0.000000186731    -0.000002280263
      12        0.000001830694     0.000002679457     0.000002335368
      13        0.000001226197     0.000001282938    -0.000003543641
      14       -0.000003612680    -0.000000521922     0.000003816431
      15        0.000001058630    -0.000000808558    -0.000000728424
      16        0.000000104226     0.000001446350    -0.000000238428
      17        0.000000715643     0.000000928556     0.000000114364
      18       -0.000001369357     0.000000175893     0.000001081159
      19       -0.000001031588    -0.000001680731     0.000000168860
      20       -0.000051312246     0.000051698629     0.000039925202
      21        0.000015886171     0.000005074454    -0.000006686353
      22       -0.000015005875    -0.000019368999    -0.000001347761
      23       -0.000002912614    -0.000027961821     0.000006703503

  **** Optimization is complete! (in 6 steps) ****
    Final optimized geometry and variables:
    Molecular point group: c1

    Geometry (in Angstrom), charge = 0, multiplicity = 1:

    O            2.475956769590     0.111061417275     1.108510026306
    C            1.810814505978    -0.083577984003     0.148172785130
    C            0.516388730506    -0.852679348521     0.142993438717
    O            2.117323509318     0.382683677132    -1.051543569737
    C           -0.694212347761     0.086992089705     0.180487515316
    H            0.476698415272    -1.468263626885    -0.746977999531
    H            0.519499343820    -1.494551706101     1.012514685590
    C           -2.017557309681    -0.671556747600     0.203297866848
    H           -0.665151339159     0.742651661583    -0.683311531446
    H           -0.623131277684     0.719943281555     1.059577589010
    C           -3.234889577532     0.247545489591     0.247138900078
    H           -2.081092849509    -1.309736743120    -0.674732296716
    H           -2.037115735630    -1.334355763131     1.064746202469
    C           -4.556789930856    -0.512415674095     0.270216611048
    H           -3.215059737214     0.910087341000    -0.613720705527
    H           -3.170703308073     0.885514646078     1.124123142587
    H           -4.666408751185    -1.134222158497    -0.612056429461
    H           -5.399688667303     0.168142195698     0.301475917847
    H           -4.621436839537    -1.158899901244     1.139027631901
    C            3.291403588544     1.161319815557    -1.163735010660
    H            3.226227821582     2.041460467979    -0.541351482064
    H            3.363579005553     1.443442408008    -2.201596197204
    H            4.158073530209     0.586989664675    -0.872020709695

  Mulliken Charges: (a.u.)
   Center  Symbol    Alpha    Beta     Spin     Total
       1     O     4.20303  4.20303  0.00000 -0.40607
       2     C     2.80699  2.80699  0.00000  0.38601
       3     C     3.07605  3.07605  0.00000 -0.15210
       4     O     4.15046  4.15046  0.00000 -0.30091
       5     C     3.10197  3.10197  0.00000 -0.20393
       6     H     0.44494  0.44494  0.00000  0.11013
       7     H     0.43871  0.43871  0.00000  0.12258
       8     C     3.09074  3.09074  0.00000 -0.18149
       9     H     0.44591  0.44591  0.00000  0.10818
      10     H     0.44510  0.44510  0.00000  0.10980
      11     C     3.08463  3.08463  0.00000 -0.16926
      12     H     0.45404  0.45404  0.00000  0.09192
      13     H     0.45283  0.45283  0.00000  0.09434
      14     C     3.15023  3.15023  0.00000 -0.30046
      15     H     0.45388  0.45388  0.00000  0.09224
      16     H     0.45302  0.45302  0.00000  0.09396
      17     H     0.45495  0.45495  0.00000  0.09010
      18     H     0.44759  0.44759  0.00000  0.10483
      19     H     0.45448  0.45448  0.00000  0.09105
      20     C     3.03768  3.03768  0.00000 -0.07536
      21     H     0.45455  0.45455  0.00000  0.09090
      22     H     0.44554  0.44554  0.00000  0.10892
      23     H     0.45268  0.45268  0.00000  0.09464

   Total alpha = 36.00000, Total beta = 36.00000, Total charge = -0.00000

*** Psi4 exiting successfully. Buy a developer a beer!
