                              Psi4 1.0.54 Driver

  ==> Input File <==

--------------------------------------------------------------------------
set {
	reference rhf
	basis cc-pvtz
}

set_num_threads( 4 )
memory 2 gb

molecule MOL {
0 1

O	 -2.081319	 -0.951530	 -0.502732
N	 -1.613558	 0.006676	 0.014756
C	 -0.329345	 -0.171618	 0.743966
O	 -2.068523	 1.100482	 -0.024385
C	 0.835904	 0.041968	 -0.213982
H	 -0.346048	 -1.174374	 1.137184
H	 -0.333613	 0.555559	 1.538590
C	 1.953660	 0.849213	 0.441108
H	 1.212610	 -0.923602	 -0.530723
H	 0.475542	 0.556819	 -1.097048
C	 3.130314	 1.083687	 -0.499631
H	 2.299634	 0.330949	 1.330569
H	 1.560924	 1.805439	 0.773968
H	 3.565262	 0.144549	 -0.822952
H	 2.820529	 1.628029	 -1.384753
H	 3.907580	 1.658765	 -0.011466

	symmetry c1
}
set optking {
	frozen_dihedral = ("
		9 5 3 2
	")
}

ee,wfn = optimize('scf', return_wfn=True)
oeprop( wfn, 'DIPOLE', 'QUADRUPOLE', 'MULLIKEN_CHARGES')
f=open( 'psi4out.xyz', 'w' )
f.write( "16  " )
f.write( str(ee) + "\n" )
f.write( MOL.save_string_xyz() )
f.close()
--------------------------------------------------------------------------

    Molecular point group: c1
  Charge       = 0
  Multiplicity = 1
  Basis Set: CC-PVTZ
  Basis Set:
  @DF-RHF Final Energy:  -360.90510482202188
    Total Energy =                       -360.9051048220215989
    Molecular point group: c1
  Basis Set: CC-PVTZ
  Basis Set:
  Basis Set: CC-PVTZ
  Basis Set:
  @DF-RHF Final Energy:  -360.90295104835036
    Total Energy =                       -360.9029510483501326
  Basis Set: CC-PVTZ
  Basis Set:
  Basis Set: CC-PVTZ
  Basis Set:
  @DF-RHF Final Energy:  -360.90200251759950
    Total Energy =                       -360.9020025175992714
  Basis Set: CC-PVTZ
  Basis Set:
  Basis Set: CC-PVTZ
  Basis Set:
  @DF-RHF Final Energy:  -360.90526199957827
    Total Energy =                       -360.9052619995780447
  Basis Set: CC-PVTZ
  Basis Set:
  @DF-RHF Final Energy:  -360.90230575443883
    Total Energy =                       -360.9023057544387711
  @DF-RHF Final Energy:  -360.90522476485455
    Total Energy =                       -360.9052247648546654
  Basis Set: CC-PVTZ
  Basis Set:
  @DF-RHF Final Energy:  -360.90542407233806
    Total Energy =                       -360.9054240723379507
  Basis Set: CC-PVTZ
  Basis Set:
  Basis Set: CC-PVTZ
  Basis Set:
  @DF-RHF Final Energy:  -360.90543822575700
    Total Energy =                       -360.9054382257570524
  Basis Set: CC-PVTZ
  Basis Set:
  Basis Set: CC-PVTZ
  Basis Set:
  @DF-RHF Final Energy:  -360.90543933841252
    Total Energy =                       -360.9054393384123500
  Basis Set: CC-PVTZ
  Basis Set:
  Charge       = 0
  Multiplicity = 1
  Basis Set: CC-PVTZ
  Basis Set:

    Orbital Energies (a.u.)
    -----------------------

    Doubly Occupied:

       1A    -20.590231     2A    -20.589065     3A    -15.836162
       4A    -11.296360     5A    -11.251686     6A    -11.239984
       7A    -11.224790     8A     -1.635232     9A     -1.419489
      10A     -1.134581    11A     -1.059585    12A     -0.948341
      13A     -0.844344    14A     -0.828464    15A     -0.760001
      16A     -0.736894    17A     -0.728047    18A     -0.670014
      19A     -0.623126    20A     -0.606018    21A     -0.563846
      22A     -0.548635    23A     -0.513234    24A     -0.502247
      25A     -0.495736    26A     -0.483635    27A     -0.470240
      28A     -0.453013

  @DF-RHF Final Energy:  -360.90544002579617

   => Energetics <=

    Nuclear Repulsion Energy =            313.6474427884596139
    One-Electron Energy =               -1112.9997656075588566
    Two-Electron Energy =                 438.4468827933034163
    DFT Exchange-Correlation Energy =       0.0000000000000000
    Empirical Dispersion Energy =           0.0000000000000000
    PCM Polarization Energy =               0.0000000000000000
    EFP Energy =                            0.0000000000000000
    Total Energy =                       -360.9054400257958832
    Molecular point group: c1
  Basis Set: CC-PVTZ
  Basis Set:

  -Total Gradient:
     Atom            X                  Y                   Z
    ------   -----------------  -----------------  -----------------
       1        0.000052134023    -0.000056699208    -0.000002885387
       2        0.000051832093     0.002419718145     0.001123837821
       3        0.000299139245    -0.003264672672    -0.000797546395
       4        0.000032915682    -0.000027915692     0.000031471438
       5       -0.002375329550     0.001654926523    -0.003135857442
       6       -0.000005571687     0.000020346706    -0.000007807960
       7       -0.000009187798    -0.000012975276    -0.000039131236
       8       -0.000001872975     0.000021784849    -0.000002298556
       9        0.001964407007    -0.000714862876     0.002839957927
      10        0.000010733698    -0.000015692586     0.000017646666
      11        0.000008794468    -0.000017107697    -0.000008187782
      12       -0.000007886109     0.000027708747    -0.000037643789
      13       -0.000005533981    -0.000027393266    -0.000000905694
      14       -0.000001810341     0.000028893135     0.000003639132
      15        0.000003161178    -0.000027230934     0.000031523781
      16       -0.000015924960    -0.000008827898    -0.000015812523

  **** Optimization is complete! (in 10 steps) ****
    Final optimized geometry and variables:
    Molecular point group: c1

    Geometry (in Angstrom), charge = 0, multiplicity = 1:

    O           -2.066018674785    -0.956893947438    -0.866671427687
    N           -1.571566145496    -0.149749960728    -0.153452550401
    C           -0.369373579268    -0.562378051499     0.617664406089
    O           -1.936346990232     0.971183326314    -0.026545900461
    C            0.902794428351    -0.230885940431    -0.176759273061
    H           -0.476533489987    -1.615800251206     0.808190474185
    H           -0.418436525122    -0.002026462141     1.535935343431
    C            2.006782034236     0.317291328989     0.726330603210
    H            1.261494495214    -1.129734371100    -0.661924387278
    H            0.673862798781     0.493419633241    -0.947810381804
    C            3.301639241697     0.585068508765    -0.031400687759
    H            2.197905015971    -0.387466083798     1.531111865527
    H            1.661013297940     1.233719791970     1.193762715661
    H            3.689006973485    -0.322965361212    -0.480342926723
    H            3.146745419819     1.307248130816    -0.825355070787
    H            4.063466678541     0.978515021816     0.630369707005

  Mulliken Charges: (a.u.)
   Center  Symbol    Alpha    Beta     Spin     Total
       1     O     4.17203  4.17203  0.00000 -0.34406
       2     N     3.27890  3.27890  0.00000  0.44220
       3     C     3.04029  3.04029  0.00000 -0.08058
       4     O     4.17426  4.17426  0.00000 -0.34853
       5     C     3.09499  3.09499  0.00000 -0.18998
       6     H     0.43182  0.43182  0.00000  0.13636
       7     H     0.43613  0.43613  0.00000  0.12775
       8     C     3.09280  3.09280  0.00000 -0.18560
       9     H     0.44297  0.44297  0.00000  0.11405
      10     H     0.43833  0.43833  0.00000  0.12335
      11     C     3.14966  3.14966  0.00000 -0.29933
      12     H     0.45115  0.45115  0.00000  0.09769
      13     H     0.44709  0.44709  0.00000  0.10582
      14     H     0.45321  0.45321  0.00000  0.09357
      15     H     0.45122  0.45122  0.00000  0.09757
      16     H     0.44515  0.44515  0.00000  0.10970

   Total alpha = 28.00000, Total beta = 28.00000, Total charge = -0.00000

*** Psi4 exiting successfully. Buy a developer a beer!
