  ==> Input File <==

--------------------------------------------------------------------------
set {
	reference rhf
	basis 6-31G*
}

set_num_threads( 1 )
memory 2 gb

molecule MOL {
0 1

H	 -2.646374	 -0.642757	 1.268656
C	 -2.083525	 -0.384536	 0.393091
O	 -0.807605	 -0.127164	 0.768327
F	 -2.118945	 -1.383102	 -0.486752
F	 -2.621877	 0.670592	 -0.209486
C	 0.084052	 0.273579	 -0.209957
C	 0.317685	 -0.927185	 -1.117558
Cl	 1.608314	 0.817531	 0.509736
H	 -0.300472	 1.080578	 -0.808846
F	 1.151623	 -0.615275	 -2.086785
F	 -0.830454	 -1.277065	 -1.662349
F	 0.797255	 -1.956385	 -0.462781

	symmetry c1
}
set optking {
	frozen_dihedral = ("
		10 7 6 9,
		6 3 2 4
	")
}

ee = energy('scf')
oeprop('DIPOLE', 'QUADRUPOLE', 'MULLIKEN_CHARGES')
f=open( 'psi4out.xyz', 'w' )
f.write( "12  " )
f.write( str(ee) + "\n" )
f.write( MOL.save_string_xyz() )
f.close()
--------------------------------------------------------------------------

    Molecular point group: c1

    Geometry (in Angstrom), charge = 0, multiplicity = 1:

       Center              X                  Y                   Z               Mass
    ------------   -----------------  -----------------  -----------------  -----------------
           H         -2.381942638166    -0.250747797156     1.670253902977     1.007825032070
           C         -1.819093638166     0.007473202844     0.794688902977    12.000000000000
           O         -0.543173638166     0.264845202844     1.169924902977    15.994914619560
           F         -1.854513638166    -0.991092797156    -0.085154097023    18.998403224000
           F         -2.357445638166     1.062601202844     0.192111902977    18.998403224000
           C          0.348483361834     0.665588202844     0.191640902977    12.000000000000
           C          0.582116361834    -0.535175797156    -0.715960097023    12.000000000000
          CL          1.872745361834     1.209540202844     0.911333902977    34.968852682000
           H         -0.036040638166     1.472587202844    -0.407248097023     1.007825032070
           F          1.416054361834    -0.223265797156    -1.685187097023    18.998403224000
           F         -0.566022638166    -0.885055797156    -1.260751097023    18.998403224000
           F          1.061686361834    -1.564375797156    -0.061183097023    18.998403224000

  Charge       = 0
  Multiplicity = 1
  Basis Set: 6-31G*
  Basis Set:

    Orbital Energies (a.u.)
    -----------------------

    Doubly Occupied:

       1A   -104.851539     2A    -26.354030     3A    -26.352749
       4A    -26.345541     5A    -26.333386     6A    -26.317490
       7A    -20.645971     8A    -11.518599     9A    -11.484604
      10A    -11.399368    11A    -10.585665    12A     -8.055067
      13A     -8.051466    14A     -8.051366    15A     -1.761512
      16A     -1.715743    17A     -1.662074    18A     -1.652620
      19A     -1.617821    20A     -1.485216    21A     -1.181687
      22A     -1.042858    23A     -1.001098    24A     -0.912003
      25A     -0.868076    26A     -0.847665    27A     -0.839541
      28A     -0.831953    29A     -0.810933    30A     -0.780910
      31A     -0.735729    32A     -0.718591    33A     -0.708343
      34A     -0.698296    35A     -0.671341    36A     -0.660285
      37A     -0.654862    38A     -0.646780    39A     -0.637288
      40A     -0.624700    41A     -0.561107    42A     -0.549694
      43A     -0.530896    44A     -0.483727    45A     -0.470388

  @DF-RHF Final Energy: -1146.23034861448059

   => Energetics <=

    Nuclear Repulsion Energy =            766.0067452678986228
    One-Electron Energy =               -3115.0529352520479733
    Two-Electron Energy =                1202.8158413696671687
    DFT Exchange-Correlation Energy =       0.0000000000000000
    Empirical Dispersion Energy =           0.0000000000000000
    PCM Polarization Energy =               0.0000000000000000
    EFP Energy =                            0.0000000000000000
    Total Energy =                      -1146.2303486144821818

  Mulliken Charges: (a.u.)
   Center  Symbol    Alpha    Beta     Spin     Total
       1     H     0.40194  0.40194  0.00000  0.19612
       2     C     2.56267  2.56267  0.00000  0.87466
       3     O     4.30280  4.30280  0.00000 -0.60559
       4     F     4.67986  4.67986  0.00000 -0.35971
       5     F     4.68832  4.68832  0.00000 -0.37664
       6     C     3.05304  3.05304  0.00000 -0.10608
       7     C     2.44039  2.44039  0.00000  1.11923
       8    CL     8.48736  8.48736  0.00000  0.02529
       9     H     0.36728  0.36728  0.00000  0.26544
      10     F     4.67609  4.67609  0.00000 -0.35218
      11     F     4.67066  4.67066  0.00000 -0.34133
      12     F     4.66961  4.66961  0.00000 -0.33921

   Total alpha = 45.00000, Total beta = 45.00000, Total charge = -0.00000
