  ==> Input File <==

--------------------------------------------------------------------------
set {
	reference rhf
	basis 6-31G*
}

set_num_threads( 1 )
memory 2 gb

molecule MOL {
0 1

H	 1.136379	 0.211822	 1.465562
C	 1.135357	 0.094285	 0.374742
C	 0.065331	 0.871482	 -0.349150
O	 1.941633	 -0.601957	 -0.151457
C	 -0.099238	 0.422265	 -1.808123
H	 0.305573	 1.926439	 -0.283857
H	 -0.869535	 0.706589	 0.184701
C	 1.116641	 0.740245	 -2.679300
H	 -0.977397	 0.908464	 -2.220988
H	 -0.302711	 -0.646113	 -1.836543
H	 1.316388	 1.807225	 -2.692739
H	 0.953116	 0.418499	 -3.702558
H	 2.012374	 0.244376	 -2.317131

	symmetry c1
}
set optking {
	frozen_dihedral = ("
		6 3 5 9
	")
}

ee = energy('scf')
oeprop('DIPOLE', 'QUADRUPOLE', 'MULLIKEN_CHARGES')
f=open( 'psi4out.xyz', 'w' )
f.write( "13  " )
f.write( str(ee) + "\n" )
f.write( MOL.save_string_xyz() )
f.close()
--------------------------------------------------------------------------

    Molecular point group: c1

    Geometry (in Angstrom), charge = 0, multiplicity = 1:

       Center              X                  Y                   Z               Mass
    ------------   -----------------  -----------------  -----------------  -----------------
           H          0.286009662523    -0.086995087663     2.401721123270     1.007825032070
           C          0.284987662523    -0.204532087663     1.310901123270    12.000000000000
           C         -0.785038337477     0.572664912337     0.587009123270    12.000000000000
           O          1.091263662523    -0.900774087663     0.784702123270    15.994914619560
           C         -0.949607337477     0.123447912337    -0.871963876730    12.000000000000
           H         -0.544796337477     1.627621912337     0.652302123270     1.007825032070
           H         -1.719904337477     0.407771912337     1.120860123270     1.007825032070
           C          0.266271662523     0.441427912337    -1.743140876730    12.000000000000
           H         -1.827766337477     0.609646912337    -1.284828876730     1.007825032070
           H         -1.153080337477    -0.944930087663    -0.900383876730     1.007825032070
           H          0.466018662523     1.508407912337    -1.756579876730     1.007825032070
           H          0.102746662523     0.119681912337    -2.766398876730     1.007825032070
           H          1.162004662523    -0.054441087663    -1.380971876730     1.007825032070

  Charge       = 0
  Multiplicity = 1
  Basis Set: 6-31G*
  Basis Set:

    Orbital Energies (a.u.)
    -----------------------

    Doubly Occupied:

       1A    -20.565711     2A    -11.330262     3A    -11.237863
       4A    -11.224771     5A    -11.202179     6A     -1.407372
       7A     -1.075545     8A     -0.969677     9A     -0.844838
      10A     -0.769132    11A     -0.686343    12A     -0.646225
      13A     -0.616552    14A     -0.573703    15A     -0.566277
      16A     -0.522301    17A     -0.491751    18A     -0.482570
      19A     -0.480843    20A     -0.408432

  @DF-RHF Final Energy:  -230.98338205151632

   => Energetics <=

    Nuclear Repulsion Energy =            177.9509021975857479
    One-Electron Energy =                -665.6639589122114558
    Two-Electron Energy =                 256.7296746631089377
    DFT Exchange-Correlation Energy =       0.0000000000000000
    Empirical Dispersion Energy =           0.0000000000000000
    PCM Polarization Energy =               0.0000000000000000
    EFP Energy =                            0.0000000000000000
    Total Energy =                       -230.9833820515167986

  Mulliken Charges: (a.u.)
   Center  Symbol    Alpha    Beta     Spin     Total
       1     H     0.42729  0.42729  0.00000  0.14542
       2     C     2.83679  2.83679  0.00000  0.32642
       3     C     3.21280  3.21280  0.00000 -0.42559
       4     O     4.23622  4.23622  0.00000 -0.47245
       5     C     3.15176  3.15176  0.00000 -0.30353
       6     H     0.40339  0.40339  0.00000  0.19322
       7     H     0.40832  0.40832  0.00000  0.18336
       8     C     3.24776  3.24776  0.00000 -0.49552
       9     H     0.41872  0.41872  0.00000  0.16256
      10     H     0.41368  0.41368  0.00000  0.17263
      11     H     0.42733  0.42733  0.00000  0.14533
      12     H     0.42061  0.42061  0.00000  0.15879
      13     H     0.39532  0.39532  0.00000  0.20935

   Total alpha = 20.00000, Total beta = 20.00000, Total charge = -0.00000
