  ==> Input File <==

--------------------------------------------------------------------------
set {
	reference rhf
	basis 6-31G*
}

set_num_threads( 4 )
memory 2 gb

molecule MOL {
0 1

H	 2.866480	 -0.465706	 0.876907
C	 2.405773	 -0.024801	 0.000000
N	 0.988830	 -0.304158	 0.000000
H	 2.866480	 -0.465706	 -0.876907
H	 2.629928	 1.045948	 0.000000
C	 0.705451	 -1.727416	 0.000000
C	 0.294667	 0.356144	 -1.090004
H	 1.102499	 -2.217024	 -0.895062
H	 1.179632	 -2.183545	 0.863334
C	 -0.796226	 -1.951924	 0.067465
H	 0.468054	 1.425692	 -1.024820
H	 0.661782	 0.018364	 -2.064494
C	 -1.196116	 0.076383	 -0.993634
H	 -1.030544	 -3.004656	 -0.021234
H	 -1.176684	 -1.590603	 1.021231
O	 -1.447614	 -1.300809	 -0.986905
H	 -1.718873	 0.486653	 -1.847695
H	 -1.595388	 0.533133	 -0.089791

	symmetry c1
}
set optking {
	frozen_dihedral = ("
		6 3 2 5
	")
}

ee = optimize('scf')
oeprop('DIPOLE', 'QUADRUPOLE', 'MULLIKEN_CHARGES')
f=open( 'psi4out.xyz', 'w' )
f.write( "18  " )
f.write( str(ee) + "\n" )
f.write( MOL.save_string_xyz() )
f.close()
--------------------------------------------------------------------------

    Molecular point group: c1
  Charge       = 0
  Multiplicity = 1
  Basis Set: 6-31G*
  Basis Set:
  @DF-RHF Final Energy:  -325.02779391702103
    Total Energy =                       -325.0277939170210857
    Molecular point group: c1
  Basis Set: 6-31G*
  Basis Set:
  Basis Set: 6-31G*
  Basis Set:
  @DF-RHF Final Energy:  -325.02850501337946
    Total Energy =                       -325.0285050133793447
  Basis Set: 6-31G*
  Basis Set:
  Basis Set: 6-31G*
  Basis Set:
  @DF-RHF Final Energy:  -325.02862191231401
    Total Energy =                       -325.0286219123140086
  Basis Set: 6-31G*
  Basis Set:
  Basis Set: 6-31G*
  Basis Set:
  @DF-RHF Final Energy:  -325.02862297858644
    Total Energy =                       -325.0286229785863270
  Basis Set: 6-31G*
  Basis Set:
  Charge       = 0
  Multiplicity = 1
  Basis Set: 6-31G*
  Basis Set:

    Orbital Energies (a.u.)
    -----------------------

    Doubly Occupied:

       1A    -20.554087     2A    -15.549614     3A    -11.266346
       4A    -11.266327     5A    -11.244181     6A    -11.244124
       7A    -11.241172     8A     -1.383505     9A     -1.232588
      10A     -1.038547    11A     -0.981318    12A     -0.882925
      13A     -0.868984    14A     -0.774848    15A     -0.683629
      16A     -0.645588    17A     -0.643499    18A     -0.634390
      19A     -0.629062    20A     -0.571837    21A     -0.557442
      22A     -0.539855    23A     -0.527614    24A     -0.502076
      25A     -0.484209    26A     -0.452444    27A     -0.407969
      28A     -0.353870

  @DF-RHF Final Energy:  -325.02862324269120

   => Energetics <=

    Nuclear Repulsion Energy =            341.5217014026396782
    One-Electron Energy =               -1118.7765434564748830
    Two-Electron Energy =                 452.2262188111446903
    DFT Exchange-Correlation Energy =       0.0000000000000000
    Empirical Dispersion Energy =           0.0000000000000000
    PCM Polarization Energy =               0.0000000000000000
    EFP Energy =                            0.0000000000000000
    Total Energy =                       -325.0286232426905144
    Molecular point group: c1
  Basis Set: 6-31G*
  Basis Set:

  -Total Gradient:
     Atom            X                  Y                   Z
    ------   -----------------  -----------------  -----------------
       1       -0.000012560574    -0.000001224890    -0.000003852025
       2        0.000006141586    -0.000002125454     0.000794134583
       3        0.000001154134    -0.000008138694     0.000663443772
       4       -0.000000095817    -0.000000757699     0.000004990289
       5       -0.000003460584     0.000008201221    -0.000837318063
       6        0.000000159607     0.000010686011    -0.000624389015
       7        0.000010133830    -0.000002562591     0.000005285852
       8       -0.000005506362     0.000001924882     0.000002394253
       9        0.000003166270     0.000000258355    -0.000000155902
      10        0.000001026926    -0.000010973662    -0.000013243093
      11       -0.000001219912    -0.000000395387    -0.000001287729
      12        0.000005052063    -0.000002500617     0.000001963915
      13       -0.000004359670     0.000007435909     0.000009882765
      14       -0.000002634894    -0.000004852652     0.000002581450
      15        0.000003707126     0.000002401185    -0.000005377277
      16        0.000000000740     0.000001627781     0.000002320718
      17        0.000001419406    -0.000000202554    -0.000000958531
      18       -0.000002123867     0.000001198856    -0.000000415963

  **** Optimization is complete! (in 5 steps) ****
    Final optimized geometry and variables:
    Molecular point group: c1

    Geometry (in Angstrom), charge = 0, multiplicity = 1:

    H            2.730128654654     0.248872776246     1.319999544829
    C            2.271566264334     0.665634420633     0.430218708988
    N            0.852505428082     0.394921436735     0.436422782407
    H            2.780408732795     0.247127985444    -0.443208438788
    H            2.440600499914     1.736496018766     0.432261961661
    C            0.564975306997    -1.027730634606     0.433997388094
    C            0.158685417151     1.055149380033    -0.654474264163
    H            0.958800456566    -1.515459328639    -0.463362705040
    H            1.040690760561    -1.487090624766     1.294876591116
    C           -0.936883173428    -1.249600444281     0.504703289268
    H            0.334874982615     2.124264282298    -0.591244256527
    H            0.523096320055     0.714503686356    -1.628916150016
    C           -1.332857644274     0.780251869035    -0.555497100597
    H           -1.173610371742    -2.301850660380     0.416234538317
    H           -1.314382056251    -0.887654069677     1.459299712754
    O           -1.589054770499    -0.596110893579    -0.547759811558
    H           -1.856055854059     1.192598993648    -1.408329255610
    H           -1.728348339945     1.238114399786     0.349356299716

  Mulliken Charges: (a.u.)
   Center  Symbol    Alpha    Beta     Spin     Total
       1     H     0.41546  0.41546  0.00000  0.16907
       2     C     3.14033  3.14033  0.00000 -0.28065
       3     N     3.78730  3.78730  0.00000 -0.57459
       4     H     0.43245  0.43245  0.00000  0.13511
       5     H     0.41613  0.41613  0.00000  0.16773
       6     C     3.06860  3.06860  0.00000 -0.13720
       7     C     3.06859  3.06859  0.00000 -0.13718
       8     H     0.42812  0.42812  0.00000  0.14377
       9     H     0.41675  0.41675  0.00000  0.16651
      10     C     2.99754  2.99754  0.00000  0.00491
      11     H     0.41673  0.41673  0.00000  0.16655
      12     H     0.42824  0.42824  0.00000  0.14351
      13     C     2.99761  2.99761  0.00000  0.00477
      14     H     0.41321  0.41321  0.00000  0.17357
      15     H     0.42386  0.42386  0.00000  0.15229
      16     O     4.31200  4.31200  0.00000 -0.62401
      17     H     0.41322  0.41322  0.00000  0.17356
      18     H     0.42386  0.42386  0.00000  0.15228

   Total alpha = 28.00000, Total beta = 28.00000, Total charge =  0.00000
