                              Psi4 1.0.54 Driver

  ==> Input File <==

--------------------------------------------------------------------------
set {
	reference rhf
	basis cc-pvtz
}

set_num_threads( 4 )
memory 2 gb

molecule MOL {
0 1

H	 -3.144994	 -1.202467	 -0.018751
O	 -2.321472	 -0.864941	 -0.318626
C	 -2.021813	 0.336996	 0.342658
C	 -0.669613	 0.837286	 -0.127252
H	 -2.780861	 1.084746	 0.127159
H	 -2.006390	 0.184138	 1.420053
C	 0.490865	 -0.082543	 0.241244
H	 -0.708709	 0.967192	 -1.204587
H	 -0.507562	 1.822272	 0.303070
C	 0.965658	 -0.942191	 -0.926738
H	 0.191558	 -0.721648	 1.064054
H	 1.322085	 0.518714	 0.604131
C	 2.130519	 -1.856199	 -0.561396
H	 0.136401	 -1.544205	 -1.288143
H	 1.258140	 -0.300002	 -1.753622
H	 1.857539	 -2.535031	 0.239594
H	 2.442817	 -2.454199	 -1.410025
H	 2.988828	 -1.282193	 -0.227826

	symmetry c1
}
set optking {
	frozen_dihedral = ("
		10 7 4 8
	")
}

ee,wfn = optimize('scf', return_wfn=True)
oeprop( wfn, 'DIPOLE', 'QUADRUPOLE', 'MULLIKEN_CHARGES')
f=open( 'psi4out.xyz', 'w' )
f.write( "18  " )
f.write( str(ee) + "\n" )
f.write( MOL.save_string_xyz() )
f.close()
--------------------------------------------------------------------------

    Molecular point group: c1
  Charge       = 0
  Multiplicity = 1
  Basis Set: CC-PVTZ
  Basis Set:
  @DF-RHF Final Energy:  -271.28259333237975
    Total Energy =                       -271.2825933323796335
    Molecular point group: c1
  Basis Set: CC-PVTZ
  Basis Set:
  Basis Set: CC-PVTZ
  Basis Set:
  @DF-RHF Final Energy:  -271.28287863785715
    Total Energy =                       -271.2828786378570385
  Basis Set: CC-PVTZ
  Basis Set:
  Basis Set: CC-PVTZ
  Basis Set:
  @DF-RHF Final Energy:  -271.28295114482523
    Total Energy =                       -271.2829511448253470
  Basis Set: CC-PVTZ
  Basis Set:
  Basis Set: CC-PVTZ
  Basis Set:
  @DF-RHF Final Energy:  -271.28295214932075
    Total Energy =                       -271.2829521493204652
  Basis Set: CC-PVTZ
  Basis Set:
  Charge       = 0
  Multiplicity = 1
  Basis Set: CC-PVTZ
  Basis Set:

    Orbital Energies (a.u.)
    -----------------------

    Doubly Occupied:

       1A    -20.547627     2A    -11.266453     3A    -11.210839
       4A    -11.206193     5A    -11.202121     6A    -11.198940
       7A     -1.365395     8A     -1.072669     9A     -1.007698
      10A     -0.912847    11A     -0.820200    12A     -0.780434
      13A     -0.708275    14A     -0.646685    15A     -0.618666
      16A     -0.580324    17A     -0.570922    18A     -0.558240
      19A     -0.524790    20A     -0.505301    21A     -0.486327
      22A     -0.464509    23A     -0.450016    24A     -0.449031
      25A     -0.431995

  @DF-RHF Final Energy:  -271.28295223737859

   => Energetics <=

    Nuclear Repulsion Energy =            253.6998931079727129
    One-Electron Energy =                -870.7926997074529254
    Two-Electron Energy =                 345.8098543621018734
    DFT Exchange-Correlation Energy =       0.0000000000000000
    Empirical Dispersion Energy =           0.0000000000000000
    PCM Polarization Energy =               0.0000000000000000
    EFP Energy =                            0.0000000000000000
    Total Energy =                       -271.2829522373783675
    Molecular point group: c1
  Basis Set: CC-PVTZ
  Basis Set:

  -Total Gradient:
     Atom            X                  Y                   Z
    ------   -----------------  -----------------  -----------------
       1       -0.000000899743     0.000002443459     0.000000096933
       2        0.000001153257    -0.000007163854    -0.000006446806
       3        0.000002827004     0.000011346546     0.000002323484
       4        0.001631925016     0.002104697953     0.000072507596
       5       -0.000005030171    -0.000003178660    -0.000000589530
       6        0.000005539897     0.000000597470    -0.000004117623
       7       -0.001398903744    -0.001634694154     0.000399961000
       8       -0.001052499450    -0.001396437600    -0.000156663379
       9       -0.000001024647     0.000000830476     0.000000761786
      10        0.000799699979     0.000924058727    -0.000300805365
      11       -0.000001118188     0.000000398627    -0.000007711922
      12        0.000004480555    -0.000001219418     0.000003206367
      13        0.000010835288    -0.000000470661    -0.000005823601
      14       -0.000000405482    -0.000000974067     0.000001773576
      15       -0.000000331702     0.000000525675     0.000004184487
      16       -0.000001582886     0.000003276257    -0.000004178669
      17        0.000005246089    -0.000002169637    -0.000001076774
      18        0.000000088921    -0.000001867143     0.000002598443

  **** Optimization is complete! (in 5 steps) ****
    Final optimized geometry and variables:
    Molecular point group: c1

    Geometry (in Angstrom), charge = 0, multiplicity = 1:

    H           -2.830198899974    -0.799837579421     0.232367499133
    O           -2.015608043415    -0.444173724150    -0.070851188747
    C           -1.751102355975     0.775892926377     0.572198755910
    C           -0.402323892677     1.299846852562     0.115983882273
    H           -2.523752801918     1.503124749658     0.334792667143
    H           -1.746230764420     0.640402525512     1.651823896411
    C            0.777930559152     0.371837403498     0.453321068700
    H           -0.453045671921     1.459858943825    -0.956127116237
    H           -0.260886826410     2.272267646877     0.575978320672
    C            1.267971447370    -0.463605015567    -0.727739421151
    H            0.499343170635    -0.289045962638     1.268701318621
    H            1.608844733761     0.968344526939     0.818795799311
    C            2.419076303799    -1.393403807445    -0.360173684736
    H            0.441157285823    -1.042802791264    -1.121843299701
    H            1.586013443814     0.204458845159    -1.523910141190
    H            2.120461303038    -2.100543956861     0.406771658196
    H            2.754157918013    -1.962246816391    -1.220144519318
    H            3.270045057542    -0.836417081891     0.019159592699

  Mulliken Charges: (a.u.)
   Center  Symbol    Alpha    Beta     Spin     Total
       1     H     0.39689  0.39689  0.00000  0.20622
       2     O     4.19706  4.19706  0.00000 -0.39412
       3     C     2.97247  2.97247  0.00000  0.05506
       4     C     3.10168  3.10168  0.00000 -0.20336
       5     H     0.46523  0.46523  0.00000  0.06953
       6     H     0.47409  0.47409  0.00000  0.05182
       7     C     3.08864  3.08864  0.00000 -0.17727
       8     H     0.45229  0.45229  0.00000  0.09542
       9     H     0.44625  0.44625  0.00000  0.10750
      10     C     3.08034  3.08034  0.00000 -0.16069
      11     H     0.45654  0.45654  0.00000  0.08691
      12     H     0.45038  0.45038  0.00000  0.09923
      13     C     3.15150  3.15150  0.00000 -0.30300
      14     H     0.44596  0.44596  0.00000  0.10808
      15     H     0.45829  0.45829  0.00000  0.08343
      16     H     0.45538  0.45538  0.00000  0.08924
      17     H     0.44949  0.44949  0.00000  0.10103
      18     H     0.45752  0.45752  0.00000  0.08497

   Total alpha = 25.00000, Total beta = 25.00000, Total charge =  0.00000

*** Psi4 exiting successfully. Buy a developer a beer!
