  ==> Input File <==

--------------------------------------------------------------------------
set {
	reference rhf
	basis cc-pvtz
}

set_num_threads( 4 )
memory 2 gb

molecule MOL {
0 1

H	 1.441195	 -1.519507	 -0.392892
O	 1.675515	 -0.612943	 -0.465627
C	 1.135873	 0.113391	 0.608264
C	 0.027642	 1.012027	 0.090274
H	 1.902972	 0.727968	 1.072615
H	 0.756163	 -0.561896	 1.370018
C	 -1.138737	 0.285728	 -0.581921
H	 0.464661	 1.708096	 -0.618252
H	 -0.340737	 1.603071	 0.925246
C	 -1.933983	 -0.631436	 0.343653
H	 -0.763151	 -0.285569	 -1.422081
H	 -1.808359	 1.035291	 -0.992333
H	 -2.789188	 -1.049673	 -0.174718
H	 -1.335629	 -1.461368	 0.700418
H	 -2.305435	 -0.092167	 1.209725

	symmetry c1
}
set optking {
	frozen_dihedral = ("
		1 2 3 4
	")
}

ee = optimize('scf')
oeprop('DIPOLE', 'QUADRUPOLE', 'MULLIKEN_CHARGES')
f=open( 'psi4out.xyz', 'w' )
f.write( "15  " )
f.write( str(ee) + "\n" )
f.write( MOL.save_string_xyz() )
f.close()
--------------------------------------------------------------------------

    Molecular point group: c1
  Charge       = 0
  Multiplicity = 1
  Basis Set: CC-PVTZ
  Basis Set:
  @DF-RHF Final Energy:  -232.23520643437104
    Total Energy =                       -232.2352064343712073
    Molecular point group: c1
  Basis Set: CC-PVTZ
  Basis Set:
  Basis Set: CC-PVTZ
  Basis Set:
  @DF-RHF Final Energy:  -232.23580226413202
    Total Energy =                       -232.2358022641320758
  Basis Set: CC-PVTZ
  Basis Set:
  Basis Set: CC-PVTZ
  Basis Set:
  @DF-RHF Final Energy:  -232.23596261816166
    Total Energy =                       -232.2359626181616932
  Basis Set: CC-PVTZ
  Basis Set:
  Basis Set: CC-PVTZ
  Basis Set:
  @DF-RHF Final Energy:  -232.23595855915150
    Total Energy =                       -232.2359585591516975
  Basis Set: CC-PVTZ
  Basis Set:
  Basis Set: CC-PVTZ
  Basis Set:
  @DF-RHF Final Energy:  -232.23596543202262
    Total Energy =                       -232.2359654320228515
  Basis Set: CC-PVTZ
  Basis Set:
  Charge       = 0
  Multiplicity = 1
  Basis Set: CC-PVTZ
  Basis Set:

    Orbital Energies (a.u.)
    -----------------------

    Doubly Occupied:

       1A    -20.545627     2A    -11.265670     3A    -11.213306
       4A    -11.211186     5A    -11.209991     6A     -1.362884
       7A     -1.068403     8A     -0.974912     9A     -0.875277
      10A     -0.781013    11A     -0.705822    12A     -0.645935
      13A     -0.611779    14A     -0.584469    15A     -0.565793
      16A     -0.541281    17A     -0.506032    18A     -0.489219
      19A     -0.472675    20A     -0.457191    21A     -0.428623

  @DF-RHF Final Energy:  -232.23596549646197

   => Energetics <=

    Nuclear Repulsion Energy =            191.4333728219432942
    One-Electron Energy =                -694.3045041130972095
    Two-Electron Energy =                 270.6351657946919431
    DFT Exchange-Correlation Energy =       0.0000000000000000
    Empirical Dispersion Energy =           0.0000000000000000
    PCM Polarization Energy =               0.0000000000000000
    EFP Energy =                            0.0000000000000000
    Total Energy =                       -232.2359654964619722
    Molecular point group: c1
  Basis Set: CC-PVTZ
  Basis Set:

  -Total Gradient:
     Atom            X                  Y                   Z
    ------   -----------------  -----------------  -----------------
       1        0.000352781156    -0.000065425402     0.000255409808
       2       -0.000366467935     0.000181201627    -0.000334489791
       3       -0.000170967076    -0.000339328853     0.000103042773
       4        0.000188356041     0.000206029093    -0.000045646808
       5       -0.000006386933     0.000008544995    -0.000001154935
       6       -0.000008225803     0.000002072325     0.000014959225
       7        0.000003634831    -0.000002821673     0.000004147332
       8       -0.000006111581     0.000008114120    -0.000004604701
       9        0.000002783449    -0.000002106687    -0.000000669480
      10       -0.000000546578    -0.000001391348     0.000000684507
      11        0.000002377457     0.000001532740     0.000002495976
      12        0.000006412101     0.000004319254     0.000003862926
      13        0.000000049716     0.000000055693     0.000000899010
      14        0.000002570859    -0.000000591304     0.000000805360
      15       -0.000000259702    -0.000000204581     0.000000258800

  **** Optimization is complete! (in 6 steps) ****
    Final optimized geometry and variables:
    Molecular point group: c1

    Geometry (in Angstrom), charge = 0, multiplicity = 1:

    H            1.554533243850    -1.503060281123    -0.426857433978
    O            1.760976819268    -0.589241237211    -0.461633013831
    C            1.141277887192     0.101959676901     0.595836332998
    C            0.022147640195     1.003474848243     0.096882838644
    H            1.898098906819     0.710303930016     1.076943342270
    H            0.774296258589    -0.594067991330     1.342778949835
    C           -1.146435921066     0.282063959592    -0.575300982811
    H            0.453636561849     1.706836816344    -0.607806227045
    H           -0.343074305764     1.587332349902     0.939053159890
    C           -1.963211595724    -0.611287351663     0.355692027799
    H           -0.770668281333    -0.303321798341    -1.407394422434
    H           -1.805116891933     1.029551946653    -1.005642974990
    H           -2.808062781886    -1.042451490430    -0.168804977749
    H           -1.377383563026    -1.433147340728     0.752158979861
    H           -2.350907370104    -0.048503088469     1.198780234731

  Mulliken Charges: (a.u.)
   Center  Symbol    Alpha    Beta     Spin     Total
       1     H     0.39062  0.39062  0.00000  0.21877
       2     O     4.20848  4.20848  0.00000 -0.41696
       3     C     2.98404  2.98404  0.00000  0.03192
       4     C     3.08562  3.08562  0.00000 -0.17125
       5     H     0.45161  0.45161  0.00000  0.09677
       6     H     0.46788  0.46788  0.00000  0.06424
       7     C     3.09853  3.09853  0.00000 -0.19705
       8     H     0.44871  0.44871  0.00000  0.10258
       9     H     0.45593  0.45593  0.00000  0.08813
      10     C     3.15266  3.15266  0.00000 -0.30531
      11     H     0.44885  0.44885  0.00000  0.10230
      12     H     0.44806  0.44806  0.00000  0.10388
      13     H     0.44553  0.44553  0.00000  0.10893
      14     H     0.45920  0.45920  0.00000  0.08160
      15     H     0.45428  0.45428  0.00000  0.09145

   Total alpha = 21.00000, Total beta = 21.00000, Total charge = -0.00000
