  ==> Input File <==

--------------------------------------------------------------------------
set {
	reference rhf
	basis 6-31G*
}

set_num_threads( 4 )
memory 2 gb

molecule MOL {
0 1

O	 -2.439739	 -0.935931	 -0.423848
C	 -1.921153	 0.064240	 -0.045697
C	 -2.624470	 1.379923	 0.150949
O	 -0.632575	 0.154573	 0.251549
H	 -2.168117	 2.136577	 -0.476876
H	 -3.669540	 1.273223	 -0.098610
H	 -2.519365	 1.700893	 1.180846
C	 0.160891	 -1.019931	 0.106212
C	 1.589627	 -0.672828	 0.480843
H	 0.089836	 -1.367806	 -0.916050
H	 -0.238459	 -1.792301	 0.749618
C	 2.126087	 0.581505	 -0.211442
H	 2.211962	 -1.527064	 0.222167
H	 1.651246	 -0.555991	 1.559643
C	 3.574708	 0.886084	 0.167675
H	 2.053508	 0.454476	 -1.289726
H	 1.497683	 1.428604	 0.043296
H	 3.931221	 1.779616	 -0.334851
H	 4.234155	 0.067284	 -0.106139
H	 3.674356	 1.046616	 1.237431

	symmetry c1
}
set optking {
	frozen_dihedral = ("
		12 9 8 10
	")
}

ee = optimize('scf')
oeprop('DIPOLE', 'QUADRUPOLE', 'MULLIKEN_CHARGES')
f=open( 'psi4out.xyz', 'w' )
f.write( "20  " )
f.write( str(ee) + "\n" )
f.write( MOL.save_string_xyz() )
f.close()
--------------------------------------------------------------------------

    Molecular point group: c1
  Charge       = 0
  Multiplicity = 1
  Basis Set: 6-31G*
  Basis Set:
  @DF-RHF Final Energy:  -383.94452498260603
    Total Energy =                       -383.9445249826062536
    Molecular point group: c1
  Basis Set: 6-31G*
  Basis Set:
  Basis Set: 6-31G*
  Basis Set:
  @DF-RHF Final Energy:  -383.94455879249944
    Total Energy =                       -383.9445587924993788
  Basis Set: 6-31G*
  Basis Set:
  Basis Set: 6-31G*
  Basis Set:
  @DF-RHF Final Energy:  -383.94453466851684
    Total Energy =                       -383.9445346685170080
  Basis Set: 6-31G*
  Basis Set:
  Basis Set: 6-31G*
  Basis Set:
  @DF-RHF Final Energy:  -383.94475278699201
    Total Energy =                       -383.9447527869921259
  Basis Set: 6-31G*
  Basis Set:
  Basis Set: 6-31G*
  Basis Set:
  @DF-RHF Final Energy:  -383.94475530343357
    Total Energy =                       -383.9447553034337943
  Basis Set: 6-31G*
  Basis Set:
  Basis Set: 6-31G*
  Basis Set:
  @DF-RHF Final Energy:  -383.94475862183219
    Total Energy =                       -383.9447586218323067
  Basis Set: 6-31G*
  Basis Set:
  Charge       = 0
  Multiplicity = 1
  Basis Set: 6-31G*
  Basis Set:

    Orbital Energies (a.u.)
    -----------------------

    Doubly Occupied:

       1A    -20.602656     2A    -20.544729     3A    -11.375165
       4A    -11.282271     5A    -11.233840     6A    -11.225679
       7A    -11.219656     8A    -11.212927     9A     -1.468939
      10A     -1.363138    11A     -1.085183    12A     -1.028389
      13A     -0.981386    14A     -0.880288    15A     -0.814117
      16A     -0.771415    17A     -0.690168    18A     -0.685125
      19A     -0.667720    20A     -0.632493    21A     -0.598497
      22A     -0.592860    23A     -0.572884    24A     -0.549829
      25A     -0.545493    26A     -0.533348    27A     -0.510366
      28A     -0.483930    29A     -0.473322    30A     -0.470437
      31A     -0.448683    32A     -0.439473

  @DF-RHF Final Energy:  -383.94475895174088

   => Energetics <=

    Nuclear Repulsion Energy =            385.8001296742563113
    One-Electron Energy =               -1287.5209580142393406
    Two-Electron Energy =                 517.7760693882420355
    DFT Exchange-Correlation Energy =       0.0000000000000000
    Empirical Dispersion Energy =           0.0000000000000000
    PCM Polarization Energy =               0.0000000000000000
    EFP Energy =                            0.0000000000000000
    Total Energy =                       -383.9447589517409369
    Molecular point group: c1
  Basis Set: 6-31G*
  Basis Set:

  -Total Gradient:
     Atom            X                  Y                   Z
    ------   -----------------  -----------------  -----------------
       1       -0.000007598043    -0.000007353747    -0.000001458804
       2        0.000030708691     0.000001092117     0.000014117223
       3       -0.000002128771     0.000002256242    -0.000004792465
       4        0.000019713080    -0.000008156137     0.000002957095
       5       -0.000001801312     0.000004918098    -0.000000274300
       6        0.000001786799    -0.000001068913    -0.000002353534
       7        0.000002093185    -0.000002521252    -0.000001613266
       8       -0.000999042887     0.005052086978    -0.000710024354
       9        0.001417224219    -0.003083246877    -0.002522874991
      10        0.000503295053    -0.003498354436     0.001205881932
      11       -0.000003948970     0.000007318964     0.000014143165
      12       -0.000927113331     0.001528867821     0.001991973416
      13       -0.000015128638     0.000004182450    -0.000009318842
      14       -0.000005735470    -0.000003833823     0.000013656635
      15       -0.000004718111     0.000001060818     0.000010590315
      16       -0.000000624645    -0.000000428236    -0.000004773597
      17       -0.000004682201     0.000004528419     0.000007763004
      18       -0.000002322343     0.000001718313     0.000002468093
      19       -0.000001402767     0.000002726875    -0.000006575479
      20        0.000001426458    -0.000005793673     0.000000508752

  **** Optimization is complete! (in 7 steps) ****
    Final optimized geometry and variables:
    Molecular point group: c1

    Geometry (in Angstrom), charge = 0, multiplicity = 1:

    O           -2.410835364535    -1.012446428231    -0.479994217623
    C           -1.908171460922    -0.002832967687    -0.105983279738
    C           -2.634230902588     1.299375361310     0.097572344530
    O           -0.619867835694     0.110636097548     0.185957670434
    H           -2.196314219343     2.064928634567    -0.532565335420
    H           -3.678794197424     1.173490977389    -0.145044883922
    H           -2.527956594422     1.620890261211     1.127205076621
    C            0.191884480400    -1.047140017614     0.037767223278
    C            1.619049517542    -0.703432383233     0.429994428991
    H            0.134153230850    -1.408991356200    -0.980761409704
    H           -0.200723603021    -1.830683929584     0.672706074333
    C            2.185879557759     0.536258096851    -0.265054842507
    H            2.234131434308    -1.572395912811     0.207395035718
    H            1.663940359913    -0.558240301651     1.506695933795
    C            3.646342712641     0.793370717170     0.104393073961
    H            2.101223531923     0.418303494427    -1.343711746239
    H            1.585414747157     1.399319979109    -0.001519245589
    H            4.024050662183     1.682710309787    -0.390117291712
    H            4.279873578993    -0.040271492932    -0.185309027068
    H            3.760314648523     0.937718724083     1.175162060465

  Mulliken Charges: (a.u.)
   Center  Symbol    Alpha    Beta     Spin     Total
       1     O     4.28286  4.28286  0.00000 -0.56572
       2     C     2.61898  2.61898  0.00000  0.76205
       3     C     3.28179  3.28179  0.00000 -0.56358
       4     O     4.30783  4.30783  0.00000 -0.61565
       5     H     0.40056  0.40056  0.00000  0.19888
       6     H     0.39674  0.39674  0.00000  0.20651
       7     H     0.40055  0.40055  0.00000  0.19890
       8     C     3.00217  3.00217  0.00000 -0.00433
       9     C     3.16628  3.16628  0.00000 -0.33255
      10     H     0.41081  0.41081  0.00000  0.17838
      11     H     0.40888  0.40888  0.00000  0.18225
      12     C     3.15358  3.15358  0.00000 -0.30715
      13     H     0.41777  0.41777  0.00000  0.16446
      14     H     0.41642  0.41642  0.00000  0.16716
      15     C     3.24069  3.24069  0.00000 -0.48138
      16     H     0.42308  0.42308  0.00000  0.15384
      17     H     0.41054  0.41054  0.00000  0.17891
      18     H     0.41768  0.41768  0.00000  0.16464
      19     H     0.42178  0.42178  0.00000  0.15645
      20     H     0.42102  0.42102  0.00000  0.15795

   Total alpha = 32.00000, Total beta = 32.00000, Total charge =  0.00000
