  ==> Input File <==

--------------------------------------------------------------------------
set {
	reference rhf
	basis 6-31G*
}

set_num_threads( 4 )
memory 2 gb

molecule MOL {
0 1

H	 -1.070890	 -1.366565	 0.180696
O	 -1.422729	 -0.573567	 -0.196946
C	 -0.731407	 0.539437	 0.309156
C	 0.680193	 0.672443	 -0.251532
H	 -1.319765	 1.404033	 0.030086
H	 -0.700012	 0.506517	 1.397677
C	 1.743513	 0.923846	 0.817977
H	 0.921015	 -0.233137	 -0.800690
H	 0.686302	 1.490721	 -0.968417
H	 1.814597	 0.090239	 1.510250
H	 2.723415	 1.052706	 0.370592
H	 1.523130	 1.821169	 1.391131

	symmetry c1
}
set optking {
	frozen_dihedral = ("
		8 4 3 2
	")
}

ee = optimize('scf')
oeprop('DIPOLE', 'QUADRUPOLE', 'MULLIKEN_CHARGES')
f=open( 'psi4out.xyz', 'w' )
f.write( "12  " )
f.write( str(ee) + "\n" )
f.write( MOL.save_string_xyz() )
f.close()
--------------------------------------------------------------------------

    Molecular point group: c1
  Charge       = 0
  Multiplicity = 1
  Basis Set: 6-31G*
  Basis Set:
  @DF-RHF Final Energy:  -193.10369986659006
    Total Energy =                       -193.1036998665900342
    Molecular point group: c1
  Basis Set: 6-31G*
  Basis Set:
  Basis Set: 6-31G*
  Basis Set:
  @DF-RHF Final Energy:  -193.10417741650519
    Total Energy =                       -193.1041774165052800
  Basis Set: 6-31G*
  Basis Set:
  Basis Set: 6-31G*
  Basis Set:
  @DF-RHF Final Energy:  -193.10425728025007
    Total Energy =                       -193.1042572802500104
  Basis Set: 6-31G*
  Basis Set:
  Basis Set: 6-31G*
  Basis Set:
  @DF-RHF Final Energy:  -193.10426041442130
    Total Energy =                       -193.1042604144211055
  Basis Set: 6-31G*
  Basis Set:
  Charge       = 0
  Multiplicity = 1
  Basis Set: 6-31G*
  Basis Set:

    Orbital Energies (a.u.)
    -----------------------

    Doubly Occupied:

       1A    -20.552083     2A    -11.268089     3A    -11.219485
       4A    -11.217376     5A     -1.358955     6A     -1.050635
       7A     -0.919401     8A     -0.818785     9A     -0.691238
      10A     -0.636733    11A     -0.595470    12A     -0.571643
      13A     -0.564946    14A     -0.508399    15A     -0.489371
      16A     -0.463969    17A     -0.428463

  @DF-RHF Final Energy:  -193.10426054776349

   => Energetics <=

    Nuclear Repulsion Energy =            130.8272567454220052
    One-Electron Energy =                -521.1529506770826856
    Two-Electron Energy =                 197.2214333838972209
    DFT Exchange-Correlation Energy =       0.0000000000000000
    Empirical Dispersion Energy =           0.0000000000000000
    PCM Polarization Energy =               0.0000000000000000
    EFP Energy =                            0.0000000000000000
    Total Energy =                       -193.1042605477634595
    Molecular point group: c1
  Basis Set: 6-31G*
  Basis Set:

  -Total Gradient:
     Atom            X                  Y                   Z
    ------   -----------------  -----------------  -----------------
       1       -0.000010587541    -0.000033295351    -0.000008324667
       2        0.000796336727    -0.001304378591     0.001714111745
       3       -0.001306154098     0.002061414754    -0.002849464238
       4        0.001559270336    -0.001880249382     0.003508492211
       5        0.000016531420     0.000021473832     0.000002150111
       6       -0.000004728443    -0.000025334719    -0.000005249928
       7        0.000005432293    -0.000021767587    -0.000016015808
       8       -0.001033816927     0.001159761181    -0.002343527340
       9       -0.000013703474     0.000013920698     0.000002673045
      10        0.000001433491     0.000007668400    -0.000006215068
      11       -0.000001315716    -0.000006583923     0.000010106916
      12       -0.000008698070     0.000007370688    -0.000008736977

  **** Optimization is complete! (in 5 steps) ****
    Final optimized geometry and variables:
    Molecular point group: c1

    Geometry (in Angstrom), charge = 0, multiplicity = 1:

    H           -1.050420594590    -1.717642649008    -0.085758675203
    O           -1.479530066518    -0.919667098330    -0.360950442247
    C           -0.771325901788     0.184016861666     0.142218369898
    C            0.654324093815     0.308397296666    -0.429184226041
    H           -1.364867569107     1.051724116727    -0.110960579112
    H           -0.732625373104     0.132012423518     1.229500372770
    C            1.719917719625     0.573775647007     0.633336157401
    H            0.882428853043    -0.598936130947    -0.981586524764
    H            0.681143169464     1.103817780382    -1.168903662373
    H            1.762635760957    -0.233206223837     1.359834168664
    H            2.704044962762     0.670731868201     0.186718094879
    H            1.513231460325     1.492343694955     1.175530420681

  Mulliken Charges: (a.u.)
   Center  Symbol    Alpha    Beta     Spin     Total
       1     H     0.28372  0.28372  0.00000  0.43256
       2     O     4.37008  4.37008  0.00000 -0.74015
       3     C     2.99446  2.99446  0.00000  0.01108
       4     C     3.17321  3.17321  0.00000 -0.34643
       5     H     0.41362  0.41362  0.00000  0.17276
       6     H     0.42919  0.42919  0.00000  0.14162
       7     C     3.24469  3.24469  0.00000 -0.48938
       8     H     0.41666  0.41666  0.00000  0.16669
       9     H     0.41552  0.41552  0.00000  0.16896
      10     H     0.42248  0.42248  0.00000  0.15503
      11     H     0.41681  0.41681  0.00000  0.16639
      12     H     0.41957  0.41957  0.00000  0.16086

   Total alpha = 17.00000, Total beta = 17.00000, Total charge = -0.00000
