  ==> Input File <==

--------------------------------------------------------------------------
set {
	reference rhf
	basis cc-pvtz
}

set_num_threads( 4 )
memory 2 gb

molecule MOL {
0 1

H	 -2.498963	 -0.741158	 -0.729149
O	 -2.346257	 -0.289210	 0.080372
C	 -1.183935	 0.486039	 -0.009831
C	 0.062853	 -0.375310	 0.027457
H	 -1.178881	 1.094526	 -0.908634
H	 -1.184406	 1.155156	 0.838676
O	 1.172093	 0.457955	 -0.054438
H	 0.052476	 -1.081302	 -0.804627
H	 0.076323	 -0.955658	 0.947560
C	 2.137548	 0.234772	 0.919885
H	 2.535696	 -0.775799	 0.860724
H	 2.942430	 0.935999	 0.755171
H	 1.736754	 0.388848	 1.918958

	symmetry c1
}
set optking {
	frozen_dihedral = ("
		10 7 4 8
	")
}

ee = optimize('scf')
oeprop('DIPOLE', 'QUADRUPOLE', 'MULLIKEN_CHARGES')
f=open( 'psi4out.xyz', 'w' )
f.write( "13  " )
f.write( str(ee) + "\n" )
f.write( MOL.save_string_xyz() )
f.close()
--------------------------------------------------------------------------

    Molecular point group: c1
  Charge       = 0
  Multiplicity = 1
  Basis Set: CC-PVTZ
  Basis Set:
  @DF-RHF Final Energy:  -268.05903786732870
    Total Energy =                       -268.0590378673286978
    Molecular point group: c1
  Basis Set: CC-PVTZ
  Basis Set:
  Basis Set: CC-PVTZ
  Basis Set:
  @DF-RHF Final Energy:  -268.05927394296447
    Total Energy =                       -268.0592739429644098
  Basis Set: CC-PVTZ
  Basis Set:
  Basis Set: CC-PVTZ
  Basis Set:
  @DF-RHF Final Energy:  -268.05933767296318
    Total Energy =                       -268.0593376729631245
  Basis Set: CC-PVTZ
  Basis Set:
  Charge       = 0
  Multiplicity = 1
  Basis Set: CC-PVTZ
  Basis Set:

    Orbital Energies (a.u.)
    -----------------------

    Doubly Occupied:

       1A    -20.553222     2A    -20.552798     3A    -11.268931
       4A    -11.267954     5A    -11.266985     6A     -1.387811
       7A     -1.368663     8A     -1.018247     9A     -0.917253
      10A     -0.840881    11A     -0.710505    12A     -0.676480
      13A     -0.659455    14A     -0.635766    15A     -0.602267
      16A     -0.576863    17A     -0.534294    18A     -0.497301
      19A     -0.482468    20A     -0.452888    21A     -0.411546

  @DF-RHF Final Energy:  -268.05933862328743

   => Energetics <=

    Nuclear Repulsion Energy =            190.6633298999377359
    One-Electron Energy =                -744.0801828130544209
    Two-Electron Energy =                 285.3575142898291688
    DFT Exchange-Correlation Energy =       0.0000000000000000
    Empirical Dispersion Energy =           0.0000000000000000
    PCM Polarization Energy =               0.0000000000000000
    EFP Energy =                            0.0000000000000000
    Total Energy =                       -268.0593386232875446
    Molecular point group: c1
  Basis Set: CC-PVTZ
  Basis Set:

  -Total Gradient:
     Atom            X                  Y                   Z
    ------   -----------------  -----------------  -----------------
       1       -0.000012990363    -0.000000287449     0.000004803543
       2       -0.000038237482    -0.000036437237     0.000006898919
       3       -0.000018128231    -0.000036960099    -0.000059191424
       4        0.000742640455    -0.000752792768     0.001302007145
       5        0.000021457519     0.000020279469     0.000007844824
       6        0.000037852748    -0.000011705639     0.000000436601
       7        0.000547624583    -0.000944423357    -0.001171777082
       8       -0.000777018151     0.000955143290    -0.000773561684
       9       -0.000008515754    -0.000017355131     0.000013426070
      10       -0.000438149834     0.000815187238     0.000709555838
      11       -0.000032753053     0.000009453835    -0.000011948606
      12        0.000010147881     0.000005675825     0.000002187874
      13       -0.000033930319    -0.000005777979    -0.000030682019

  **** Optimization is complete! (in 4 steps) ****
    Final optimized geometry and variables:
    Molecular point group: c1

    Geometry (in Angstrom), charge = 0, multiplicity = 1:

    H           -2.437383703625    -0.816468766907    -0.967251347649
    O           -2.308347457876    -0.373924628664    -0.148364424986
    C           -1.141730791682     0.399138829836    -0.194750038640
    C            0.104986192573    -0.465112409079    -0.136021289464
    H           -1.108753280097     1.020089518384    -1.084456441171
    H           -1.167053442907     1.058411623538     0.661957686033
    O            1.232575937300     0.351507679614    -0.233161334056
    H            0.095182354664    -1.170232026547    -0.964846657047
    H            0.103225083941    -1.037895829321     0.785528503820
    C            2.220963702001     0.148824751308     0.724744853003
    H            2.639843883367    -0.852618291855     0.663933329029
    H            3.008477168348     0.864609759869     0.538555291486
    H            1.839442653909     0.303382549816     1.730695031019

  Mulliken Charges: (a.u.)
   Center  Symbol    Alpha    Beta     Spin     Total
       1     H     0.39316  0.39316  0.00000  0.21369
       2     O     4.20309  4.20309  0.00000 -0.40619
       3     C     2.97084  2.97084  0.00000  0.05831
       4     C     2.97325  2.97325  0.00000  0.05350
       5     H     0.46674  0.46674  0.00000  0.06652
       6     H     0.45700  0.45700  0.00000  0.08601
       7     O     4.18162  4.18162  0.00000 -0.36324
       8     H     0.46821  0.46821  0.00000  0.06359
       9     H     0.46844  0.46844  0.00000  0.06311
      10     C     3.02921  3.02921  0.00000 -0.05843
      11     H     0.46873  0.46873  0.00000  0.06254
      12     H     0.44894  0.44894  0.00000  0.10212
      13     H     0.47077  0.47077  0.00000  0.05846

   Total alpha = 21.00000, Total beta = 21.00000, Total charge = -0.00000
