  ==> Input File <==

--------------------------------------------------------------------------
set {
	reference rhf
	basis cc-pvtz
}

set_num_threads( 4 )
memory 2 gb

molecule MOL {
0 1

H	 -2.498963	 -0.741158	 -0.729149
O	 -2.346257	 -0.289210	 0.080372
C	 -1.183935	 0.486039	 -0.009831
C	 0.062853	 -0.375310	 0.027457
H	 -1.178881	 1.094526	 -0.908634
H	 -1.184406	 1.155156	 0.838676
O	 0.453504	 -0.635274	 -1.280695
H	 -0.143973	 -1.306705	 0.557195
H	 0.847071	 0.143830	 0.574329
C	 1.610501	 -1.395839	 -1.399532
H	 1.492390	 -2.373780	 -0.938059
H	 1.811887	 -1.529936	 -2.452218
H	 2.461554	 -0.898895	 -0.939886

	symmetry c1
}
set optking {
	frozen_dihedral = ("
		8 4 3 5
	")
}

ee = optimize('scf')
oeprop('DIPOLE', 'QUADRUPOLE', 'MULLIKEN_CHARGES')
f=open( 'psi4out.xyz', 'w' )
f.write( "13  " )
f.write( str(ee) + "\n" )
f.write( MOL.save_string_xyz() )
f.close()
--------------------------------------------------------------------------

    Molecular point group: c1
  Charge       = 0
  Multiplicity = 1
  Basis Set: CC-PVTZ
  Basis Set:
  @DF-RHF Final Energy:  -268.06046475767380
    Total Energy =                       -268.0604647576740263
    Molecular point group: c1
  Basis Set: CC-PVTZ
  Basis Set:
  Basis Set: CC-PVTZ
  Basis Set:
  @DF-RHF Final Energy:  -268.06126830455230
    Total Energy =                       -268.0612683045523568
  Basis Set: CC-PVTZ
  Basis Set:
  Basis Set: CC-PVTZ
  Basis Set:
  @DF-RHF Final Energy:  -268.06148401796929
    Total Energy =                       -268.0614840179693488
  Basis Set: CC-PVTZ
  Basis Set:
  Basis Set: CC-PVTZ
  Basis Set:
  @DF-RHF Final Energy:  -268.06149551611270
    Total Energy =                       -268.0614955161124726
  Basis Set: CC-PVTZ
  Basis Set:
  Charge       = 0
  Multiplicity = 1
  Basis Set: CC-PVTZ
  Basis Set:

    Orbital Energies (a.u.)
    -----------------------

    Doubly Occupied:

       1A    -20.556485     2A    -20.545815     3A    -11.269687
       4A    -11.268321     5A    -11.267548     6A     -1.391807
       7A     -1.361593     8A     -1.019307     9A     -0.917157
      10A     -0.839363    11A     -0.706657    12A     -0.682255
      13A     -0.659838    14A     -0.634148    15A     -0.599634
      16A     -0.571267    17A     -0.538818    18A     -0.493458
      19A     -0.488537    20A     -0.439847    21A     -0.425054

  @DF-RHF Final Energy:  -268.06149618116461

   => Energetics <=

    Nuclear Repulsion Energy =            192.6576601716269010
    One-Electron Energy =                -748.0851187184838409
    Two-Electron Energy =                 287.3659623656923259
    DFT Exchange-Correlation Energy =       0.0000000000000000
    Empirical Dispersion Energy =           0.0000000000000000
    PCM Polarization Energy =               0.0000000000000000
    EFP Energy =                            0.0000000000000000
    Total Energy =                       -268.0614961811646708
    Molecular point group: c1
  Basis Set: CC-PVTZ
  Basis Set:

  -Total Gradient:
     Atom            X                  Y                   Z
    ------   -----------------  -----------------  -----------------
       1       -0.000004957262    -0.000012228039    -0.000000488264
       2       -0.000027726085     0.000018661051    -0.000022325074
       3        0.003065150997     0.004976567752     0.002618112763
       4        0.001412208692     0.002199588019     0.005984661405
       5       -0.002842361568    -0.004569689997    -0.003164964078
       6        0.000023921029    -0.000013378324    -0.000007411258
       7       -0.000039510439     0.000014957114    -0.000018023665
       8       -0.001583468606    -0.002624046546    -0.005434565184
       9        0.000000819107     0.000003198927     0.000007922517
      10        0.000014886872    -0.000016693199     0.000037061449
      11       -0.000001480865    -0.000002784930    -0.000001739183
      12       -0.000026008391     0.000025348397     0.000008155368
      13        0.000008526518     0.000000499770    -0.000006396796

  **** Optimization is complete! (in 5 steps) ****
    Final optimized geometry and variables:
    Molecular point group: c1

    Geometry (in Angstrom), charge = 0, multiplicity = 1:

    H           -2.079644119571    -0.344483986966    -0.265419484997
    O           -2.038094329841     0.131114731987     0.544949359105
    C           -0.892245751502     0.941259836661     0.548592187591
    C            0.389084774893     0.127777738888     0.574233914033
    H           -0.886913712801     1.557163879182    -0.343928294154
    H           -0.963877085811     1.569077959854     1.424836235690
    O            0.757241274456    -0.150617512799    -0.747040760844
    H            0.198697950621    -0.811799915861     1.086215492095
    H            1.187196371631     0.665508298498     1.081386688664
    C            1.875465626912    -0.965741229526    -0.872620162222
    H            1.715370297422    -1.936759284145    -0.409417998682
    H            2.064689093076    -1.109332679954    -1.926498888775
    H            2.752752313564    -0.509782882057    -0.418995806221

  Mulliken Charges: (a.u.)
   Center  Symbol    Alpha    Beta     Spin     Total
       1     H     0.38925  0.38925  0.00000  0.22151
       2     O     4.20796  4.20796  0.00000 -0.41593
       3     C     2.96360  2.96360  0.00000  0.07279
       4     C     2.98121  2.98121  0.00000  0.03759
       5     H     0.46550  0.46550  0.00000  0.06900
       6     H     0.45580  0.45580  0.00000  0.08839
       7     O     4.17960  4.17960  0.00000 -0.35919
       8     H     0.46736  0.46736  0.00000  0.06528
       9     H     0.47183  0.47183  0.00000  0.05634
      10     C     3.02936  3.02936  0.00000 -0.05871
      11     H     0.47071  0.47071  0.00000  0.05858
      12     H     0.44686  0.44686  0.00000  0.10629
      13     H     0.47096  0.47096  0.00000  0.05807

   Total alpha = 21.00000, Total beta = 21.00000, Total charge = -0.00000
