                              Psi4 1.0.54 Driver

  ==> Input File <==

--------------------------------------------------------------------------
set {
	reference rhf
	basis cc-pvtz
}

set_num_threads( 4 )
memory 2 gb

molecule MOL {
0 1

H	 2.464222	 -0.472245	 -0.615042
C	 1.948180	 -0.217873	 0.320185
C	 0.692262	 0.592428	 0.156232
O	 2.391164	 -0.575774	 1.356190
C	 -0.554654	 -0.292621	 0.086567
H	 0.791858	 1.203694	 -0.731051
H	 0.617379	 1.254358	 1.016534
C	 -1.846385	 0.513195	 -0.016346
H	 -0.473986	 -0.956115	 -0.769708
H	 -0.597929	 -0.929215	 0.966651
C	 -3.089953	 -0.365049	 -0.098564
H	 -1.798267	 1.154820	 -0.891143
H	 -1.925398	 1.173265	 0.842889
H	 -3.055079	 -1.012299	 -0.968245
H	 -3.988403	 0.236438	 -0.170014
H	 -3.183055	 -0.995885	 0.779079

	symmetry c1
}
set optking {
	frozen_dihedral = ("
		4 2 3 6
	")
}

ee,wfn = optimize('scf', return_wfn=True)
oeprop( wfn, 'DIPOLE', 'QUADRUPOLE', 'MULLIKEN_CHARGES')
f=open( 'psi4out.xyz', 'w' )
f.write( "16  " )
f.write( str(ee) + "\n" )
f.write( MOL.save_string_xyz() )
f.close()
--------------------------------------------------------------------------

    Molecular point group: c1
  Charge       = 0
  Multiplicity = 1
  Basis Set: CC-PVTZ
  Basis Set:
  @DF-RHF Final Energy:  -270.11784681702937
    Total Energy =                       -270.1178468170293172
    Molecular point group: c1
  Basis Set: CC-PVTZ
  Basis Set:
  Basis Set: CC-PVTZ
  Basis Set:
  @DF-RHF Final Energy:  -270.11726299454290
    Total Energy =                       -270.1172629945430117
  Basis Set: CC-PVTZ
  Basis Set:
  Basis Set: CC-PVTZ
  Basis Set:
  @DF-RHF Final Energy:  -270.11811081474320
    Total Energy =                       -270.1181108147432042
  Basis Set: CC-PVTZ
  Basis Set:
  Basis Set: CC-PVTZ
  Basis Set:
  @DF-RHF Final Energy:  -270.11833314618366
    Total Energy =                       -270.1183331461837724
  Basis Set: CC-PVTZ
  Basis Set:
  Basis Set: CC-PVTZ
  Basis Set:
  @DF-RHF Final Energy:  -270.11832686578174
    Total Energy =                       -270.1183268657816257
  Basis Set: CC-PVTZ
  Basis Set:
  Basis Set: CC-PVTZ
  Basis Set:
  @DF-RHF Final Energy:  -270.11833795650057
    Total Energy =                       -270.1183379565006817
  Basis Set: CC-PVTZ
  Basis Set:
  Charge       = 0
  Multiplicity = 1
  Basis Set: CC-PVTZ
  Basis Set:

    Orbital Energies (a.u.)
    -----------------------

    Doubly Occupied:

       1A    -20.551910     2A    -11.321408     3A    -11.233789
       4A    -11.233128     5A    -11.226116     6A    -11.215385
       7A     -1.406926     8A     -1.095909     9A     -1.018499
      10A     -0.906338    11A     -0.812800    12A     -0.789534
      13A     -0.684743    14A     -0.647504    15A     -0.632360
      16A     -0.603740    17A     -0.578855    18A     -0.553601
      19A     -0.528440    20A     -0.512866    21A     -0.486756
      22A     -0.480044    23A     -0.478173    24A     -0.410838

  @DF-RHF Final Energy:  -270.11833824305381

   => Energetics <=

    Nuclear Repulsion Energy =            230.5978560819449683
    One-Electron Energy =                -822.6130677713967998
    Two-Electron Energy =                 321.8968734463977626
    DFT Exchange-Correlation Energy =       0.0000000000000000
    Empirical Dispersion Energy =           0.0000000000000000
    PCM Polarization Energy =               0.0000000000000000
    EFP Energy =                            0.0000000000000000
    Total Energy =                       -270.1183382430540405
    Molecular point group: c1
  Basis Set: CC-PVTZ
  Basis Set:

  -Total Gradient:
     Atom            X                  Y                   Z
    ------   -----------------  -----------------  -----------------
       1       -0.000006573758    -0.000006190874     0.000015262821
       2        0.001094628375     0.001617560480    -0.000106685927
       3        0.000400684918     0.000727969661     0.000981536985
       4       -0.000861058939    -0.001285881907    -0.000065540736
       5        0.000019284227     0.000010556228    -0.000011363814
       6       -0.000657373084    -0.001058261720    -0.000794535459
       7        0.000015402016    -0.000000243076    -0.000004695139
       8       -0.000008580643    -0.000000247407    -0.000015733204
       9       -0.000007293925    -0.000000975784    -0.000004097842
      10       -0.000001709829     0.000002378754    -0.000006354169
      11        0.000003027203    -0.000001803360     0.000013933803
      12        0.000004200328    -0.000002801198    -0.000001000342
      13        0.000006637151    -0.000001563781    -0.000003751294
      14       -0.000000648581     0.000004624430     0.000000529174
      15        0.000002519020    -0.000001385191     0.000004596901
      16       -0.000003144473    -0.000003735255    -0.000002101757

  **** Optimization is complete! (in 7 steps) ****
    Final optimized geometry and variables:
    Molecular point group: c1

    Geometry (in Angstrom), charge = 0, multiplicity = 1:

    H            2.460423291257    -0.454020972082    -0.969646587397
    C            2.016772769006    -0.158360110212    -0.010579194162
    C            0.771781158205     0.683825563881    -0.095217703689
    O            2.491956828875    -0.539799159087     1.002901944059
    C           -0.470641007434    -0.211207296805    -0.196350027854
    H            0.828591146184     1.317782954681    -0.974499677708
    H            0.714623764424     1.307337405405     0.787724267269
    C           -1.763524207317     0.588396556516    -0.326755849325
    H           -0.371467158112    -0.875871225191    -1.051195429900
    H           -0.517779930014    -0.843748120151     0.683758273025
    C           -3.001868733597    -0.297038872581    -0.412773951641
    H           -1.708249921963     1.219914166703    -1.208984018123
    H           -1.855780010157     1.257758775894     0.523498386560
    H           -2.954063583358    -0.955108644200    -1.273886889379
    H           -3.902342439569     0.299119318139    -0.501969114482
    H           -3.101393083010    -0.917123346425     0.471485478201

  Mulliken Charges: (a.u.)
   Center  Symbol    Alpha    Beta     Spin     Total
       1     H     0.46062  0.46062  0.00000  0.07876
       2     C     2.91332  2.91332  0.00000  0.17336
       3     C     3.07810  3.07810  0.00000 -0.15621
       4     O     4.16743  4.16743  0.00000 -0.33486
       5     C     3.09801  3.09801  0.00000 -0.19602
       6     H     0.45139  0.45139  0.00000  0.09723
       7     H     0.44269  0.44269  0.00000  0.11462
       8     C     3.08511  3.08511  0.00000 -0.17022
       9     H     0.45232  0.45232  0.00000  0.09535
      10     H     0.44244  0.44244  0.00000  0.11511
      11     C     3.14917  3.14917  0.00000 -0.29833
      12     H     0.45369  0.45369  0.00000  0.09261
      13     H     0.45125  0.45125  0.00000  0.09749
      14     H     0.45462  0.45462  0.00000  0.09075
      15     H     0.44706  0.44706  0.00000  0.10588
      16     H     0.45276  0.45276  0.00000  0.09448

   Total alpha = 24.00000, Total beta = 24.00000, Total charge = -0.00000

*** Psi4 exiting successfully. Buy a developer a beer!
