  ==> Input File <==

--------------------------------------------------------------------------
set {
	reference rhf
	basis cc-pvtz
}

set_num_threads( 4 )
memory 2 gb

molecule MOL {
0 1

H	 -3.470074	 -0.400431	 -0.762012
O	 -3.106200	 -0.211208	 0.084242
C	 -1.772961	 -0.078518	 0.023690
C	 -1.071126	 -0.214303	 -1.167707
C	 -1.103497	 0.202659	 1.203071
H	 -1.597544	 -0.432474	 -2.078593
C	 0.295747	 -0.068297	 -1.173579
H	 -1.663680	 0.303385	 2.110853
C	 0.265442	 0.345863	 1.180148
H	 0.848746	 -0.170649	 -2.086172
C	 0.981121	 0.213562	 0.000000
H	 0.785845	 0.564009	 2.094539
C	 2.447402	 0.371303	 0.000000
O	 3.227427	 -0.521847	 0.000000
H	 2.796538	 1.409525	 0.000000

	symmetry c1
}
set optking {
	frozen_dihedral = ("
		7 11 13 14
	")
}

ee = optimize('scf')
oeprop('DIPOLE', 'QUADRUPOLE', 'MULLIKEN_CHARGES')
f=open( 'psi4out.xyz', 'w' )
f.write( "15  " )
f.write( str(ee) + "\n" )
f.write( MOL.save_string_xyz() )
f.close()
--------------------------------------------------------------------------

    Molecular point group: c1
  Charge       = 0
  Multiplicity = 1
  Basis Set: CC-PVTZ
  Basis Set:
  @DF-RHF Final Energy:  -418.42695345056728
    Total Energy =                       -418.4269534505674528
    Molecular point group: c1
  Basis Set: CC-PVTZ
  Basis Set:
  Basis Set: CC-PVTZ
  Basis Set:
  @DF-RHF Final Energy:  -418.42744437137344
    Total Energy =                       -418.4274443713734399
  Basis Set: CC-PVTZ
  Basis Set:
  Basis Set: CC-PVTZ
  Basis Set:
  @DF-RHF Final Energy:  -418.42665500081409
    Total Energy =                       -418.4266550008138665
  Basis Set: CC-PVTZ
  Basis Set:
  Basis Set: CC-PVTZ
  Basis Set:
  @DF-RHF Final Energy:  -418.42774838143652
    Total Energy =                       -418.4277483814366860
  Basis Set: CC-PVTZ
  Basis Set:
  Basis Set: CC-PVTZ
  Basis Set:
  @DF-RHF Final Energy:  -418.42775512160642
    Total Energy =                       -418.4277551216060829
  Basis Set: CC-PVTZ
  Basis Set:
  Basis Set: CC-PVTZ
  Basis Set:
  @DF-RHF Final Energy:  -418.42775644390917
    Total Energy =                       -418.4277564439096295
  Basis Set: CC-PVTZ
  Basis Set:
  Charge       = 0
  Multiplicity = 1
  Basis Set: CC-PVTZ
  Basis Set:

    Orbital Energies (a.u.)
    -----------------------

    Doubly Occupied:

       1A    -20.596666     2A    -20.561228     3A    -11.330517
       4A    -11.311671     5A    -11.252547     6A    -11.251570
       7A    -11.242374     8A    -11.240294     9A    -11.235553
      10A     -1.428383    11A     -1.415187    12A     -1.172761
      13A     -1.041334    14A     -1.039093    15A     -0.889836
      16A     -0.864518    17A     -0.802728    18A     -0.756789
      19A     -0.712555    20A     -0.678081    21A     -0.659986
      22A     -0.631158    23A     -0.607944    24A     -0.607521
      25A     -0.594602    26A     -0.565463    27A     -0.534697
      28A     -0.505433    29A     -0.498623    30A     -0.425387
      31A     -0.358719    32A     -0.328376

  @DF-RHF Final Energy:  -418.42775669430370

   => Energetics <=

    Nuclear Repulsion Energy =            401.0131969700199193
    One-Electron Energy =               -1364.5987158637897210
    Two-Electron Energy =                 545.1577621994662195
    DFT Exchange-Correlation Energy =       0.0000000000000000
    Empirical Dispersion Energy =           0.0000000000000000
    PCM Polarization Energy =               0.0000000000000000
    EFP Energy =                            0.0000000000000000
    Total Energy =                       -418.4277566943036391
    Molecular point group: c1
  Basis Set: CC-PVTZ
  Basis Set:

  -Total Gradient:
     Atom            X                  Y                   Z
    ------   -----------------  -----------------  -----------------
       1        0.000009053855     0.000005660059    -0.000000224802
       2       -0.000030939325     0.000028279975     0.000005293653
       3        0.000049307478    -0.000086109894     0.000030181711
       4       -0.000002067419     0.000024006646    -0.000011339704
       5       -0.000041908112     0.000020920666    -0.000019332683
       6        0.000006718600     0.000000033174    -0.000002126473
       7       -0.000406437933     0.003032282229    -0.000469098915
       8        0.000006559897     0.000001057971     0.000006013194
       9        0.000016061842    -0.000010190453    -0.000009188759
      10       -0.000002524688    -0.000004086750    -0.000006380232
      11        0.000560387079    -0.004470439074     0.002369124702
      12       -0.000008946766    -0.000001585608     0.000005999406
      13       -0.000189247905     0.001477600072    -0.005671237534
      14        0.000010990728    -0.000031913930     0.003771936251
      15        0.000022992673     0.000014484917     0.000000380182

  **** Optimization is complete! (in 7 steps) ****
    Final optimized geometry and variables:
    Molecular point group: c1

    Geometry (in Angstrom), charge = 0, multiplicity = 1:

    H           -3.487056461227    -0.391003072198    -0.766145909768
    O           -3.122742069275    -0.192304116504     0.077528596207
    C           -1.783664320020    -0.069275259432     0.011884932045
    C           -1.081288497363    -0.205892577758    -1.170221583544
    C           -1.108202148095     0.211145008039     1.188715300635
    H           -1.601531624308    -0.417601133114    -2.086344711108
    C            0.294691223070    -0.072350764152    -1.172375212138
    H           -1.665649167731     0.316813701074     2.098110543644
    C            0.260632357432     0.353204606232     1.171895767577
    H            0.831945951522    -0.188679222087    -2.094523617489
    C            0.978891995233     0.193801312098    -0.003687346686
    H            0.773838578672     0.579063900647     2.088207377476
    C            2.464052247198     0.388974793424    -0.012559005719
    O            3.251491283270    -0.491191658022    -0.042493493132
    H            2.806094774492     1.428194794408     0.042101635280

  Mulliken Charges: (a.u.)
   Center  Symbol    Alpha    Beta     Spin     Total
       1     H     0.38655  0.38655  0.00000  0.22691
       2     O     4.17046  4.17046  0.00000 -0.34093
       3     C     2.85715  2.85715  0.00000  0.28569
       4     C     3.12351  3.12351  0.00000 -0.24703
       5     C     3.09879  3.09879  0.00000 -0.19757
       6     H     0.43222  0.43222  0.00000  0.13556
       7     C     3.08912  3.08912  0.00000 -0.17823
       8     H     0.41697  0.41697  0.00000  0.16607
       9     C     3.07843  3.07843  0.00000 -0.15685
      10     H     0.41928  0.41928  0.00000  0.16143
      11     C     2.95481  2.95481  0.00000  0.09037
      12     H     0.42242  0.42242  0.00000  0.15515
      13     C     2.93391  2.93391  0.00000  0.13218
      14     O     4.15678  4.15678  0.00000 -0.31356
      15     H     0.45960  0.45960  0.00000  0.08079

   Total alpha = 32.00000, Total beta = 32.00000, Total charge = -0.00000
