  ==> Input File <==

--------------------------------------------------------------------------
set {
	reference rhf
	basis 6-31G*
}

set_num_threads( 1 )
memory 2 gb

molecule MOL {
0 1

H	 -3.398440	 -0.949970	 -0.373796
O	 -3.517110	 -0.026191	 -0.205115
C	 -2.306886	 0.532354	 0.237577
C	 -1.177863	 -0.397191	 -0.171080
H	 -2.156308	 1.517575	 -0.201710
H	 -2.315015	 0.655684	 1.319734
C	 0.198102	 0.111031	 0.262842
H	 -1.208843	 -0.518759	 -1.250427
H	 -1.368741	 -1.376554	 0.258909
C	 1.331804	 -0.827780	 -0.158768
H	 0.361943	 1.100838	 -0.156218
H	 0.217265	 0.229072	 1.345532
C	 2.723619	 -0.410569	 0.329459
H	 1.342964	 -0.912588	 -1.244120
H	 1.116806	 -1.824343	 0.220779
C	 3.243875	 0.895854	 -0.272975
H	 3.424222	 -1.207124	 0.091250
H	 2.714788	 -0.329854	 1.414619
H	 3.251977	 0.848779	 -1.358681
H	 2.637085	 1.747371	 0.016682
H	 4.259473	 1.094070	 0.055697

	symmetry c1
}
set optking {
	frozen_dihedral = ("
		2 3 4 8,
		8 4 7 10,
		4 7 10 14,
		16 13 10 14
	")
}

ee = energy('scf')
oeprop('DIPOLE', 'QUADRUPOLE', 'MULLIKEN_CHARGES')
f=open( 'psi4out.xyz', 'w' )
f.write( "21  " )
f.write( str(ee) + "\n" )
f.write( MOL.save_string_xyz() )
f.close()
--------------------------------------------------------------------------

    Molecular point group: c1

    Geometry (in Angstrom), charge = 0, multiplicity = 1:

       Center              X                  Y                   Z               Mass
    ------------   -----------------  -----------------  -----------------  -----------------
           H         -3.406711858423    -0.935281541333    -0.369713856274     1.007825032070
           O         -3.525381858423    -0.011502541333    -0.201032856274    15.994914619560
           C         -2.315157858423     0.547042458667     0.241659143726    12.000000000000
           C         -1.186134858423    -0.382502541333    -0.166997856274    12.000000000000
           H         -2.164579858423     1.532263458667    -0.197627856274     1.007825032070
           H         -2.323286858423     0.670372458667     1.323816143726     1.007825032070
           C          0.189830141577     0.125719458667     0.266924143726    12.000000000000
           H         -1.217114858423    -0.504070541333    -1.246344856274     1.007825032070
           H         -1.377012858423    -1.361865541333     0.262991143726     1.007825032070
           C          1.323532141577    -0.813091541333    -0.154685856274    12.000000000000
           H          0.353671141577     1.115526458667    -0.152135856274     1.007825032070
           H          0.208993141577     0.243760458667     1.349614143726     1.007825032070
           C          2.715347141577    -0.395880541333     0.333541143726    12.000000000000
           H          1.334692141577    -0.897899541333    -1.240037856274     1.007825032070
           H          1.108534141577    -1.809654541333     0.224861143726     1.007825032070
           C          3.235603141577     0.910542458667    -0.268892856274    12.000000000000
           H          3.415950141577    -1.192435541333     0.095332143726     1.007825032070
           H          2.706516141577    -0.315165541333     1.418701143726     1.007825032070
           H          3.243705141577     0.863467458667    -1.354598856274     1.007825032070
           H          2.628813141577     1.762059458667     0.020764143726     1.007825032070
           H          4.251201141577     1.108758458667     0.059779143726     1.007825032070

  Charge       = 0
  Multiplicity = 1
  Basis Set: 6-31G*
  Basis Set:

    Orbital Energies (a.u.)
    -----------------------

    Doubly Occupied:

       1A    -20.548333     2A    -11.267232     3A    -11.222547
       4A    -11.221939     5A    -11.219453     6A    -11.218859
       7A    -11.211370     8A     -1.358157     9A     -1.092071
      10A     -1.037490    11A     -0.956776    12A     -0.880811
      13A     -0.827461    14A     -0.783817    15A     -0.673277
      16A     -0.658575    17A     -0.625756    18A     -0.619050
      19A     -0.595131    20A     -0.576945    21A     -0.544230
      22A     -0.533889    23A     -0.507802    24A     -0.495717
      25A     -0.489035    26A     -0.466530    27A     -0.461460
      28A     -0.443664    29A     -0.428691

  @DF-RHF Final Energy:  -310.20900798584057

   => Energetics <=

    Nuclear Repulsion Energy =            313.3729225081752929
    One-Electron Energy =               -1041.2317292572631686
    Two-Electron Energy =                 417.6497987632471904
    DFT Exchange-Correlation Energy =       0.0000000000000000
    Empirical Dispersion Energy =           0.0000000000000000
    PCM Polarization Energy =               0.0000000000000000
    EFP Energy =                            0.0000000000000000
    Total Energy =                       -310.2090079858406853

  Mulliken Charges: (a.u.)
   Center  Symbol    Alpha    Beta     Spin     Total
       1     H     0.27900  0.27900  0.00000  0.44201
       2     O     4.37737  4.37737  0.00000 -0.75475
       3     C     2.97037  2.97037  0.00000  0.05926
       4     C     3.18744  3.18744  0.00000 -0.37488
       5     H     0.42186  0.42186  0.00000  0.15628
       6     H     0.42894  0.42894  0.00000  0.14211
       7     C     3.16028  3.16028  0.00000 -0.32056
       8     H     0.41529  0.41529  0.00000  0.16941
       9     H     0.42452  0.42452  0.00000  0.15097
      10     C     3.15231  3.15231  0.00000 -0.30463
      11     H     0.41844  0.41844  0.00000  0.16312
      12     H     0.42148  0.42148  0.00000  0.15704
      13     C     3.15280  3.15280  0.00000 -0.30559
      14     H     0.42308  0.42308  0.00000  0.15383
      15     H     0.42201  0.42201  0.00000  0.15598
      16     C     3.24157  3.24157  0.00000 -0.48313
      17     H     0.42016  0.42016  0.00000  0.15968
      18     H     0.42287  0.42287  0.00000  0.15427
      19     H     0.42175  0.42175  0.00000  0.15650
      20     H     0.42011  0.42011  0.00000  0.15977
      21     H     0.41834  0.41834  0.00000  0.16331

   Total alpha = 29.00000, Total beta = 29.00000, Total charge =  0.00000
