  ==> Input File <==

--------------------------------------------------------------------------
set {
	reference rhf
	basis 6-31G*
}

set_num_threads( 4 )
memory 2 gb

molecule MOL {
0 1

H	 -3.489934	 -0.094634	 -2.425580
C	 -2.534570	 -0.010230	 -1.938815
C	 -2.152420	 1.195670	 -1.370559
C	 -1.689524	 -1.107300	 -1.881674
H	 -2.808738	 2.045721	 -1.415576
C	 -0.923861	 1.303424	 -0.744849
H	 -1.987461	 -2.041273	 -2.322736
C	 -0.459249	 -1.001764	 -1.255847
H	 -0.611620	 2.228635	 -0.299695
C	 -0.073317	 0.205445	 -0.685353
H	 0.197849	 -1.848154	 -1.209289
C	 1.239129	 0.373821	 0.000060
O	 1.970282	 -0.730723	 0.000018
O	 1.603228	 1.391946	 0.499774
C	 3.377318	 -0.566646	 -0.000065
H	 3.695437	 -0.028981	 -0.881264
H	 3.789299	 -1.563704	 0.000236
H	 3.695516	 -0.028316	 0.880770

	symmetry c1
}
set optking {
	frozen_dihedral = ("
		10 12 13 15
	")
}

ee = optimize('scf')
oeprop('DIPOLE', 'QUADRUPOLE', 'MULLIKEN_CHARGES')
f=open( 'psi4out.xyz', 'w' )
f.write( "18  " )
f.write( str(ee) + "\n" )
f.write( MOL.save_string_xyz() )
f.close()
--------------------------------------------------------------------------

    Molecular point group: c1
  Charge       = 0
  Multiplicity = 1
  Basis Set: 6-31G*
  Basis Set:
  @DF-RHF Final Energy:  -457.34567223523931
    Total Energy =                       -457.3456722352389079
    Molecular point group: c1
  Basis Set: 6-31G*
  Basis Set:
  Basis Set: 6-31G*
  Basis Set:
  @DF-RHF Final Energy:  -457.34236409927496
    Total Energy =                       -457.3423640992750734
  Basis Set: 6-31G*
  Basis Set:
  Basis Set: 6-31G*
  Basis Set:
  @DF-RHF Final Energy:  -457.34602433225723
    Total Energy =                       -457.3460243322571159
  Basis Set: 6-31G*
  Basis Set:
  Basis Set: 6-31G*
  Basis Set:
  @DF-RHF Final Energy:  -457.34607179339491
    Total Energy =                       -457.3460717933951400
  Basis Set: 6-31G*
  Basis Set:
  Basis Set: 6-31G*
  Basis Set:
  @DF-RHF Final Energy:  -457.34607284389955
    Total Energy =                       -457.3460728438994920
  Basis Set: 6-31G*
  Basis Set:
  Charge       = 0
  Multiplicity = 1
  Basis Set: 6-31G*
  Basis Set:

    Orbital Energies (a.u.)
    -----------------------

    Doubly Occupied:

       1A    -20.602650     2A    -20.546343     3A    -11.378322
       4A    -11.284419     5A    -11.246099     6A    -11.246057
       7A    -11.244760     8A    -11.242397     9A    -11.238035
      10A    -11.237310    11A     -1.469597    12A     -1.364104
      13A     -1.165756    14A     -1.047397    15A     -1.025419
      16A     -0.977207    17A     -0.861923    18A     -0.835018
      19A     -0.777438    20A     -0.739259    21A     -0.683327
      22A     -0.675319    23A     -0.670696    24A     -0.632063
      25A     -0.624565    26A     -0.598865    27A     -0.589581
      28A     -0.559012    29A     -0.529043    30A     -0.516824
      31A     -0.502926    32A     -0.499242    33A     -0.458542
      34A     -0.443537    35A     -0.345494    36A     -0.341585

  @DF-RHF Final Energy:  -457.34607300765072

   => Energetics <=

    Nuclear Repulsion Energy =            493.2433508749866178
    One-Electron Energy =               -1600.7785833691532389
    Two-Electron Energy =                 650.1891594865160187
    DFT Exchange-Correlation Energy =       0.0000000000000000
    Empirical Dispersion Energy =           0.0000000000000000
    PCM Polarization Energy =               0.0000000000000000
    EFP Energy =                            0.0000000000000000
    Total Energy =                       -457.3460730076506024
    Molecular point group: c1
  Basis Set: 6-31G*
  Basis Set:

  -Total Gradient:
     Atom            X                  Y                   Z
    ------   -----------------  -----------------  -----------------
       1       -0.000000288448     0.000000758729     0.000001030549
       2       -0.000003040758     0.000027114731     0.000006257325
       3       -0.000018101802    -0.000011609739    -0.000015192294
       4        0.000022270111    -0.000008980179     0.000007066729
       5       -0.000001775525     0.000000471146     0.000002251029
       6        0.000018598672    -0.000014877075     0.000005283900
       7        0.000000021388     0.000002049179    -0.000000548204
       8       -0.000011095782    -0.000019958482    -0.000010383272
       9        0.000000750883     0.000004970945    -0.000001834299
      10        0.002563935444     0.001611080515    -0.005395618694
      11       -0.000000704160     0.000004078141     0.000001070940
      12       -0.003679811292    -0.002390270187     0.004609741577
      13        0.001160237407     0.000912941652     0.007486225511
      14       -0.000032080159     0.000033006285    -0.000006560162
      15       -0.000022155357    -0.000142346035    -0.006710792437
      16       -0.000005033292    -0.000005209723     0.000022584233
      17        0.000002417603    -0.000011374492    -0.000001665600
      18        0.000005855058     0.000008154584     0.000001083167

  **** Optimization is complete! (in 6 steps) ****
    Final optimized geometry and variables:
    Molecular point group: c1

    Geometry (in Angstrom), charge = 0, multiplicity = 1:

    H           -3.640997018686    -0.201469116401    -1.741164528107
    C           -2.689436891001    -0.116997800097    -1.247101759324
    C           -2.310421572710     1.090394957902    -0.678887867516
    C           -1.846502533787    -1.214805038806    -1.180546947926
    H           -2.965726696546     1.940852643709    -0.731076726313
    C           -1.087048472815     1.198508436552    -0.044138527892
    H           -2.142333110233    -2.149647378399    -1.621119301057
    C           -0.620526948328    -1.108619366242    -0.545823206532
    H           -0.776990583290     2.124921017435     0.400011906751
    C           -0.236410198990     0.100211469851     0.022145895872
    H            0.035473836482    -1.955240987975    -0.491550387089
    C            1.081248601535     0.273144307845     0.696444095344
    O            1.812850221259    -0.836981302432     0.718461030519
    O            1.477679831445     1.314169849989     1.115232927393
    C            3.220434113452    -0.674228872632     0.708556761414
    H            3.519435955724    -0.064761347135    -0.133261700074
    H            3.631689428057    -1.666985523263     0.613147739965
    H            3.562100480721    -0.214444926702     1.623739411973

  Mulliken Charges: (a.u.)
   Center  Symbol    Alpha    Beta     Spin     Total
       1     H     0.39522  0.39522  0.00000  0.20957
       2     C     3.08982  3.08982  0.00000 -0.17964
       3     C     3.10708  3.10708  0.00000 -0.21417
       4     C     3.10702  3.10702  0.00000 -0.21404
       5     H     0.39521  0.39521  0.00000  0.20958
       6     C     3.08619  3.08619  0.00000 -0.17238
       7     H     0.39614  0.39614  0.00000  0.20771
       8     C     3.08747  3.08747  0.00000 -0.17494
       9     H     0.37600  0.37600  0.00000  0.24800
      10     C     3.07814  3.07814  0.00000 -0.15627
      11     H     0.38086  0.38086  0.00000  0.23828
      12     C     2.58061  2.58061  0.00000  0.83879
      13     O     4.31737  4.31737  0.00000 -0.63475
      14     O     4.28595  4.28595  0.00000 -0.57189
      15     C     3.09291  3.09291  0.00000 -0.18583
      16     H     0.41210  0.41210  0.00000  0.17580
      17     H     0.40768  0.40768  0.00000  0.18464
      18     H     0.40423  0.40423  0.00000  0.19154

   Total alpha = 36.00000, Total beta = 36.00000, Total charge =  0.00000
