  ==> Input File <==

--------------------------------------------------------------------------
set {
	reference rhf
	basis cc-pvtz
}

set_num_threads( 4 )
memory 2 gb

molecule MOL {
0 1

H	 3.083659	 -1.378387	 0.000000
O	 2.179005	 -1.633391	 0.000000
C	 1.366950	 -0.558201	 0.000000
C	 0.041581	 -0.631158	 0.400944
C	 1.895348	 0.646119	 -0.417648
H	 -0.368412	 -1.570134	 0.725997
C	 -0.751256	 0.498469	 0.383422
H	 2.918591	 0.705721	 -0.727913
C	 1.093731	 1.773313	 -0.432087
H	 -1.775234	 0.430015	 0.695842
C	 -0.230336	 1.707048	 -0.032989
C	 1.650764	 3.076645	 -0.879770
H	 -0.844420	 2.587146	 -0.047692
O	 2.764701	 3.245578	 -1.240360
H	 0.941163	 3.909422	 -0.856351

	symmetry c1
}
set optking {
	frozen_dihedral = ("
		4 3 2 1
	")
}

ee = optimize('scf')
oeprop('DIPOLE', 'QUADRUPOLE', 'MULLIKEN_CHARGES')
f=open( 'psi4out.xyz', 'w' )
f.write( "15  " )
f.write( str(ee) + "\n" )
f.write( MOL.save_string_xyz() )
f.close()
--------------------------------------------------------------------------

    Molecular point group: c1
  Charge       = 0
  Multiplicity = 1
  Basis Set: CC-PVTZ
  Basis Set:
  @DF-RHF Final Energy:  -418.43768086757564
    Total Energy =                       -418.4376808675757502
    Molecular point group: c1
  Basis Set: CC-PVTZ
  Basis Set:
  Basis Set: CC-PVTZ
  Basis Set:
  @DF-RHF Final Energy:  -418.43951206303115
    Total Energy =                       -418.4395120630310885
  Basis Set: CC-PVTZ
  Basis Set:
  Basis Set: CC-PVTZ
  Basis Set:
  @DF-RHF Final Energy:  -418.43955197394632
    Total Energy =                       -418.4395519739463225
  Basis Set: CC-PVTZ
  Basis Set:
  Basis Set: CC-PVTZ
  Basis Set:
  @DF-RHF Final Energy:  -418.43921479469952
    Total Energy =                       -418.4392147946995237
  Basis Set: CC-PVTZ
  Basis Set:
  Basis Set: CC-PVTZ
  Basis Set:
  @DF-RHF Final Energy:  -418.43969183474695
    Total Energy =                       -418.4396918347476912
  Basis Set: CC-PVTZ
  Basis Set:
  Charge       = 0
  Multiplicity = 1
  Basis Set: CC-PVTZ
  Basis Set:

    Orbital Energies (a.u.)
    -----------------------

    Doubly Occupied:

       1A    -20.593874     2A    -20.556630     3A    -11.329998
       4A    -11.310726     5A    -11.252049     6A    -11.249225
       7A    -11.245031     8A    -11.243201     9A    -11.241733
      10A     -1.425219    11A     -1.412329    12A     -1.174644
      13A     -1.053233    14A     -1.029672    15A     -0.903818
      16A     -0.857111    17A     -0.799827    18A     -0.758580
      19A     -0.704106    20A     -0.672492    21A     -0.665726
      22A     -0.633935    23A     -0.617719    24A     -0.611406
      25A     -0.574197    26A     -0.558776    27A     -0.539147
      28A     -0.520426    29A     -0.492574    30A     -0.429169
      31A     -0.358093    32A     -0.333203

  @DF-RHF Final Energy:  -418.43969497372512

   => Energetics <=

    Nuclear Repulsion Energy =            404.1930521235183846
    One-Electron Energy =               -1370.9697604293874065
    Two-Electron Energy =                 548.3370133321438971
    DFT Exchange-Correlation Energy =       0.0000000000000000
    Empirical Dispersion Energy =           0.0000000000000000
    PCM Polarization Energy =               0.0000000000000000
    EFP Energy =                            0.0000000000000000
    Total Energy =                       -418.4396949737251816
    Molecular point group: c1
  Basis Set: CC-PVTZ
  Basis Set:

  -Total Gradient:
     Atom            X                  Y                   Z
    ------   -----------------  -----------------  -----------------
       1        0.000009984675     0.000037698201     0.002066983176
       2        0.000178640629     0.000116841736    -0.001935714532
       3       -0.000780894265    -0.000465844283    -0.001456095537
       4        0.000633428481     0.000147398823     0.001358830181
       5       -0.000067788278     0.000169280860    -0.000045350188
       6        0.000026544426     0.000007789813    -0.000006398645
       7       -0.000029441587     0.000393068576    -0.000092799867
       8        0.000014412078     0.000011342531     0.000000685658
       9        0.000326288835    -0.000148133399     0.000001969334
      10        0.000000713866    -0.000024842711     0.000006235907
      11       -0.000302442499    -0.000238454124     0.000141264389
      12       -0.000075747949    -0.000022085652    -0.000094565597
      13        0.000027745394     0.000019655699    -0.000017299656
      14        0.000034840195    -0.000007143481     0.000035053633
      15        0.000003715998     0.000003427406     0.000037201744

  **** Optimization is complete! (in 6 steps) ****
    Final optimized geometry and variables:
    Molecular point group: c1

    Geometry (in Angstrom), charge = 0, multiplicity = 1:

    H            1.865184026169    -2.375735089671     0.288084397763
    O            0.944720745022    -2.568679515436     0.282051096093
    C            0.211992112350    -1.436165936309     0.250643386697
    C           -1.113485489231    -1.521380702491     0.660305711383
    C            0.727638754274    -0.230733707753    -0.165871828613
    H           -1.492642446993    -2.469457896312     0.987517396122
    C           -1.914087395003    -0.403294816714     0.638154770624
    H            1.747937952607    -0.144566445217    -0.487436089137
    C           -0.084254941147     0.895696608507    -0.176105349559
    H           -2.936768876529    -0.478176175844     0.953359738323
    C           -1.402868522765     0.815359418322     0.220492130619
    C            0.465887738777     2.200939209522    -0.620729919709
    H           -2.025639122344     1.689521235392     0.206995891149
    O            1.582660110050     2.375498463031    -0.972157834029
    H           -0.248993047973     3.029150944331    -0.603514521308

  Mulliken Charges: (a.u.)
   Center  Symbol    Alpha    Beta     Spin     Total
       1     H     0.38393  0.38393  0.00000  0.23214
       2     O     4.17507  4.17507  0.00000 -0.35013
       3     C     2.84471  2.84471  0.00000  0.31057
       4     C     3.10164  3.10164  0.00000 -0.20328
       5     C     3.14059  3.14059  0.00000 -0.28118
       6     H     0.41491  0.41491  0.00000  0.17018
       7     C     3.05709  3.05709  0.00000 -0.11417
       8     H     0.41573  0.41573  0.00000  0.16854
       9     C     2.98019  2.98019  0.00000  0.03963
      10     H     0.41930  0.41930  0.00000  0.16141
      11     C     3.10728  3.10728  0.00000 -0.21455
      12     C     2.90924  2.90924  0.00000  0.18152
      13     H     0.42304  0.42304  0.00000  0.15392
      14     O     4.17219  4.17219  0.00000 -0.34438
      15     H     0.45510  0.45510  0.00000  0.08980

   Total alpha = 32.00000, Total beta = 32.00000, Total charge =  0.00000
