                              Psi4 1.0.54 Driver

  ==> Input File <==

--------------------------------------------------------------------------
set {
	reference rhf
	basis cc-pvtz
}

set_num_threads( 4 )
memory 2 gb

molecule MOL {
0 1

H	 1.491759	 -1.131559	 1.232816
C	 0.602581	 -1.246253	 0.630389
O	 0.000000	 0.000000	 0.518769
H	 0.887584	 -1.639769	 -0.343148
H	 -0.056278	 -1.965805	 1.112059
C	 -1.165153	 0.000000	 -0.236961
H	 -1.229451	 0.882440	 -0.870223
H	 -2.002557	 0.000000	 0.445289
H	 -1.229451	 -0.882440	 -0.870223

	symmetry c1
}
set optking {
	frozen_dihedral = ("
		2 3 6 7
	")
}

ee,wfn = optimize('scf', return_wfn=True)
oeprop( wfn, 'DIPOLE', 'QUADRUPOLE', 'MULLIKEN_CHARGES')
f=open( 'psi4out.xyz', 'w' )
f.write( "9  " )
f.write( str(ee) + "\n" )
f.write( MOL.save_string_xyz() )
f.close()
--------------------------------------------------------------------------

    Molecular point group: c1
  Charge       = 0
  Multiplicity = 1
  Basis Set: CC-PVTZ
  Basis Set:
  @DF-RHF Final Energy:  -154.12357620727443
    Total Energy =                       -154.1235762072744535
    Molecular point group: c1
  Basis Set: CC-PVTZ
  Basis Set:
  Basis Set: CC-PVTZ
  Basis Set:
  @DF-RHF Final Energy:  -154.12426467798457
    Total Energy =                       -154.1242646779845984
  Basis Set: CC-PVTZ
  Basis Set:
  Basis Set: CC-PVTZ
  Basis Set:
  @DF-RHF Final Energy:  -154.12440072243976
    Total Energy =                       -154.1244007224398160
  Basis Set: CC-PVTZ
  Basis Set:
  Charge       = 0
  Multiplicity = 1
  Basis Set: CC-PVTZ
  Basis Set:

    Orbital Energies (a.u.)
    -----------------------

    Doubly Occupied:

       1A    -20.547561     2A    -11.263518     3A    -11.262770
       4A     -1.378931     5A     -0.975811     6A     -0.872698
       7A     -0.660737     8A     -0.654434     9A     -0.645252
      10A     -0.558276    11A     -0.527211    12A     -0.475243
      13A     -0.416640

  @DF-RHF Final Energy:  -154.12440123172979

   => Energetics <=

    Nuclear Repulsion Energy =             84.6465925943981432
    One-Electron Energy =                -377.0638229840790245
    Two-Electron Energy =                 138.2928291579510756
    DFT Exchange-Correlation Energy =       0.0000000000000000
    Empirical Dispersion Energy =           0.0000000000000000
    PCM Polarization Energy =               0.0000000000000000
    EFP Energy =                            0.0000000000000000
    Total Energy =                       -154.1244012317297916
    Molecular point group: c1
  Basis Set: CC-PVTZ
  Basis Set:

  -Total Gradient:
     Atom            X                  Y                   Z
    ------   -----------------  -----------------  -----------------
       1        0.000007817492    -0.000016469270     0.000014238596
       2        0.001241539096     0.000386141830    -0.001717354512
       3       -0.001395178187    -0.000906054290     0.001959164682
       4       -0.000007777863    -0.000009625402    -0.000000061578
       5       -0.000020258181     0.000059365401    -0.000014574378
       6       -0.001108619256     0.001680113633     0.001632708575
       7        0.001281395784    -0.001209249092    -0.001879726743
       8       -0.000011648727     0.000007023832    -0.000002567957
       9        0.000012729843     0.000008753359     0.000008173316

  **** Optimization is complete! (in 4 steps) ****
    Final optimized geometry and variables:
    Molecular point group: c1

    Geometry (in Angstrom), charge = 0, multiplicity = 1:

    H            1.686903394379    -0.660260066101     0.972257150604
    C            0.817513636755    -0.804321715735     0.346983495926
    O            0.175190954469     0.421942147889     0.227583878638
    H            1.141426668629    -1.179973621593    -0.620717348075
    H            0.177680284375    -1.552525805202     0.810357044205
    C           -0.978869234039     0.419654777364    -0.553201437368
    H           -0.998521360115     1.323974298904    -1.147212801008
    H           -1.869105718326     0.376044195295     0.066700411920
    H           -0.997557395293    -0.423623748702    -1.237904064920

  Mulliken Charges: (a.u.)
   Center  Symbol    Alpha    Beta     Spin     Total
       1     H     0.44956  0.44956  0.00000  0.10087
       2     C     3.02097  3.02097  0.00000 -0.04193
       3     O     4.17167  4.17167  0.00000 -0.34334
       4     H     0.47248  0.47248  0.00000  0.05504
       5     H     0.47348  0.47348  0.00000  0.05303
       6     C     3.01727  3.01727  0.00000 -0.03455
       7     H     0.45457  0.45457  0.00000  0.09086
       8     H     0.46428  0.46428  0.00000  0.07143
       9     H     0.47571  0.47571  0.00000  0.04858

   Total alpha = 13.00000, Total beta = 13.00000, Total charge =  0.00000

*** Psi4 exiting successfully. Buy a developer a beer!
