  ==> Input File <==

--------------------------------------------------------------------------
set {
	reference rhf
	basis 6-31G*
}

set_num_threads( 4 )
memory 2 gb

molecule MOL {
0 1

O	 -1.335778	 -0.519996	 2.241942
C	 -1.334963	 0.285317	 1.368019
C	 -2.123073	 1.567183	 1.375024
O	 -0.632575	 0.154573	 0.251549
H	 -2.798215	 1.586647	 0.527231
H	 -2.682578	 1.643759	 2.295310
H	 -1.450077	 2.411244	 1.278098
C	 0.160891	 -1.019931	 0.106212
C	 1.589627	 -0.672828	 0.480843
H	 0.089836	 -1.367806	 -0.916050
H	 -0.238459	 -1.792301	 0.749618
C	 2.246377	 0.346236	 -0.452210
H	 2.163194	 -1.597435	 0.473358
H	 1.604769	 -0.303424	 1.502885
C	 3.691736	 0.652107	 -0.061850
H	 2.219579	 -0.032311	 -1.472055
H	 1.666466	 1.263317	 -0.447249
H	 4.134505	 1.377213	 -0.737283
H	 4.305508	 -0.243868	 -0.089969
H	 3.748266	 1.059562	 0.943567

	symmetry c1
}
set optking {
	frozen_dihedral = ("
		2 4 8 10
	")
}

ee = optimize('scf')
oeprop('DIPOLE', 'QUADRUPOLE', 'MULLIKEN_CHARGES')
f=open( 'psi4out.xyz', 'w' )
f.write( "20  " )
f.write( str(ee) + "\n" )
f.write( MOL.save_string_xyz() )
f.close()
--------------------------------------------------------------------------

    Molecular point group: c1
  Charge       = 0
  Multiplicity = 1
  Basis Set: 6-31G*
  Basis Set:
  @DF-RHF Final Energy:  -383.94306743384260
    Total Energy =                       -383.9430674338423159
    Molecular point group: c1
  Basis Set: 6-31G*
  Basis Set:
  Basis Set: 6-31G*
  Basis Set:
  @DF-RHF Final Energy:  -383.94376145766716
    Total Energy =                       -383.9437614576665965
  Basis Set: 6-31G*
  Basis Set:
  Basis Set: 6-31G*
  Basis Set:
  @DF-RHF Final Energy:  -383.94425048352076
    Total Energy =                       -383.9442504835208183
  Basis Set: 6-31G*
  Basis Set:
  Basis Set: 6-31G*
  Basis Set:
  @DF-RHF Final Energy:  -383.94432534816218
    Total Energy =                       -383.9443253481622378
  Basis Set: 6-31G*
  Basis Set:
  Charge       = 0
  Multiplicity = 1
  Basis Set: 6-31G*
  Basis Set:

    Orbital Energies (a.u.)
    -----------------------

    Doubly Occupied:

       1A    -20.601138     2A    -20.544228     3A    -11.376072
       4A    -11.281279     5A    -11.233221     6A    -11.223339
       7A    -11.219991     8A    -11.212637     9A     -1.466283
      10A     -1.362752    11A     -1.083918    12A     -1.028445
      13A     -0.979925    14A     -0.885801    15A     -0.817874
      16A     -0.756969    17A     -0.697144    18A     -0.684255
      19A     -0.660169    20A     -0.631515    21A     -0.596210
      22A     -0.594701    23A     -0.570009    24A     -0.565770
      25A     -0.538133    26A     -0.525169    27A     -0.517012
      28A     -0.490234    29A     -0.474651    30A     -0.465267
      31A     -0.444069    32A     -0.438644

  @DF-RHF Final Energy:  -383.94432514754550

   => Energetics <=

    Nuclear Repulsion Energy =            388.6135741309641958
    One-Electron Energy =               -1293.1821507991185172
    Two-Electron Energy =                 520.6242515206088228
    DFT Exchange-Correlation Energy =       0.0000000000000000
    Empirical Dispersion Energy =           0.0000000000000000
    PCM Polarization Energy =               0.0000000000000000
    EFP Energy =                            0.0000000000000000
    Total Energy =                       -383.9443251475454417
    Molecular point group: c1
  Basis Set: 6-31G*
  Basis Set:

  -Total Gradient:
     Atom            X                  Y                   Z
    ------   -----------------  -----------------  -----------------
       1        0.000054976850    -0.000024798194    -0.000052667954
       2       -0.000968537016    -0.000649308097    -0.000522850891
       3        0.000005818107    -0.000024225265    -0.000023405351
       4        0.001119157762     0.000759329239     0.000838789882
       5        0.000042184383    -0.000026216695     0.000012782584
       6        0.000014513639     0.000002634985     0.000009451738
       7       -0.000002698428     0.000045908977     0.000007304294
       8        0.000900356762     0.000640365912    -0.000796122639
       9       -0.000051934751     0.000115834714     0.000075099118
      10       -0.001080723411    -0.000808234344     0.000359492090
      11       -0.000048516056    -0.000033612142     0.000063226537
      12        0.000023269250     0.000072453663     0.000034768608
      13        0.000011813228     0.000016818850     0.000014045521
      14       -0.000032660762     0.000028630218    -0.000011130785
      15        0.000016018281    -0.000057697573    -0.000048643021
      16       -0.000040294948    -0.000013988585     0.000007509138
      17        0.000035234782    -0.000019109402     0.000054217486
      18        0.000003043459    -0.000014718155    -0.000015309500
      19        0.000025015299    -0.000006410002     0.000009453768
      20       -0.000026036425    -0.000003658102    -0.000016010624

  **** Optimization is complete! (in 5 steps) ****
    Final optimized geometry and variables:
    Molecular point group: c1

    Geometry (in Angstrom), charge = 0, multiplicity = 1:

    O           -1.617982957594    -0.570249051501     1.620772145171
    C           -1.634319061307     0.191924218184     0.709099906261
    C           -2.459200549409     1.449523172403     0.657065637046
    O           -0.921560013150     0.043048095510    -0.400006344081
    H           -3.128264615378     1.412330675825    -0.194737626422
    H           -3.026470443655     1.549078845485     1.570372577850
    H           -1.810295347084     2.307998509237     0.527233415248
    C           -0.100554943427    -1.114922500460    -0.545063331397
    C            1.349161395436    -0.806372035687    -0.209553964529
    H           -0.213429057836    -1.414649923905    -1.578583276721
    H           -0.483631511863    -1.899450864899     0.088021922898
    C            1.985225522005     0.250840230525    -1.113520678267
    H            1.908308110091    -1.737058537787    -0.286376388919
    H            1.407521301530    -0.495279322807     0.830147800898
    C            3.449832000028     0.515389543163    -0.766938014703
    H            1.911579728120    -0.072553870864    -2.149913051157
    H            1.421008230085     1.175143472853    -1.039721048927
    H            3.878092180174     1.266481562318    -1.423145796022
    H            4.046768189754    -0.387215311064    -0.863354358825
    H            3.552797882527     0.870961889638     0.254315969474

  Mulliken Charges: (a.u.)
   Center  Symbol    Alpha    Beta     Spin     Total
       1     O     4.28375  4.28375  0.00000 -0.56750
       2     C     2.61970  2.61970  0.00000  0.76060
       3     C     3.28188  3.28188  0.00000 -0.56377
       4     O     4.30926  4.30926  0.00000 -0.61852
       5     H     0.40029  0.40029  0.00000  0.19942
       6     H     0.39709  0.39709  0.00000  0.20582
       7     H     0.40090  0.40090  0.00000  0.19820
       8     C     3.01229  3.01229  0.00000 -0.02457
       9     C     3.16583  3.16583  0.00000 -0.33165
      10     H     0.41214  0.41214  0.00000  0.17573
      11     H     0.39531  0.39531  0.00000  0.20938
      12     C     3.15407  3.15407  0.00000 -0.30813
      13     H     0.41959  0.41959  0.00000  0.16081
      14     H     0.41081  0.41081  0.00000  0.17838
      15     C     3.24011  3.24011  0.00000 -0.48022
      16     H     0.42326  0.42326  0.00000  0.15349
      17     H     0.41396  0.41396  0.00000  0.17207
      18     H     0.41792  0.41792  0.00000  0.16416
      19     H     0.42155  0.42155  0.00000  0.15690
      20     H     0.42029  0.42029  0.00000  0.15942

   Total alpha = 32.00000, Total beta = 32.00000, Total charge =  0.00000
