  ==> Input File <==

--------------------------------------------------------------------------
set {
	reference rhf
	basis 6-31G*
}

set_num_threads( 4 )
memory 2 gb

molecule MOL {
0 1

H	 -2.478146	 0.284580	 0.805128
O	 -2.315789	 -0.143634	 -0.024262
C	 -0.945151	 -0.064130	 -0.333158
H	 -0.813375	 -0.223047	 -1.403232
C	 -0.232801	 -1.184051	 0.407206
C	 -0.355424	 1.302939	 0.054523
H	 -0.318824	 -0.992899	 1.473524
H	 -0.742411	 -2.122033	 0.217954
C	 1.248522	 -1.270719	 -0.013048
H	 -0.546144	 2.018388	 -0.742941
H	 -0.890929	 1.656788	 0.930149
C	 1.156425	 1.235120	 0.355905
H	 1.825384	 -1.683246	 0.809111
H	 1.357782	 -1.965923	 -0.840362
C	 1.828244	 0.099899	 -0.419275
H	 1.626109	 2.185622	 0.123525
H	 1.309438	 1.071213	 1.419539
H	 2.901447	 0.112642	 -0.255830
H	 1.681817	 0.263413	 -1.484607

	symmetry c1
}
set optking {
	frozen_dihedral = ("
		1 2 3 4
	")
}

ee = optimize('scf')
oeprop('DIPOLE', 'QUADRUPOLE', 'MULLIKEN_CHARGES')
f=open( 'psi4out.xyz', 'w' )
f.write( "19  " )
f.write( str(ee) + "\n" )
f.write( MOL.save_string_xyz() )
f.close()
--------------------------------------------------------------------------

    Molecular point group: c1
  Charge       = 0
  Multiplicity = 1
  Basis Set: 6-31G*
  Basis Set:
  @DF-RHF Final Energy:  -309.04596591486529
    Total Energy =                       -309.0459659148652918
    Molecular point group: c1
  Basis Set: 6-31G*
  Basis Set:
  Basis Set: 6-31G*
  Basis Set:
  @DF-RHF Final Energy:  -309.04754268018138
    Total Energy =                       -309.0475426801810954
  Basis Set: 6-31G*
  Basis Set:
  Basis Set: 6-31G*
  Basis Set:
  @DF-RHF Final Energy:  -309.04781259790212
    Total Energy =                       -309.0478125979022366
  Basis Set: 6-31G*
  Basis Set:
  Basis Set: 6-31G*
  Basis Set:
  @DF-RHF Final Energy:  -309.04781864041746
    Total Energy =                       -309.0478186404173471
  Basis Set: 6-31G*
  Basis Set:
  Charge       = 0
  Multiplicity = 1
  Basis Set: 6-31G*
  Basis Set:

    Orbital Energies (a.u.)
    -----------------------

    Doubly Occupied:

       1A    -20.549351     2A    -11.269029     3A    -11.220105
       4A    -11.218857     5A    -11.217965     6A    -11.217315
       7A    -11.210759     8A     -1.358905     9A     -1.110432
      10A     -1.004735    11A     -0.988827    12A     -0.845903
      13A     -0.842174    14A     -0.751684    15A     -0.673884
      16A     -0.663102    17A     -0.613962    18A     -0.604190
      19A     -0.579215    20A     -0.559945    21A     -0.530828
      22A     -0.521652    23A     -0.502374    24A     -0.490948
      25A     -0.466290    26A     -0.450484    27A     -0.431256
      28A     -0.407486

  @DF-RHF Final Energy:  -309.04781953206140

   => Energetics <=

    Nuclear Repulsion Energy =            331.1849782359485630
    One-Electron Energy =               -1075.8622831214138387
    Two-Electron Energy =                 435.6294853534037088
    DFT Exchange-Correlation Energy =       0.0000000000000000
    Empirical Dispersion Energy =           0.0000000000000000
    PCM Polarization Energy =               0.0000000000000000
    EFP Energy =                            0.0000000000000000
    Total Energy =                       -309.0478195320615100
    Molecular point group: c1
  Basis Set: 6-31G*
  Basis Set:

  -Total Gradient:
     Atom            X                  Y                   Z
    ------   -----------------  -----------------  -----------------
       1       -0.000156723519     0.001620532605    -0.000863273011
       2        0.000205146860    -0.001703182951     0.001022584677
       3        0.000045155959    -0.001510676884     0.000097661049
       4       -0.000058374379     0.001552459352    -0.000221846686
       5       -0.000053830920     0.000027017458    -0.000027892802
       6        0.000045206282    -0.000011081005     0.000008340794
       7        0.000011110047    -0.000015335425    -0.000010868967
       8        0.000013949038    -0.000014138058     0.000008085270
       9       -0.000014041444    -0.000005855271     0.000059309559
      10        0.000012080991     0.000026766676    -0.000017948125
      11        0.000002974233    -0.000000997314    -0.000012581484
      12       -0.000027386344     0.000023205427    -0.000011249100
      13        0.000019823640    -0.000025786018    -0.000002881940
      14       -0.000016521443     0.000007756429    -0.000003257605
      15       -0.000012634907     0.000027544721    -0.000041132109
      16       -0.000006939154     0.000011623115     0.000017239721
      17       -0.000005784960     0.000000082956     0.000005954615
      18       -0.000015937918    -0.000015196041     0.000002792026
      19        0.000012727945     0.000005260225    -0.000009035880

  **** Optimization is complete! (in 5 steps) ****
    Final optimized geometry and variables:
    Molecular point group: c1

    Geometry (in Angstrom), charge = 0, multiplicity = 1:

    H           -2.551467831704     0.301105043287     0.716564402751
    O           -2.339092168116    -0.110925981403    -0.109201284045
    C           -0.948263845558    -0.067471633587    -0.314904017469
    H           -0.826793263299    -0.209413009092    -1.382793538364
    C           -0.223899531940    -1.192776907188     0.415357857678
    C           -0.356459175508     1.299128826198     0.069282716929
    H           -0.296828987050    -1.014328458977     1.487284140030
    H           -0.732499204952    -2.130829970186     0.223068841204
    C            1.256299364292    -1.273102674568    -0.013823372323
    H           -0.573844431135     2.013741595627    -0.718524012196
    H           -0.866371536317     1.663021262335     0.960242848347
    C            1.160164302221     1.233285950142     0.346098118688
    H            1.844629970495    -1.673236896640     0.806409679252
    H            1.363314150621    -1.974537921273    -0.835893381313
    C            1.821176130993     0.098084604644    -0.438101693242
    H            1.623596116230     2.184565835491     0.104841814665
    H            1.333059252365     1.070746572766     1.407159632904
    H            2.897179760680     0.116329408620    -0.295424823254
    H            1.653311917987     0.256585794671    -1.500792761410

  Mulliken Charges: (a.u.)
   Center  Symbol    Alpha    Beta     Spin     Total
       1     H     0.28424  0.28424  0.00000  0.43152
       2     O     4.37964  4.37964  0.00000 -0.75927
       3     C     2.90456  2.90456  0.00000  0.19088
       4     H     0.41699  0.41699  0.00000  0.16602
       5     C     3.17081  3.17081  0.00000 -0.34162
       6     C     3.17111  3.17111  0.00000 -0.34223
       7     H     0.42724  0.42724  0.00000  0.14552
       8     H     0.40883  0.40883  0.00000  0.18234
       9     C     3.16045  3.16045  0.00000 -0.32091
      10     H     0.41243  0.41243  0.00000  0.17514
      11     H     0.42830  0.42830  0.00000  0.14341
      12     C     3.16344  3.16344  0.00000 -0.32689
      13     H     0.41824  0.41824  0.00000  0.16352
      14     H     0.41713  0.41713  0.00000  0.16575
      15     C     3.16469  3.16469  0.00000 -0.32938
      16     H     0.41547  0.41547  0.00000  0.16907
      17     H     0.42018  0.42018  0.00000  0.15963
      18     H     0.41607  0.41607  0.00000  0.16785
      19     H     0.42018  0.42018  0.00000  0.15965

   Total alpha = 28.00000, Total beta = 28.00000, Total charge =  0.00000
