  ==> Input File <==

--------------------------------------------------------------------------
set {
	reference rhf
	basis 6-31G*
}

set_num_threads( 4 )
memory 2 gb

molecule MOL {
0 1

O	 0.717782	 -0.049732	 0.642803
C	 1.705091	 0.115954	 0.001797
C	 1.980094	 1.295527	 -0.898674
O	 2.721346	 -0.737485	 -0.000216
C	 0.842103	 2.311164	 -0.931900
H	 2.906198	 1.752752	 -0.561051
H	 2.188280	 0.904844	 -1.891017
C	 1.147551	 3.495227	 -1.850462
H	 0.649890	 2.665886	 0.075778
H	 -0.068477	 1.817481	 -1.256600
C	 0.016780	 4.524415	 -1.895052
H	 2.063634	 3.983872	 -1.521806
H	 1.341716	 3.132803	 -2.858842
C	 0.322041	 5.706653	 -2.813955
H	 -0.176684	 4.889355	 -0.888806
H	 -0.898813	 4.037996	 -2.224025
H	 1.214231	 6.235181	 -2.490120
H	 -0.497826	 6.418101	 -2.824466
H	 0.486827	 5.376962	 -3.835943
C	 4.024888	 -0.184556	 -0.001949
H	 4.179030	 0.422472	 -0.882452
H	 4.701782	 -1.024608	 -0.003642
H	 4.181981	 0.421185	 0.878906

	symmetry c1
}
set optking {
	frozen_dihedral = ("
		1 2 4 20
	")
}

ee = optimize('scf')
oeprop('DIPOLE', 'QUADRUPOLE', 'MULLIKEN_CHARGES')
f=open( 'psi4out.xyz', 'w' )
f.write( "23  " )
f.write( str(ee) + "\n" )
f.write( MOL.save_string_xyz() )
f.close()
--------------------------------------------------------------------------

    Molecular point group: c1
  Charge       = 0
  Multiplicity = 1
  Basis Set: 6-31G*
  Basis Set:
  @DF-RHF Final Energy:  -422.95026184295460
    Total Energy =                       -422.9502618429552285
    Molecular point group: c1
  Basis Set: 6-31G*
  Basis Set:
  Basis Set: 6-31G*
  Basis Set:
  @DF-RHF Final Energy:  -422.95048513031048
    Total Energy =                       -422.9504851303100850
  Basis Set: 6-31G*
  Basis Set:
  Basis Set: 6-31G*
  Basis Set:
  @DF-RHF Final Energy:  -422.95619069700410
    Total Energy =                       -422.9561906970039900
  Basis Set: 6-31G*
  Basis Set:
  Basis Set: 6-31G*
  Basis Set:
  @DF-RHF Final Energy:  -422.95747039399930
    Total Energy =                       -422.9574703939995288
  Basis Set: 6-31G*
  Basis Set:
  @DF-RHF Final Energy:  -422.95724167820453
    Total Energy =                       -422.9572416782040136
  Basis Set: 6-31G*
  Basis Set:
  @DF-RHF Final Energy:  -422.95829497398933
    Total Energy =                       -422.9582949739892683
  Basis Set: 6-31G*
  Basis Set:
  Basis Set: 6-31G*
  Basis Set:
  @DF-RHF Final Energy:  -422.95830802952560
    Total Energy =                       -422.9583080295250284
  Basis Set: 6-31G*
  Basis Set:
  Basis Set: 6-31G*
  Basis Set:
  @DF-RHF Final Energy:  -422.95830907435811
    Total Energy =                       -422.9583090743579987
  Basis Set: 6-31G*
  Basis Set:
  Charge       = 0
  Multiplicity = 1
  Basis Set: 6-31G*
  Basis Set:

    Orbital Energies (a.u.)
    -----------------------

    Doubly Occupied:

       1A    -20.595239     2A    -20.546639     3A    -11.374152
       4A    -11.295611     5A    -11.244038     6A    -11.223559
       7A    -11.221679     8A    -11.219196     9A    -11.212052
      10A     -1.460751    11A     -1.366669    12A     -1.096148
      13A     -1.041623    14A     -0.984000    15A     -0.951150
      16A     -0.853734    17A     -0.799013    18A     -0.766070
      19A     -0.698611    20A     -0.685180    21A     -0.673236
      22A     -0.654425    23A     -0.615871    24A     -0.605498
      25A     -0.580269    26A     -0.569445    27A     -0.558544
      28A     -0.539861    29A     -0.512664    30A     -0.505796
      31A     -0.488788    32A     -0.473774    33A     -0.469647
      34A     -0.467735    35A     -0.448651    36A     -0.430761

  @DF-RHF Final Energy:  -422.95830920750211

   => Energetics <=

    Nuclear Repulsion Energy =            454.2693982000442929
    One-Electron Energy =               -1475.9952632283989260
    Two-Electron Energy =                 598.7675558208525217
    DFT Exchange-Correlation Energy =       0.0000000000000000
    Empirical Dispersion Energy =           0.0000000000000000
    PCM Polarization Energy =               0.0000000000000000
    EFP Energy =                            0.0000000000000000
    Total Energy =                       -422.9583092075021113
    Molecular point group: c1
  Basis Set: 6-31G*
  Basis Set:

  -Total Gradient:
     Atom            X                  Y                   Z
    ------   -----------------  -----------------  -----------------
       1        0.001830157262     0.001647206526     0.002912411968
       2       -0.002610119365    -0.002370107352    -0.002417691784
       3       -0.000013816585     0.000025695222    -0.000001623920
       4        0.000691315134     0.000739667143    -0.003751062126
       5        0.000011371940    -0.000008594064    -0.000004060822
       6       -0.000011301287    -0.000003559662    -0.000012042140
       7        0.000000154262    -0.000005632637    -0.000006251431
       8        0.000001062608     0.000001475297    -0.000004881360
       9       -0.000012190835     0.000005675890     0.000005109164
      10        0.000013936825    -0.000005883739    -0.000000917918
      11        0.000001602702     0.000005184041     0.000011317099
      12        0.000001986400    -0.000005794549    -0.000002362023
      13       -0.000003858794    -0.000000616635    -0.000004791816
      14        0.000003262869    -0.000002517698     0.000000899173
      15       -0.000003066541     0.000001396193     0.000002746345
      16        0.000001915087     0.000000407952    -0.000000583914
      17       -0.000000874088     0.000001259799     0.000000619837
      18       -0.000000574951    -0.000002762351     0.000000462870
      19        0.000001509608    -0.000000292489    -0.000000461563
      20        0.000087920972    -0.000016102449     0.003272729100
      21       -0.000007874836    -0.000014786848     0.000014325266
      22       -0.000000553996     0.000002870548    -0.000011055362
      23        0.000018035604     0.000005811862    -0.000002834650

  **** Optimization is complete! (in 9 steps) ****
    Final optimized geometry and variables:
    Molecular point group: c1

    Geometry (in Angstrom), charge = 0, multiplicity = 1:

    O           -0.711545787888    -1.733781864547     1.559464644745
    C            0.251784725890    -1.615090542199     0.883987881024
    C            0.512740721469    -0.416782696426    -0.006469340700
    O            1.172447202393    -2.591958095510     0.860278166200
    C           -0.683633019972     0.526990529810    -0.101566124927
    H            1.379002984949     0.117204594038     0.377385989250
    H            0.797603783692    -0.783652463877    -0.989298221169
    C           -0.402257869592     1.730487685581    -1.002295880883
    H           -0.951163901888     0.862896807986     0.894409318677
    H           -1.541605863995    -0.022327711155    -0.475918999480
    C           -1.591246478376     2.687075611478    -1.108323888565
    H            0.461801662654     2.274919991972    -0.623583300619
    H           -0.131099428355     1.385143157827    -1.998922258127
    C           -1.310064272028     3.890478433686    -2.007178914022
    H           -1.862728936426     3.034022401287    -0.113929641927
    H           -2.454585086711     2.145825311891    -1.488542168822
    H           -0.472442461273     4.472612965853    -1.633221750089
    H           -2.171226695349     4.548923023775    -2.062512923538
    H           -1.068296049155     3.576820679762    -3.018839675243
    C            2.548441520805    -2.289387460074     0.839676944358
    H            2.852438455255    -1.846940685215    -0.101084793359
    H            3.061095964355    -3.229775305787     0.968175734899
    H            2.814362385917    -1.627745194481     1.655709790831

  Mulliken Charges: (a.u.)
   Center  Symbol    Alpha    Beta     Spin     Total
       1     O     4.25926  4.25926  0.00000 -0.51852
       2     C     2.60359  2.60359  0.00000  0.79281
       3     C     3.22928  3.22928  0.00000 -0.45857
       4     O     4.30728  4.30728  0.00000 -0.61456
       5     C     3.14999  3.14999  0.00000 -0.29998
       6     H     0.40513  0.40513  0.00000  0.18974
       7     H     0.40246  0.40246  0.00000  0.19507
       8     C     3.15367  3.15367  0.00000 -0.30735
       9     H     0.40816  0.40816  0.00000  0.18368
      10     H     0.41056  0.41056  0.00000  0.17888
      11     C     3.15189  3.15189  0.00000 -0.30378
      12     H     0.42502  0.42502  0.00000  0.14995
      13     H     0.42421  0.42421  0.00000  0.15158
      14     C     3.23970  3.23970  0.00000 -0.47940
      15     H     0.42064  0.42064  0.00000  0.15872
      16     H     0.42054  0.42054  0.00000  0.15891
      17     H     0.42198  0.42198  0.00000  0.15603
      18     H     0.41780  0.41780  0.00000  0.16441
      19     H     0.42178  0.42178  0.00000  0.15643
      20     C     3.09422  3.09422  0.00000 -0.18844
      21     H     0.41810  0.41810  0.00000  0.16380
      22     H     0.39906  0.39906  0.00000  0.20189
      23     H     0.41566  0.41566  0.00000  0.16869

   Total alpha = 36.00000, Total beta = 36.00000, Total charge =  0.00000
