  ==> Input File <==

--------------------------------------------------------------------------
set {
	reference rhf
	basis 6-31G*
}

set_num_threads( 4 )
memory 2 gb

molecule MOL {
0 1

H	 3.089270	 -1.380733	 0.000000
O	 2.178328	 -1.639175	 0.000000
C	 1.368216	 -0.558384	 0.000000
C	 0.452652	 -0.314626	 1.015691
C	 1.474174	 0.322632	 -1.062081
H	 0.371786	 -1.001515	 1.841330
C	 -0.355591	 0.808855	 0.968751
H	 2.180958	 0.135532	 -1.847272
C	 0.661286	 1.445005	 -1.101431
H	 -1.060365	 0.986898	 1.760567
C	 -0.256434	 1.694677	 -0.088897
C	 0.769954	 2.395628	 -2.239578
H	 -0.883246	 2.567964	 -0.127376
O	 1.521944	 2.271260	 -3.152590
H	 0.091831	 3.252934	 -2.190342

	symmetry c1
}
set optking {
	frozen_dihedral = ("
		4 3 2 1
	")
}

ee = optimize('scf')
oeprop('DIPOLE', 'QUADRUPOLE', 'MULLIKEN_CHARGES')
f=open( 'psi4out.xyz', 'w' )
f.write( "15  " )
f.write( str(ee) + "\n" )
f.write( MOL.save_string_xyz() )
f.close()
--------------------------------------------------------------------------

    Molecular point group: c1
  Charge       = 0
  Multiplicity = 1
  Basis Set: 6-31G*
  Basis Set:
  @DF-RHF Final Energy:  -418.28253062979161
    Total Energy =                       -418.2825306297918360
    Molecular point group: c1
  Basis Set: 6-31G*
  Basis Set:
  Basis Set: 6-31G*
  Basis Set:
  @DF-RHF Final Energy:  -418.28383611964472
    Total Energy =                       -418.2838361196448886
  Basis Set: 6-31G*
  Basis Set:
  Basis Set: 6-31G*
  Basis Set:
  @DF-RHF Final Energy:  -418.28218909223273
    Total Energy =                       -418.2821890922323291
  Basis Set: 6-31G*
  Basis Set:
  Basis Set: 6-31G*
  Basis Set:
  @DF-RHF Final Energy:  -418.28394988586240
    Total Energy =                       -418.2839498858628531
  Basis Set: 6-31G*
  Basis Set:
  Basis Set: 6-31G*
  Basis Set:
  @DF-RHF Final Energy:  -418.28396356785333
    Total Energy =                       -418.2839635678526520
  Basis Set: 6-31G*
  Basis Set:
  Charge       = 0
  Multiplicity = 1
  Basis Set: 6-31G*
  Basis Set:

    Orbital Energies (a.u.)
    -----------------------

    Doubly Occupied:

       1A    -20.590209     2A    -20.566050     3A    -11.334745
       4A    -11.305427     5A    -11.252937     6A    -11.251801
       7A    -11.250504     8A    -11.247341     9A    -11.245181
      10A     -1.407461    11A     -1.406329    12A     -1.170267
      13A     -1.049186    14A     -1.026159    15A     -0.898592
      16A     -0.848564    17A     -0.797982    18A     -0.747236
      19A     -0.699043    20A     -0.673243    21A     -0.657407
      22A     -0.631220    23A     -0.618230    24A     -0.606781
      25A     -0.557695    26A     -0.546760    27A     -0.531468
      28A     -0.504991    29A     -0.486083    30A     -0.425087
      31A     -0.352385    32A     -0.338261

  @DF-RHF Final Energy:  -418.28396586496336

   => Energetics <=

    Nuclear Repulsion Energy =            402.7770106410214908
    One-Electron Energy =               -1368.0726965305548219
    Two-Electron Energy =                 547.0117200245699678
    DFT Exchange-Correlation Energy =       0.0000000000000000
    Empirical Dispersion Energy =           0.0000000000000000
    PCM Polarization Energy =               0.0000000000000000
    EFP Energy =                            0.0000000000000000
    Total Energy =                       -418.2839658649634202
    Molecular point group: c1
  Basis Set: 6-31G*
  Basis Set:

  -Total Gradient:
     Atom            X                  Y                   Z
    ------   -----------------  -----------------  -----------------
       1       -0.000045247918     0.000080886161     0.002298511033
       2        0.000729151214     0.000255750400    -0.002475639904
       3       -0.002022071269    -0.001150140902    -0.000529511278
       4        0.001278089644     0.000731511104     0.000792098467
       5        0.000056384826    -0.000018815105    -0.000069779542
       6        0.000023416795    -0.000026284115    -0.000008016926
       7       -0.000027400629     0.000206234693    -0.000054834527
       8       -0.000024090752     0.000025338526     0.000014578296
       9        0.000109432023    -0.000028636045    -0.000043309308
      10        0.000013951629    -0.000016502446    -0.000005600287
      11       -0.000086255884    -0.000111925524     0.000136414705
      12       -0.000025908455     0.000033436867     0.000028051764
      13        0.000012542946     0.000015260935    -0.000048506908
      14        0.000004930024     0.000002826822    -0.000017976981
      15        0.000003075803     0.000001058625    -0.000016478601

  **** Optimization is complete! (in 6 steps) ****
    Final optimized geometry and variables:
    Molecular point group: c1

    Geometry (in Angstrom), charge = 0, multiplicity = 1:

    H            2.150743395146    -2.134054571999     0.728489299069
    O            1.231471773529    -2.363748834122     0.710125292048
    C            0.459335325833    -1.240087857660     0.648638906377
    C           -0.449099041125    -1.003256916891     1.672786145073
    C            0.555035408477    -0.361735971542    -0.411260854553
    H           -0.502432427758    -1.701892990227     2.487078925509
    C           -1.270028091898     0.108692506575     1.627970875979
    H            1.247915419795    -0.541561894297    -1.212066963580
    C           -0.262084557746     0.763525876872    -0.446704761216
    H           -1.974469560064     0.284332066721     2.420406700378
    C           -1.176771324877     0.997932763769     0.568327430183
    C           -0.159401079877     1.716336595321    -1.580656759046
    H           -1.810598235592     1.866765073295     0.533431297532
    O            0.606035347002     1.606307333251    -2.485346778104
    H           -0.852144492197     2.562113621443    -1.538785246962

  Mulliken Charges: (a.u.)
   Center  Symbol    Alpha    Beta     Spin     Total
       1     H     0.26949  0.26949  0.00000  0.46102
       2     O     4.38525  4.38525  0.00000 -0.77050
       3     C     2.81272  2.81272  0.00000  0.37455
       4     C     3.10804  3.10804  0.00000 -0.21609
       5     C     3.11708  3.11708  0.00000 -0.23417
       6     H     0.38647  0.38647  0.00000  0.22706
       7     C     3.10056  3.10056  0.00000 -0.20112
       8     H     0.37551  0.37551  0.00000  0.24899
       9     C     3.05033  3.05033  0.00000 -0.10067
      10     H     0.39255  0.39255  0.00000  0.21491
      11     C     3.10903  3.10903  0.00000 -0.21807
      12     C     2.83199  2.83199  0.00000  0.33601
      13     H     0.39222  0.39222  0.00000  0.21556
      14     O     4.24747  4.24747  0.00000 -0.49494
      15     H     0.42127  0.42127  0.00000  0.15746

   Total alpha = 32.00000, Total beta = 32.00000, Total charge = -0.00000
