  ==> Input File <==

--------------------------------------------------------------------------
set {
	reference rhf
	basis 6-31G*
}

set_num_threads( 1 )
memory 2 gb

molecule MOL {
0 1

H	 0.304885	 2.398002	 6.600881
C	 -0.221391	 1.493958	 6.310603
C	 -0.691338	 1.570484	 4.858546
H	 0.454077	 0.656405	 6.457542
H	 -1.059860	 1.366622	 6.989980
C	 -1.444103	 0.312946	 4.418366
H	 0.166563	 1.723516	 4.211871
H	 -1.337494	 2.438201	 4.735085
C	 -1.942804	 0.367826	 2.974222
H	 -0.804272	 -0.554291	 4.537359
H	 -2.301857	 0.165727	 5.070767
C	 -0.843125	 0.269395	 1.927198
H	 -2.622670	 -0.462267	 2.788484
H	 -2.525098	 1.269546	 2.798122
C	 -1.181045	 0.701995	 0.511084
O	 0.242433	 -0.148910	 2.197368
C	 -2.285934	 -0.139295	 -0.145128
H	 -0.267077	 0.636096	 -0.066872
H	 -1.487948	 1.746047	 0.532294
C	 -3.651768	 0.085446	 0.506485
H	 -2.346596	 0.110469	 -1.202272
H	 -2.034737	 -1.195320	 -0.088721
C	 -4.759797	 -0.746382	 -0.137905
H	 -3.908762	 1.140117	 0.445781
H	 -3.588286	 -0.154158	 1.565709
H	 -4.868882	 -0.505166	 -1.191300
H	 -4.548009	 -1.809175	 -0.062213
H	 -5.715422	 -0.564821	 0.343442

	symmetry c1
}
set optking {
	frozen_dihedral = ("
		10 6 3 2,
		16 12 15 17
	")
}

ee = energy('scf')
oeprop('DIPOLE', 'QUADRUPOLE', 'MULLIKEN_CHARGES')
f=open( 'psi4out.xyz', 'w' )
f.write( "28  " )
f.write( str(ee) + "\n" )
f.write( MOL.save_string_xyz() )
f.close()
--------------------------------------------------------------------------

    Molecular point group: c1

    Geometry (in Angstrom), charge = 0, multiplicity = 1:

       Center              X                  Y                   Z               Mass
    ------------   -----------------  -----------------  -----------------  -----------------
           H          1.987576237666     2.024514040169     4.246496433364     1.007825032070
           C          1.461300237666     1.120470040169     3.956218433364    12.000000000000
           C          0.991353237666     1.196996040169     2.504161433364    12.000000000000
           H          2.136768237666     0.282917040169     4.103157433364     1.007825032070
           H          0.622831237666     0.993134040169     4.635595433364     1.007825032070
           C          0.238588237666    -0.060541959831     2.063981433364    12.000000000000
           H          1.849254237666     1.350028040169     1.857486433364     1.007825032070
           H          0.345197237666     2.064713040169     2.380700433364     1.007825032070
           C         -0.260112762334    -0.005661959831     0.619837433364    12.000000000000
           H          0.878419237666    -0.927778959831     2.182974433364     1.007825032070
           H         -0.619165762334    -0.207760959831     2.716382433364     1.007825032070
           C          0.839566237666    -0.104092959831    -0.427186566636    12.000000000000
           H         -0.939978762334    -0.835754959831     0.434099433364     1.007825032070
           H         -0.842406762334     0.896058040169     0.443737433364     1.007825032070
           C          0.501646237666     0.328507040169    -1.843300566636    12.000000000000
           O          1.925124237666    -0.522397959831    -0.157016566636    15.994914619560
           C         -0.603242762334    -0.512782959831    -2.499512566636    12.000000000000
           H          1.415614237666     0.262608040169    -2.421256566636     1.007825032070
           H          0.194743237666     1.372559040169    -1.822090566636     1.007825032070
           C         -1.969076762334    -0.288041959831    -1.847899566636    12.000000000000
           H         -0.663904762334    -0.263018959831    -3.556656566636     1.007825032070
           H         -0.352045762334    -1.568807959831    -2.443105566636     1.007825032070
           C         -3.077105762334    -1.119869959831    -2.492289566636    12.000000000000
           H         -2.226070762334     0.766629040169    -1.908603566636     1.007825032070
           H         -1.905594762334    -0.527645959831    -0.788675566636     1.007825032070
           H         -3.186190762334    -0.878653959831    -3.545684566636     1.007825032070
           H         -2.865317762334    -2.182662959831    -2.416597566636     1.007825032070
           H         -4.032730762334    -0.938308959831    -2.010942566636     1.007825032070

  Charge       = 0
  Multiplicity = 1
  Basis Set: 6-31G*
  Basis Set:

    Orbital Energies (a.u.)
    -----------------------

    Doubly Occupied:

       1A    -20.549258     2A    -11.323076     3A    -11.232346
       4A    -11.229575     5A    -11.229053     6A    -11.222523
       7A    -11.216101     8A    -11.216087     9A    -11.212482
      10A    -11.205827    11A     -1.394215    12A     -1.100451
      13A     -1.076061    14A     -1.018671    15A     -0.994730
      16A     -0.906281    17A     -0.880996    18A     -0.813726
      19A     -0.793699    20A     -0.726166    21A     -0.678548
      22A     -0.649801    23A     -0.630596    24A     -0.612527
      25A     -0.605966    26A     -0.590600    27A     -0.581113
      28A     -0.574154    29A     -0.552415    30A     -0.530891
      31A     -0.524769    32A     -0.518427    33A     -0.497633
      34A     -0.488635    35A     -0.479008    36A     -0.474515
      37A     -0.465726    38A     -0.461112    39A     -0.443716
      40A     -0.394751

  @DF-RHF Final Energy:  -426.15346565597963

   => Energetics <=

    Nuclear Repulsion Energy =            547.0725869847716467
    One-Electron Energy =               -1662.2598819477266261
    Two-Electron Energy =                 689.0338293069751217
    DFT Exchange-Correlation Energy =       0.0000000000000000
    Empirical Dispersion Energy =           0.0000000000000000
    PCM Polarization Energy =               0.0000000000000000
    EFP Energy =                            0.0000000000000000
    Total Energy =                       -426.1534656559799714

  Mulliken Charges: (a.u.)
   Center  Symbol    Alpha    Beta     Spin     Total
       1     H     0.41934  0.41934  0.00000  0.16131
       2     C     3.24010  3.24010  0.00000 -0.48019
       3     C     3.15696  3.15696  0.00000 -0.31391
       4     H     0.41832  0.41832  0.00000  0.16336
       5     H     0.42366  0.42366  0.00000  0.15267
       6     C     3.14508  3.14508  0.00000 -0.29015
       7     H     0.41056  0.41056  0.00000  0.17887
       8     H     0.42777  0.42777  0.00000  0.14446
       9     C     3.22346  3.22346  0.00000 -0.44693
      10     H     0.40706  0.40706  0.00000  0.18588
      11     H     0.42241  0.42241  0.00000  0.15518
      12     C     2.72806  2.72806  0.00000  0.54387
      13     H     0.39804  0.39804  0.00000  0.20392
      14     H     0.40968  0.40968  0.00000  0.18065
      15     C     3.20358  3.20358  0.00000 -0.40715
      16     O     4.26647  4.26647  0.00000 -0.53294
      17     C     3.16360  3.16360  0.00000 -0.32721
      18     H     0.39814  0.39814  0.00000  0.20373
      19     H     0.41255  0.41255  0.00000  0.17489
      20     C     3.15640  3.15640  0.00000 -0.31281
      21     H     0.41247  0.41247  0.00000  0.17507
      22     H     0.41421  0.41421  0.00000  0.17159
      23     C     3.23837  3.23837  0.00000 -0.47674
      24     H     0.42226  0.42226  0.00000  0.15548
      25     H     0.42185  0.42185  0.00000  0.15630
      26     H     0.42066  0.42066  0.00000  0.15867
      27     H     0.42086  0.42086  0.00000  0.15827
      28     H     0.41807  0.41807  0.00000  0.16385

   Total alpha = 40.00000, Total beta = 40.00000, Total charge =  0.00000
