  ==> Input File <==

--------------------------------------------------------------------------
set {
	reference rhf
	basis 6-31G*
}

set_num_threads( 4 )
memory 2 gb

molecule MOL {
0 1

H	 2.866480	 -0.465706	 0.876907
C	 2.405773	 -0.024801	 0.000000
N	 0.988830	 -0.304158	 0.000000
H	 2.866480	 -0.465706	 -0.876907
H	 2.629928	 1.045948	 0.000000
C	 0.247162	 0.597100	 0.862341
C	 0.697366	 -1.686409	 0.332265
H	 0.565166	 0.508413	 1.906135
H	 0.429793	 1.619759	 0.547602
C	 -1.238922	 0.293497	 0.765534
H	 1.209657	 -2.335837	 -0.370619
H	 1.048177	 -1.941493	 1.337433
C	 -0.800656	 -1.929455	 0.249515
H	 -1.799558	 0.895903	 1.468250
H	 -1.591727	 0.514562	 -0.240264
O	 -1.497947	 -1.045515	 1.081613
H	 -1.045175	 -2.930448	 0.580030
H	 -1.132842	 -1.812978	 -0.780561

	symmetry c1
}
set optking {
	frozen_dihedral = ("
		6 3 2 5
	")
}

ee = optimize('scf')
oeprop('DIPOLE', 'QUADRUPOLE', 'MULLIKEN_CHARGES')
f=open( 'psi4out.xyz', 'w' )
f.write( "18  " )
f.write( str(ee) + "\n" )
f.write( MOL.save_string_xyz() )
f.close()
--------------------------------------------------------------------------

    Molecular point group: c1
  Charge       = 0
  Multiplicity = 1
  Basis Set: 6-31G*
  Basis Set:
  @DF-RHF Final Energy:  -325.02659282386827
    Total Energy =                       -325.0265928238687252
    Molecular point group: c1
  Basis Set: 6-31G*
  Basis Set:
  Basis Set: 6-31G*
  Basis Set:
  @DF-RHF Final Energy:  -325.02741212734264
    Total Energy =                       -325.0274121273420178
  Basis Set: 6-31G*
  Basis Set:
  Basis Set: 6-31G*
  Basis Set:
  @DF-RHF Final Energy:  -325.02752295450085
    Total Energy =                       -325.0275229545005686
  Basis Set: 6-31G*
  Basis Set:
  Basis Set: 6-31G*
  Basis Set:
  @DF-RHF Final Energy:  -325.02752586565515
    Total Energy =                       -325.0275258656549795
  Basis Set: 6-31G*
  Basis Set:
  Charge       = 0
  Multiplicity = 1
  Basis Set: 6-31G*
  Basis Set:

    Orbital Energies (a.u.)
    -----------------------

    Doubly Occupied:

       1A    -20.553960     2A    -15.547850     3A    -11.266121
       4A    -11.266090     5A    -11.244332     6A    -11.244029
       7A    -11.241158     8A     -1.383253     9A     -1.231180
      10A     -1.038725    11A     -0.981128    12A     -0.883261
      13A     -0.869049    14A     -0.773861    15A     -0.683429
      16A     -0.645546    17A     -0.643505    18A     -0.634426
      19A     -0.627652    20A     -0.571197    21A     -0.558043
      22A     -0.541064    23A     -0.527648    24A     -0.501521
      25A     -0.485529    26A     -0.452409    27A     -0.407955
      28A     -0.349519

  @DF-RHF Final Energy:  -325.02752641906790

   => Energetics <=

    Nuclear Repulsion Energy =            341.3492533786749732
    One-Electron Energy =               -1118.4466756679219088
    Two-Electron Energy =                 452.0698958701793799
    DFT Exchange-Correlation Energy =       0.0000000000000000
    Empirical Dispersion Energy =           0.0000000000000000
    PCM Polarization Energy =               0.0000000000000000
    EFP Energy =                            0.0000000000000000
    Total Energy =                       -325.0275264190674989
    Molecular point group: c1
  Basis Set: 6-31G*
  Basis Set:

  -Total Gradient:
     Atom            X                  Y                   Z
    ------   -----------------  -----------------  -----------------
       1        0.000004818581    -0.000006575065    -0.000003702123
       2       -0.000201789620     0.000581204557    -0.005257667370
       3        0.000513424820    -0.002320215743     0.003816264137
       4       -0.000025638036    -0.000004850722     0.000021128064
       5        0.000059088542     0.000080530435     0.003522578461
       6       -0.000363266018     0.001670833486    -0.002072886897
       7        0.000014127303    -0.000017980183    -0.000010991617
       8        0.000009524940    -0.000007995327    -0.000015357476
       9       -0.000005125479    -0.000001559550    -0.000000178262
      10       -0.000010256002     0.000002529760    -0.000014620718
      11        0.000006216811     0.000001956032     0.000000425995
      12       -0.000008224253     0.000010877786    -0.000010511565
      13        0.000008433166     0.000001911509     0.000019264771
      14       -0.000005739655    -0.000002214239     0.000002900866
      15        0.000001338861     0.000004528664     0.000000118540
      16        0.000004935892     0.000011665440    -0.000002726192
      17       -0.000007009900    -0.000008039736    -0.000001137226
      18        0.000005140054     0.000003392894     0.000007098609

  **** Optimization is complete! (in 5 steps) ****
    Final optimized geometry and variables:
    Molecular point group: c1

    Geometry (in Angstrom), charge = 0, multiplicity = 1:

    H            2.817460460320     0.167579555504     0.396981280025
    C            2.296325261887     0.552022427672    -0.484926759618
    N            0.877343434480     0.281084892663    -0.453746725750
    H            2.746028928638     0.103694968260    -1.364042647983
    H            2.466632214885     1.621764995048    -0.509988244422
    C            0.130670107051     1.188911696379     0.395220927912
    C            0.578504053858    -1.102554318118    -0.145519725510
    H            0.434541202664     1.110657607779     1.444295764320
    H            0.315256486669     2.208242073890     0.072578759671
    C           -1.354427571854     0.884313614866     0.283567403893
    H            1.092550914209    -1.742903070475    -0.855900269379
    H            0.925260232443    -1.374183372736     0.856773451183
    C           -0.919949362423    -1.338919535283    -0.237802572797
    H           -1.923036329168     1.486317525957     0.980280957171
    H           -1.696089432782     1.105158471494    -0.726087272899
    O           -1.616564526223    -0.455232503156     0.595324461099
    H           -1.171419952695    -2.340469365151     0.085903997254
    H           -1.246599783933    -1.214645335586    -1.268634640008

  Mulliken Charges: (a.u.)
   Center  Symbol    Alpha    Beta     Spin     Total
       1     H     0.43214  0.43214  0.00000  0.13572
       2     C     3.13863  3.13863  0.00000 -0.27726
       3     N     3.79061  3.79061  0.00000 -0.58123
       4     H     0.41484  0.41484  0.00000  0.17032
       5     H     0.41751  0.41751  0.00000  0.16497
       6     C     3.06620  3.06620  0.00000 -0.13240
       7     C     3.06634  3.06634  0.00000 -0.13268
       8     H     0.42884  0.42884  0.00000  0.14231
       9     H     0.41691  0.41691  0.00000  0.16618
      10     C     2.99795  2.99795  0.00000  0.00410
      11     H     0.41702  0.41702  0.00000  0.16596
      12     H     0.42834  0.42834  0.00000  0.14333
      13     C     2.99765  2.99765  0.00000  0.00471
      14     H     0.41332  0.41332  0.00000  0.17335
      15     H     0.42414  0.42414  0.00000  0.15171
      16     O     4.31212  4.31212  0.00000 -0.62423
      17     H     0.41330  0.41330  0.00000  0.17340
      18     H     0.42413  0.42413  0.00000  0.15174

   Total alpha = 28.00000, Total beta = 28.00000, Total charge = -0.00000
