  ==> Input File <==

--------------------------------------------------------------------------
set {
	reference rhf
	basis 6-31G*
}

set_num_threads( 4 )
memory 2 gb

molecule MOL {
0 1

H	 0.251176	 -1.334732	 -1.033408
C	 -0.650428	 -1.469794	 -0.439261
O	 -1.392607	 -0.295399	 -0.366433
H	 -1.271232	 -2.219185	 -0.910595
H	 -0.362074	 -1.823584	 0.549734
C	 -0.719715	 0.768384	 0.229244
C	 0.719720	 0.768376	 -0.229267
H	 -1.185038	 1.714362	 -0.050570
H	 -0.750528	 0.687237	 1.313896
O	 1.392611	 -0.295398	 0.366430
H	 0.750534	 0.687200	 -1.313918
H	 1.185043	 1.714359	 0.050526
C	 2.706965	 -0.449871	 -0.062409
H	 2.756559	 -0.644779	 -1.131878
H	 3.305899	 0.433456	 0.155466
H	 3.125548	 -1.294566	 0.467107

	symmetry c1
}
set optking {
	frozen_dihedral = ("
		2 3 6 7
	")
}

ee = optimize('scf')
oeprop('DIPOLE', 'QUADRUPOLE', 'MULLIKEN_CHARGES')
f=open( 'psi4out.xyz', 'w' )
f.write( "16  " )
f.write( str(ee) + "\n" )
f.write( MOL.save_string_xyz() )
f.close()
--------------------------------------------------------------------------

    Molecular point group: c1
  Charge       = 0
  Multiplicity = 1
  Basis Set: 6-31G*
  Basis Set:
  @DF-RHF Final Energy:  -306.95856201210131
    Total Energy =                       -306.9585620121011971
    Molecular point group: c1
  Basis Set: 6-31G*
  Basis Set:
  Basis Set: 6-31G*
  Basis Set:
  @DF-RHF Final Energy:  -306.96850283654982
    Total Energy =                       -306.9685028365498738
  Basis Set: 6-31G*
  Basis Set:
  Basis Set: 6-31G*
  Basis Set:
  @DF-RHF Final Energy:  -306.97176797153026
    Total Energy =                       -306.9717679715304257
  Basis Set: 6-31G*
  Basis Set:
  Basis Set: 6-31G*
  Basis Set:
  @DF-RHF Final Energy:  -306.97277846057079
    Total Energy =                       -306.9727784605707939
  Basis Set: 6-31G*
  Basis Set:
  @DF-RHF Final Energy:  -306.97320446950869
    Total Energy =                       -306.9732044695088575
  Basis Set: 6-31G*
  Basis Set:
  @DF-RHF Final Energy:  -306.97328083888027
    Total Energy =                       -306.9732808388802141
  Basis Set: 6-31G*
  Basis Set:
  Basis Set: 6-31G*
  Basis Set:
  @DF-RHF Final Energy:  -306.97338243761675
    Total Energy =                       -306.9733824376165785
  Basis Set: 6-31G*
  Basis Set:
  Basis Set: 6-31G*
  Basis Set:
  @DF-RHF Final Energy:  -306.97339039074797
    Total Energy =                       -306.9733903907477952
  Basis Set: 6-31G*
  Basis Set:
  Charge       = 0
  Multiplicity = 1
  Basis Set: 6-31G*
  Basis Set:

    Orbital Energies (a.u.)
    -----------------------

    Doubly Occupied:

       1A    -20.564428     2A    -20.547910     3A    -11.275213
       4A    -11.272295     5A    -11.268204     6A    -11.254359
       7A     -1.392226     8A     -1.365501     9A     -1.028997
      10A     -0.949799    11A     -0.894483    12A     -0.815451
      13A     -0.693511    14A     -0.681355    15A     -0.655803
      16A     -0.633469    17A     -0.626086    18A     -0.594144
      19A     -0.554124    20A     -0.541997    21A     -0.518368
      22A     -0.490470    23A     -0.451181    24A     -0.423733
      25A     -0.404746

  @DF-RHF Final Energy:  -306.97339096809526

   => Energetics <=

    Nuclear Repulsion Energy =            264.9630998634460184
    One-Electron Energy =                -944.0772720857771674
    Two-Electron Energy =                 372.1407812542357760
    DFT Exchange-Correlation Energy =       0.0000000000000000
    Empirical Dispersion Energy =           0.0000000000000000
    PCM Polarization Energy =               0.0000000000000000
    EFP Energy =                            0.0000000000000000
    Total Energy =                       -306.9733909680953730
    Molecular point group: c1
  Basis Set: 6-31G*
  Basis Set:

  -Total Gradient:
     Atom            X                  Y                   Z
    ------   -----------------  -----------------  -----------------
       1       -0.000008590662    -0.000036039828     0.000000356287
       2        0.001244966636     0.001134132838    -0.004025260687
       3       -0.001391251807    -0.002853624811     0.007301932891
       4        0.000008475708     0.000004847149     0.000003814507
       5        0.000009853898     0.000005648964     0.000019583277
       6       -0.000906527126     0.004114872213    -0.006230623001
       7        0.000993154443    -0.002398533184     0.002914607603
       8        0.000005618993     0.000018018977     0.000004346729
       9        0.000017191539     0.000007942489    -0.000002852157
      10        0.000000752921     0.000028322650     0.000015864246
      11       -0.000005266814    -0.000000129362     0.000006166618
      12       -0.000020176955     0.000012887320    -0.000008091976
      13        0.000056569185    -0.000046925753    -0.000004799744
      14       -0.000009394685     0.000007207095     0.000011149221
      15       -0.000012678414    -0.000001614290    -0.000001295853
      16        0.000017303135     0.000002987536    -0.000004897964

  **** Optimization is complete! (in 9 steps) ****
    Final optimized geometry and variables:
    Molecular point group: c1

    Geometry (in Angstrom), charge = 0, multiplicity = 1:

    H           -0.519914433518    -1.409327124893    -1.164670496996
    C           -1.312955083543    -1.396133752335    -0.425139099168
    O           -1.841943782686    -0.116148974879    -0.239973033123
    H           -2.127904444603    -2.012629468404    -0.780092997064
    H           -0.926218026934    -1.812751328622     0.499182597641
    C           -1.024041593760     0.880609816067     0.299976299661
    C            0.419638252318     0.916191788218    -0.171593244565
    H           -1.497490834903     1.819109696768     0.038745730707
    H           -1.010298942155     0.802103389536     1.385551375104
    O            1.163070510380    -0.074222317139     0.470935793962
    H            0.470627997928     0.797270472619    -1.253221944545
    H            0.828314355196     1.898207352540     0.067628534307
    C            2.502338354256    -0.118609009826     0.090951977137
    H            2.608275099656    -0.331655194275    -0.970957721179
    H            3.007129993100     0.821229214670     0.306214342183
    H            2.976434912670    -0.908652768463     0.656547727178

  Mulliken Charges: (a.u.)
   Center  Symbol    Alpha    Beta     Spin     Total
       1     H     0.42985  0.42985  0.00000  0.14030
       2     C     3.07519  3.07519  0.00000 -0.15037
       3     O     4.31194  4.31194  0.00000 -0.62387
       4     H     0.41717  0.41717  0.00000  0.16566
       5     H     0.42208  0.42208  0.00000  0.15583
       6     C     2.98578  2.98578  0.00000  0.02845
       7     C     3.01815  3.01815  0.00000 -0.03629
       8     H     0.41680  0.41680  0.00000  0.16639
       9     H     0.42191  0.42191  0.00000  0.15619
      10     O     4.30356  4.30356  0.00000 -0.60713
      11     H     0.42387  0.42387  0.00000  0.15227
      12     H     0.42582  0.42582  0.00000  0.14836
      13     C     3.08079  3.08079  0.00000 -0.16158
      14     H     0.42844  0.42844  0.00000  0.14313
      15     H     0.42851  0.42851  0.00000  0.14297
      16     H     0.41015  0.41015  0.00000  0.17970

   Total alpha = 25.00000, Total beta = 25.00000, Total charge =  0.00000
