  ==> Input File <==

--------------------------------------------------------------------------
set {
	reference rhf
	basis 6-31G*
}

set_num_threads( 1 )
memory 2 gb

molecule MOL {
0 1

O	 2.763030	 1.513945	 -0.801408
C	 2.690759	 0.405543	 -1.236126
C	 1.395600	 -0.386494	 -1.222733
C	 3.897775	 -0.287665	 -1.834232
C	 0.215961	 0.361038	 -0.608011
H	 1.173604	 -0.679447	 -2.248054
H	 1.580435	 -1.318540	 -0.690259
C	 -1.069781	 -0.467583	 -0.612402
H	 0.059914	 1.287658	 -1.151292
H	 0.467048	 0.647669	 0.408328
C	 -2.259874	 0.272531	 0.000494
H	 -1.313821	 -0.754540	 -1.634237
H	 -0.905786	 -1.396064	 -0.067337
C	 -3.549786	 -0.549746	 -0.000374
H	 -2.425174	 1.200523	 -0.544047
H	 -2.017376	 0.559120	 1.022285
C	 -4.809590	 0.315458	 -0.000369
H	 -3.560515	 -1.202009	 -0.871156
H	 -3.561123	 -1.202955	 0.869711
H	 -4.844746	 0.956611	 -0.876632
H	 -5.706986	 -0.295590	 -0.001609
H	 -4.845960	 0.954827	 0.877144
H	 3.703875	 -0.562565	 -2.866923
H	 4.754904	 0.369798	 -1.790554
H	 4.115502	 -1.203506	 -1.292509

	symmetry c1
}
set optking {
	frozen_dihedral = ("
		9 5 8 12,
		15 11 8 12,
		1 2 3 6,
		9 5 3 6
	")
}

ee = energy('scf')
oeprop('DIPOLE', 'QUADRUPOLE', 'MULLIKEN_CHARGES')
f=open( 'psi4out.xyz', 'w' )
f.write( "25  " )
f.write( str(ee) + "\n" )
f.write( MOL.save_string_xyz() )
f.close()
--------------------------------------------------------------------------

    Molecular point group: c1

    Geometry (in Angstrom), charge = 0, multiplicity = 1:

       Center              X                  Y                   Z               Mass
    ------------   -----------------  -----------------  -----------------  -----------------
           O          2.849693097584     1.377254952089    -0.099522999984    15.994914619560
           C          2.777422097584     0.268852952089    -0.534240999984    12.000000000000
           C          1.482263097584    -0.523184047911    -0.520847999984    12.000000000000
           C          3.984438097584    -0.424355047911    -1.132346999984    12.000000000000
           C          0.302624097584     0.224347952089     0.093874000016    12.000000000000
           H          1.260267097584    -0.816137047911    -1.546168999984     1.007825032070
           H          1.667098097584    -1.455230047911     0.011626000016     1.007825032070
           C         -0.983117902416    -0.604273047911     0.089483000016    12.000000000000
           H          0.146577097584     1.150967952089    -0.449406999984     1.007825032070
           H          0.553711097584     0.510978952089     1.110213000016     1.007825032070
           C         -2.173210902416     0.135840952089     0.702379000016    12.000000000000
           H         -1.227157902416    -0.891230047911    -0.932351999984     1.007825032070
           H         -0.819122902416    -1.532754047911     0.634548000016     1.007825032070
           C         -3.463122902416    -0.686436047911     0.701511000016    12.000000000000
           H         -2.338510902416     1.063832952089     0.157838000016     1.007825032070
           H         -1.930712902416     0.422429952089     1.724170000016     1.007825032070
           C         -4.722926902416     0.178767952089     0.701516000016    12.000000000000
           H         -3.473851902416    -1.338699047911    -0.169270999984     1.007825032070
           H         -3.474459902416    -1.339645047911     1.571596000016     1.007825032070
           H         -4.758082902416     0.819920952089    -0.174746999984     1.007825032070
           H         -5.620322902416    -0.432280047911     0.700276000016     1.007825032070
           H         -4.759296902416     0.818136952089     1.579029000016     1.007825032070
           H          3.790538097584    -0.699255047911    -2.165037999984     1.007825032070
           H          4.841567097584     0.233107952089    -1.088668999984     1.007825032070
           H          4.202165097584    -1.340196047911    -0.590623999984     1.007825032070

  Charge       = 0
  Multiplicity = 1
  Basis Set: 6-31G*
  Basis Set:

    Orbital Energies (a.u.)
    -----------------------

    Doubly Occupied:

       1A    -20.550485     2A    -11.326281     3A    -11.231878
       4A    -11.228333     5A    -11.217165     6A    -11.216459
       7A    -11.214721     8A    -11.212863     9A    -11.208444
      10A     -1.395764    11A     -1.093626    12A     -1.056288
      13A     -1.014426    14A     -0.969087    15A     -0.890806
      16A     -0.814494    17A     -0.790658    18A     -0.729887
      19A     -0.660791    20A     -0.652114    21A     -0.630655
      22A     -0.623978    23A     -0.596983    24A     -0.585036
      25A     -0.567844    26A     -0.559137    27A     -0.538591
      28A     -0.527095    29A     -0.513457    30A     -0.490126
      31A     -0.486830    32A     -0.474535    33A     -0.463534
      34A     -0.459865    35A     -0.450121    36A     -0.399370

  @DF-RHF Final Energy:  -387.13426306360384

   => Energetics <=

    Nuclear Repulsion Energy =            438.6354552505682705
    One-Electron Energy =               -1393.8557827307035950
    Two-Electron Energy =                 568.0860644165322810
    DFT Exchange-Correlation Energy =       0.0000000000000000
    Empirical Dispersion Energy =           0.0000000000000000
    PCM Polarization Energy =               0.0000000000000000
    EFP Energy =                            0.0000000000000000
    Total Energy =                       -387.1342630636030435

  Mulliken Charges: (a.u.)
   Center  Symbol    Alpha    Beta     Spin     Total
       1     O     4.26114  4.26114  0.00000 -0.52228
       2     C     2.73570  2.73570  0.00000  0.52860
       3     C     3.21086  3.21086  0.00000 -0.42173
       4     C     3.28663  3.28663  0.00000 -0.57326
       5     C     3.14828  3.14828  0.00000 -0.29657
       6     H     0.41004  0.41004  0.00000  0.17991
       7     H     0.41001  0.41001  0.00000  0.17999
       8     C     3.15497  3.15497  0.00000 -0.30993
       9     H     0.41209  0.41209  0.00000  0.17583
      10     H     0.41220  0.41220  0.00000  0.17559
      11     C     3.15199  3.15199  0.00000 -0.30398
      12     H     0.42462  0.42462  0.00000  0.15075
      13     H     0.42471  0.42471  0.00000  0.15059
      14     C     3.15243  3.15243  0.00000 -0.30487
      15     H     0.42190  0.42190  0.00000  0.15621
      16     H     0.42095  0.42095  0.00000  0.15811
      17     C     3.23981  3.23981  0.00000 -0.47962
      18     H     0.42321  0.42321  0.00000  0.15358
      19     H     0.42183  0.42183  0.00000  0.15633
      20     H     0.42150  0.42150  0.00000  0.15700
      21     H     0.42007  0.42007  0.00000  0.15986
      22     H     0.42114  0.42114  0.00000  0.15772
      23     H     0.40875  0.40875  0.00000  0.18251
      24     H     0.39647  0.39647  0.00000  0.20706
      25     H     0.40870  0.40870  0.00000  0.18260

   Total alpha = 36.00000, Total beta = 36.00000, Total charge =  0.00000
