                              Psi4 1.0.54 Driver

  ==> Input File <==

--------------------------------------------------------------------------
set {
	reference rhf
	basis cc-pvtz
}

set_num_threads( 4 )
memory 2 gb

molecule MOL {
0 1

H	 -3.034039	 -0.667848	 0.004703
O	 -2.240597	 -1.171748	 0.000934
C	 -1.159675	 -0.364500	 0.000370
C	 -0.569263	 0.081135	 -1.164636
C	 -0.647633	 0.011545	 1.232626
H	 -0.963352	 -0.210752	 -2.120959
C	 0.539557	 0.905803	 -1.082987
H	 -1.128637	 -0.354067	 2.119136
C	 0.456696	 0.835867	 1.312199
H	 1.003475	 1.252119	 -1.987210
C	 1.053199	 1.282674	 0.137237
C	 0.999243	 1.264107	 2.652310
H	 1.915391	 1.920649	 0.182771
H	 2.080873	 1.212688	 2.668224
H	 0.619061	 0.639601	 3.449304
H	 0.717114	 2.288882	 2.868833

	symmetry c1
}
set optking {
	frozen_dihedral = ("
		5 3 2 1
	")
}

ee,wfn = optimize('scf', return_wfn=True)
oeprop( wfn, 'DIPOLE', 'QUADRUPOLE', 'MULLIKEN_CHARGES')
f=open( 'psi4out.xyz', 'w' )
f.write( "16  " )
f.write( str(ee) + "\n" )
f.write( MOL.save_string_xyz() )
f.close()
--------------------------------------------------------------------------

    Molecular point group: c1
  Charge       = 0
  Multiplicity = 1
  Basis Set: CC-PVTZ
  Basis Set:
  @DF-RHF Final Energy:  -344.71528150625210
    Total Energy =                       -344.7152815062523814
    Molecular point group: c1
  Basis Set: CC-PVTZ
  Basis Set:
  Basis Set: CC-PVTZ
  Basis Set:
  @DF-RHF Final Energy:  -344.71611997943546
    Total Energy =                       -344.7161199794354616
  Basis Set: CC-PVTZ
  Basis Set:
  Basis Set: CC-PVTZ
  Basis Set:
  @DF-RHF Final Energy:  -344.71617865458620
    Total Energy =                       -344.7161786545859172
  Basis Set: CC-PVTZ
  Basis Set:
  Basis Set: CC-PVTZ
  Basis Set:
  @DF-RHF Final Energy:  -344.71618417682976
    Total Energy =                       -344.7161841768300974
  Basis Set: CC-PVTZ
  Basis Set:
  Basis Set: CC-PVTZ
  Basis Set:
  @DF-RHF Final Energy:  -344.71618531215040
    Total Energy =                       -344.7161853121504009
  Basis Set: CC-PVTZ
  Basis Set:
  Charge       = 0
  Multiplicity = 1
  Basis Set: CC-PVTZ
  Basis Set:

    Orbital Energies (a.u.)
    -----------------------

    Doubly Occupied:

       1A    -20.568743     2A    -11.286212     3A    -11.240427
       4A    -11.230941     5A    -11.220968     6A    -11.219235
       7A    -11.219145     8A    -11.218944     9A     -1.395374
      10A     -1.155045    11A     -1.046933    12A     -1.007340
      13A     -0.939322    14A     -0.831891    15A     -0.809787
      16A     -0.721422    17A     -0.679611    18A     -0.659223
      19A     -0.622587    20A     -0.593055    21A     -0.578283
      22A     -0.570249    23A     -0.552751    24A     -0.514401
      25A     -0.505782    26A     -0.485063    27A     -0.466466
      28A     -0.334101    29A     -0.322930

  @DF-RHF Final Energy:  -344.71618573315357

   => Energetics <=

    Nuclear Repulsion Energy =            345.8016354588127115
    One-Electron Energy =               -1153.0431699879186453
    Two-Electron Energy =                 462.5253487959528229
    DFT Exchange-Correlation Energy =       0.0000000000000000
    Empirical Dispersion Energy =           0.0000000000000000
    PCM Polarization Energy =               0.0000000000000000
    EFP Energy =                            0.0000000000000000
    Total Energy =                       -344.7161857331531110
    Molecular point group: c1
  Basis Set: CC-PVTZ
  Basis Set:

  -Total Gradient:
     Atom            X                  Y                   Z
    ------   -----------------  -----------------  -----------------
       1       -0.000004244150     0.000002235895    -0.000089945427
       2       -0.000046458667    -0.000065917236     0.000122842193
       3        0.000036110013     0.000105277882    -0.000095047977
       4        0.000003873370     0.000015526839    -0.000008631048
       5        0.000010076055    -0.000067103687     0.000064672416
       6       -0.000007598524    -0.000006625468     0.000000399894
       7       -0.000026138978    -0.000014412006     0.000015064341
       8        0.000015365432     0.000008151319    -0.000022654920
       9        0.000012088517     0.000009467014    -0.000000490008
      10        0.000000059589     0.000001520534    -0.000000401278
      11        0.000004669735    -0.000000060487     0.000001673561
      12       -0.000002291457     0.000006475120    -0.000003558593
      13       -0.000007636533     0.000004257575     0.000009415026
      14        0.000006964059    -0.000011854965     0.000001242201
      15       -0.000005560555     0.000004288009     0.000009121787
      16        0.000010722097     0.000008773660    -0.000003702171

  **** Optimization is complete! (in 6 steps) ****
    Final optimized geometry and variables:
    Molecular point group: c1

    Geometry (in Angstrom), charge = 0, multiplicity = 1:

    H           -2.799820140922    -1.031768696107    -0.444673243197
    O           -1.996574730715    -1.521965722531    -0.451239251366
    C           -0.920674752354    -0.678252552219    -0.398327592717
    C           -0.329344123104    -0.244337594958    -1.565275888172
    C           -0.404848927372    -0.307231215103     0.830115077986
    H           -0.730651167519    -0.555380336370    -2.509930227090
    C            0.783124712844     0.573895710108    -1.489597652284
    H           -0.877837749040    -0.678133559312     1.719481377134
    C            0.707026820401     0.512940374984     0.911408566792
    H            1.252927886117     0.914226422039    -2.392912345020
    C            1.297201134452     0.951039866581    -0.266428753082
    C            1.258883969358     0.936427567044     2.249690389042
    H            2.164665715875     1.582936902121    -0.224845299234
    H            2.340382557478     0.880879945554     2.260257721266
    H            0.881928996499     0.309599390527     3.046657227287
    H            0.981874727870     1.961090232969     2.473753246015

  Mulliken Charges: (a.u.)
   Center  Symbol    Alpha    Beta     Spin     Total
       1     H     0.38913  0.38913  0.00000  0.22175
       2     O     4.19240  4.19240  0.00000 -0.38480
       3     C     2.85680  2.85680  0.00000  0.28640
       4     C     3.12413  3.12413  0.00000 -0.24825
       5     C     3.14429  3.14429  0.00000 -0.28857
       6     H     0.41751  0.41751  0.00000  0.16498
       7     C     3.06076  3.06076  0.00000 -0.12153
       8     H     0.42007  0.42007  0.00000  0.15986
       9     C     2.94637  2.94637  0.00000  0.10727
      10     H     0.42219  0.42219  0.00000  0.15562
      11     C     3.10743  3.10743  0.00000 -0.21485
      12     C     3.14621  3.14621  0.00000 -0.29241
      13     H     0.42692  0.42692  0.00000  0.14616
      14     H     0.44786  0.44786  0.00000  0.10427
      15     H     0.45052  0.45052  0.00000  0.09896
      16     H     0.44742  0.44742  0.00000  0.10516

   Total alpha = 29.00000, Total beta = 29.00000, Total charge = -0.00000

*** Psi4 exiting successfully. Buy a developer a beer!
