  ==> Input File <==

--------------------------------------------------------------------------
set {
	reference rhf
	basis 6-31G*
}

set_num_threads( 4 )
memory 2 gb

molecule MOL {
0 1

O	 -2.791990	 0.280632	 0.733463
C	 -1.921153	 0.064240	 -0.045697
C	 -2.127546	 -0.349274	 -1.477743
O	 -0.632575	 0.154573	 0.251549
H	 -1.655145	 -1.308895	 -1.653561
H	 -3.184707	 -0.413350	 -1.687841
H	 -1.660623	 0.372306	 -2.138092
C	 0.160891	 -1.019931	 0.106212
C	 1.589627	 -0.672828	 0.480843
H	 0.089836	 -1.367806	 -0.916050
H	 -0.238459	 -1.792301	 0.749618
C	 2.246377	 0.346236	 -0.452210
H	 2.163194	 -1.597435	 0.473358
H	 1.604769	 -0.303424	 1.502885
C	 3.691736	 0.652107	 -0.061850
H	 2.219579	 -0.032311	 -1.472055
H	 1.666466	 1.263317	 -0.447249
H	 4.134505	 1.377213	 -0.737283
H	 4.305508	 -0.243868	 -0.089969
H	 3.748266	 1.059562	 0.943567

	symmetry c1
}
set optking {
	frozen_dihedral = ("
		1 2 4 8
	")
}

ee = optimize('scf')
oeprop('DIPOLE', 'QUADRUPOLE', 'MULLIKEN_CHARGES')
f=open( 'psi4out.xyz', 'w' )
f.write( "20  " )
f.write( str(ee) + "\n" )
f.write( MOL.save_string_xyz() )
f.close()
--------------------------------------------------------------------------

    Molecular point group: c1
  Charge       = 0
  Multiplicity = 1
  Basis Set: 6-31G*
  Basis Set:
  @DF-RHF Final Energy:  -383.92161040810305
    Total Energy =                       -383.9216104081032199
    Molecular point group: c1
  Basis Set: 6-31G*
  Basis Set:
  Basis Set: 6-31G*
  Basis Set:
  @DF-RHF Final Energy:  -383.92163319441283
    Total Energy =                       -383.9216331944124931
  Basis Set: 6-31G*
  Basis Set:
  Basis Set: 6-31G*
  Basis Set:
  @DF-RHF Final Energy:  -383.92478778720181
    Total Energy =                       -383.9247877872015806
  Basis Set: 6-31G*
  Basis Set:
  Basis Set: 6-31G*
  Basis Set:
  @DF-RHF Final Energy:  -383.92485392443734
    Total Energy =                       -383.9248539244371159
  Basis Set: 6-31G*
  Basis Set:
  @DF-RHF Final Energy:  -383.92599893635531
    Total Energy =                       -383.9259989363551995
  @DF-RHF Final Energy:  -383.92621897450363
    Total Energy =                       -383.9262189745035130
  @DF-RHF Final Energy:  -383.92625663011364
    Total Energy =                       -383.9262566301134711
  @DF-RHF Final Energy:  -383.92630382627607
    Total Energy =                       -383.9263038262763530
  Basis Set: 6-31G*
  Basis Set:
  @DF-RHF Final Energy:  -383.92631440930160
    Total Energy =                       -383.9263144093011988
  Basis Set: 6-31G*
  Basis Set:
  Basis Set: 6-31G*
  Basis Set:
  @DF-RHF Final Energy:  -383.92631614726616
    Total Energy =                       -383.9263161472664478
  Basis Set: 6-31G*
  Basis Set:
  Basis Set: 6-31G*
  Basis Set:
  @DF-RHF Final Energy:  -383.92631817105399
    Total Energy =                       -383.9263181710543904
  Basis Set: 6-31G*
  Basis Set:
  Charge       = 0
  Multiplicity = 1
  Basis Set: 6-31G*
  Basis Set:

    Orbital Energies (a.u.)
    -----------------------

    Doubly Occupied:

       1A    -20.587925     2A    -20.551510     3A    -11.376938
       4A    -11.296321     5A    -11.239340     6A    -11.229148
       7A    -11.222231     8A    -11.214223     9A     -1.458665
      10A     -1.367177    11A     -1.085744    12A     -1.019717
      13A     -0.994843    14A     -0.885592    15A     -0.813151
      16A     -0.778452    17A     -0.694929    18A     -0.686674
      19A     -0.657175    20A     -0.633069    21A     -0.616443
      22A     -0.591850    23A     -0.581179    24A     -0.553760
      25A     -0.552148    26A     -0.536167    27A     -0.494285
      28A     -0.489637    29A     -0.478147    30A     -0.474917
      31A     -0.450132    32A     -0.435197

  @DF-RHF Final Energy:  -383.92631831256239

   => Energetics <=

    Nuclear Repulsion Energy =            384.3478111122233827
    One-Electron Energy =               -1284.4548870857308884
    Two-Electron Energy =                 516.1807576609452326
    DFT Exchange-Correlation Energy =       0.0000000000000000
    Empirical Dispersion Energy =           0.0000000000000000
    PCM Polarization Energy =               0.0000000000000000
    EFP Energy =                            0.0000000000000000
    Total Energy =                       -383.9263183125623300
    Molecular point group: c1
  Basis Set: 6-31G*
  Basis Set:

  -Total Gradient:
     Atom            X                  Y                   Z
    ------   -----------------  -----------------  -----------------
       1        0.000015866471    -0.002948213949     0.001074890800
       2       -0.000185495636     0.004023595720    -0.000233502824
       3        0.000020892050     0.000001929519    -0.000012087378
       4        0.000521029764    -0.000641375394    -0.003345971544
       5       -0.000004189848     0.000006662773     0.000005230372
       6       -0.000003291207     0.000004402160    -0.000004768681
       7       -0.000012454735     0.000000116761     0.000000802757
       8       -0.000358180879    -0.000452808205     0.002514302503
       9        0.000006606645     0.000002264954    -0.000003068825
      10       -0.000002620272     0.000000105986     0.000008724509
      11       -0.000014518994     0.000003992833    -0.000009270228
      12        0.000005783454    -0.000006270258     0.000000294277
      13        0.000002323181     0.000006147475     0.000001684516
      14        0.000003460345    -0.000001099305     0.000005060611
      15        0.000000593596     0.000003382010    -0.000001307837
      16        0.000001953845     0.000000365416    -0.000001826740
      17        0.000000919831    -0.000004261565    -0.000000698431
      18        0.000000460262     0.000000957899     0.000001004035
      19       -0.000000180547     0.000000520206    -0.000000647320
      20        0.000001042677    -0.000000415039     0.000001155427

  **** Optimization is complete! (in 12 steps) ****
    Final optimized geometry and variables:
    Molecular point group: c1

    Geometry (in Angstrom), charge = 0, multiplicity = 1:

    O           -2.715923825431     0.424938401960     0.834404791293
    C           -1.949231408918     0.125925144655    -0.013502219625
    C           -2.368346515809    -0.345622729607    -1.385596986254
    O           -0.622266173059     0.212426164492     0.194865208669
    H           -2.235530990971    -1.419499318165    -1.470265762410
    H           -3.413024943777    -0.115823121418    -1.534270976104
    H           -1.766267057420     0.127106442206    -2.152290250219
    C            0.173205626248    -0.958201353007     0.091179318243
    C            1.582565388789    -0.615424219743     0.537411724795
    H            0.175935274217    -1.319004443911    -0.932942487185
    H           -0.247879416672    -1.730562510585     0.726350151247
    C            2.275300505546     0.416819616717    -0.353492588803
    H            2.158726364516    -1.538539448123     0.548739550772
    H            1.540129092562    -0.254590452675     1.560614793299
    C            3.695928978620     0.731653545309     0.113216913972
    H            2.304944012586     0.046321320627    -1.376612503884
    H            1.686326804725     1.327394620074    -0.369206268909
    H            4.165942647030     1.465235164520    -0.533923302668
    H            4.318810088962    -0.158590476576     0.111446525575
    H            3.695975360446     1.133232455570     1.122328699676

  Mulliken Charges: (a.u.)
   Center  Symbol    Alpha    Beta     Spin     Total
       1     O     4.24993  4.24993  0.00000 -0.49986
       2     C     2.62378  2.62378  0.00000  0.75244
       3     C     3.29904  3.29904  0.00000 -0.59808
       4     O     4.31336  4.31336  0.00000 -0.62672
       5     H     0.40337  0.40337  0.00000  0.19326
       6     H     0.39195  0.39195  0.00000  0.21611
       7     H     0.40150  0.40150  0.00000  0.19699
       8     C     3.00409  3.00409  0.00000 -0.00819
       9     C     3.16185  3.16185  0.00000 -0.32369
      10     H     0.42234  0.42234  0.00000  0.15533
      11     H     0.41365  0.41365  0.00000  0.17271
      12     C     3.15606  3.15606  0.00000 -0.31211
      13     H     0.41966  0.41966  0.00000  0.16069
      14     H     0.40820  0.40820  0.00000  0.18359
      15     C     3.24072  3.24072  0.00000 -0.48144
      16     H     0.42552  0.42552  0.00000  0.14896
      17     H     0.40685  0.40685  0.00000  0.18630
      18     H     0.41710  0.41710  0.00000  0.16580
      19     H     0.42241  0.42241  0.00000  0.15519
      20     H     0.41863  0.41863  0.00000  0.16273

   Total alpha = 32.00000, Total beta = 32.00000, Total charge =  0.00000
