  ==> Input File <==

--------------------------------------------------------------------------
set {
	reference rhf
	basis cc-pvtz
}

set_num_threads( 4 )
memory 2 gb

molecule MOL {
0 1

H	 -3.406674	 -0.989771	 -0.264644
O	 -3.113209	 -0.146055	 0.029257
C	 -1.774932	 -0.060196	 0.008227
C	 -0.973971	 -1.117406	 -0.405540
C	 -1.203594	 1.133114	 0.417822
H	 -1.424601	 -2.040057	 -0.721888
C	 0.393390	 -0.975943	 -0.407580
H	 -1.839306	 1.935918	 0.733092
C	 0.167252	 1.258588	 0.409861
H	 1.022319	 -1.784093	 -0.724520
C	 0.981121	 0.213562	 0.000000
H	 0.611576	 2.183924	 0.727426
C	 2.447402	 0.371303	 0.000000
O	 3.227427	 -0.521847	 0.000000
H	 2.796538	 1.409525	 0.000000

	symmetry c1
}
set optking {
	frozen_dihedral = ("
		7 11 13 14
	")
}

ee = optimize('scf')
oeprop('DIPOLE', 'QUADRUPOLE', 'MULLIKEN_CHARGES')
f=open( 'psi4out.xyz', 'w' )
f.write( "15  " )
f.write( str(ee) + "\n" )
f.write( MOL.save_string_xyz() )
f.close()
--------------------------------------------------------------------------

    Molecular point group: c1
  Charge       = 0
  Multiplicity = 1
  Basis Set: CC-PVTZ
  Basis Set:
  @DF-RHF Final Energy:  -418.44093938047240
    Total Energy =                       -418.4409393804725141
    Molecular point group: c1
  Basis Set: CC-PVTZ
  Basis Set:
  Basis Set: CC-PVTZ
  Basis Set:
  @DF-RHF Final Energy:  -418.43996151875587
    Total Energy =                       -418.4399615187558084
  Basis Set: CC-PVTZ
  Basis Set:
  Basis Set: CC-PVTZ
  Basis Set:
  @DF-RHF Final Energy:  -418.44111084174250
    Total Energy =                       -418.4411108417423293
  Basis Set: CC-PVTZ
  Basis Set:
  Basis Set: CC-PVTZ
  Basis Set:
  @DF-RHF Final Energy:  -418.44117157649572
    Total Energy =                       -418.4411715764955488
  Basis Set: CC-PVTZ
  Basis Set:
  Basis Set: CC-PVTZ
  Basis Set:
  @DF-RHF Final Energy:  -418.44117263483224
    Total Energy =                       -418.4411726348321281
  Basis Set: CC-PVTZ
  Basis Set:
  Charge       = 0
  Multiplicity = 1
  Basis Set: CC-PVTZ
  Basis Set:

    Orbital Energies (a.u.)
    -----------------------

    Doubly Occupied:

       1A    -20.604223     2A    -20.546921     3A    -11.323332
       4A    -11.321706     5A    -11.257705     6A    -11.254730
       7A    -11.242118     8A    -11.237301     9A    -11.236574
      10A     -1.437323    11A     -1.402907    12A     -1.175125
      13A     -1.044521    14A     -1.042404    15A     -0.891911
      16A     -0.870681    17A     -0.797842    18A     -0.762101
      19A     -0.717603    20A     -0.671491    21A     -0.647329
      22A     -0.631543    23A     -0.614778    24A     -0.610670
      25A     -0.588755    26A     -0.564016    27A     -0.551764
      28A     -0.508988    29A     -0.490964    30A     -0.422107
      31A     -0.362134    32A     -0.331220

  @DF-RHF Final Energy:  -418.44117342559707

   => Energetics <=

    Nuclear Repulsion Energy =            402.2026301843975489
    One-Electron Energy =               -1366.9620336729531118
    Two-Electron Energy =                 546.3182300629586052
    DFT Exchange-Correlation Energy =       0.0000000000000000
    Empirical Dispersion Energy =           0.0000000000000000
    PCM Polarization Energy =               0.0000000000000000
    EFP Energy =                            0.0000000000000000
    Total Energy =                       -418.4411734255969577
    Molecular point group: c1
  Basis Set: CC-PVTZ
  Basis Set:

  -Total Gradient:
     Atom            X                  Y                   Z
    ------   -----------------  -----------------  -----------------
       1       -0.000000920494     0.000002527282    -0.000005690500
       2        0.000001298621    -0.000012677005     0.000018097140
       3       -0.000007439225     0.000043667646    -0.000038494620
       4        0.000023444070    -0.000008828949    -0.000001328746
       5       -0.000012361439    -0.000033993278     0.000054593818
       6       -0.000003656528    -0.000002372528     0.000009491472
       7       -0.000238934189     0.001313429297    -0.003455482930
       8        0.000001408457    -0.000001643289     0.000003006560
       9        0.000015771917     0.000005725285    -0.000066813895
      10        0.000001990150     0.000002504733     0.000001563337
      11        0.000366492113    -0.001969398315     0.007186909101
      12        0.000000569724    -0.000004864329     0.000010168061
      13       -0.000267674473     0.000772310642    -0.008255138823
      14        0.000116834078    -0.000102228748     0.004543470975
      15        0.000003177235    -0.000004158444    -0.000004350950

  **** Optimization is complete! (in 6 steps) ****
    Final optimized geometry and variables:
    Molecular point group: c1

    Geometry (in Angstrom), charge = 0, multiplicity = 1:

    H           -3.407890047950    -0.989024395853    -0.263604580140
    O           -3.114673059546    -0.144187541213     0.027649593063
    C           -1.775956764888    -0.060248844680     0.009943920775
    C           -0.975238971703    -1.116090803162    -0.406052137658
    C           -1.203840660101     1.133274014869     0.417812958917
    H           -1.426042916697    -2.034585448145    -0.734239022025
    C            0.393067032229    -0.978217686892    -0.398205404547
    H           -1.838920825011     1.938648698609     0.728047979865
    C            0.166847433863     1.261045095337     0.403677737757
    H            1.020736303091    -1.788489503974    -0.712920503761
    C            0.981270755143     0.206550074463     0.020372709331
    H            0.610016783550     2.192777114712     0.703965153715
    C            2.448154575378     0.373100010587    -0.007945547609
    O            3.230610810568    -0.516617706027    -0.042372663165
    H            2.793639754214     1.411535698277     0.040855914435

  Mulliken Charges: (a.u.)
   Center  Symbol    Alpha    Beta     Spin     Total
       1     H     0.38544  0.38544  0.00000  0.22913
       2     O     4.16659  4.16659  0.00000 -0.33317
       3     C     2.84556  2.84556  0.00000  0.30889
       4     C     3.13138  3.13138  0.00000 -0.26276
       5     C     3.10753  3.10753  0.00000 -0.21507
       6     H     0.43116  0.43116  0.00000  0.13768
       7     C     3.07033  3.07033  0.00000 -0.14067
       8     H     0.41665  0.41665  0.00000  0.16669
       9     C     3.06790  3.06790  0.00000 -0.13581
      10     H     0.40815  0.40815  0.00000  0.18369
      11     C     2.99506  2.99506  0.00000  0.00988
      12     H     0.42172  0.42172  0.00000  0.15656
      13     C     2.91425  2.91425  0.00000  0.17150
      14     O     4.17739  4.17739  0.00000 -0.35478
      15     H     0.46088  0.46088  0.00000  0.07823

   Total alpha = 32.00000, Total beta = 32.00000, Total charge = -0.00000
