                              Psi4 1.0.54 Driver

  ==> Input File <==

--------------------------------------------------------------------------
set {
	reference rhf
	basis cc-pvtz
}

set_num_threads( 4 )
memory 2 gb

molecule MOL {
0 1

H	 0.019761	 -1.752767	 -0.099531
C	 -1.031290	 -1.551325	 0.094369
O	 -1.401606	 -0.295183	 -0.366624
H	 -1.627911	 -2.284553	 -0.428421
H	 -1.209476	 -1.653713	 1.163317
C	 -0.718530	 0.758693	 0.228682
C	 0.718529	 0.758687	 -0.228709
H	 -1.176498	 1.708665	 -0.046615
H	 -0.748705	 0.673525	 1.312779
O	 1.401606	 -0.295166	 0.366636
H	 0.748705	 0.673477	 -1.312803
H	 1.176496	 1.708671	 0.046552
C	 2.714315	 -0.441627	 -0.061017
H	 2.765292	 -0.641548	 -1.128869
H	 3.305661	 0.447341	 0.150952
H	 3.143725	 -1.278506	 0.470147

	symmetry c1
}
set optking {
	frozen_dihedral = ("
		2 3 6 7
	")
}

ee,wfn = optimize('scf', return_wfn=True)
oeprop( wfn, 'DIPOLE', 'QUADRUPOLE', 'MULLIKEN_CHARGES')
f=open( 'psi4out.xyz', 'w' )
f.write( "16  " )
f.write( str(ee) + "\n" )
f.write( MOL.save_string_xyz() )
f.close()
--------------------------------------------------------------------------

    Molecular point group: c1
  Charge       = 0
  Multiplicity = 1
  Basis Set: CC-PVTZ
  Basis Set:
  @DF-RHF Final Energy:  -307.08915321935683
    Total Energy =                       -307.0891532193567173
    Molecular point group: c1
  Basis Set: CC-PVTZ
  Basis Set:
  Basis Set: CC-PVTZ
  Basis Set:
  @DF-RHF Final Energy:  -306.67608025767311
    Total Energy =                       -306.6760802576731635
  Basis Set: CC-PVTZ
  Basis Set:
  Basis Set: CC-PVTZ
  Basis Set:
  @DF-RHF Final Energy:  -306.84957150051156
    Total Energy =                       -306.8495715005120132
  Basis Set: CC-PVTZ
  Basis Set:
  Basis Set: CC-PVTZ
  Basis Set:
  @DF-RHF Final Energy:  -306.95678494767321
    Total Energy =                       -306.9567849476732704
  Basis Set: CC-PVTZ
  Basis Set:
  @DF-RHF Final Energy:  -307.08340350250279
    Total Energy =                       -307.0834035025028470
  @DF-RHF Final Energy:  -307.09250676876587
    Total Energy =                       -307.0925067687657020
  @DF-RHF Final Energy:  -307.09539289040850
    Total Energy =                       -307.0953928904085046
  @DF-RHF Final Energy:  -307.09315444533604
    Total Energy =                       -307.0931544453358129
  @DF-RHF Final Energy:  -307.09618824690529
    Total Energy =                       -307.0961882469054558
  Basis Set: CC-PVTZ
  Basis Set:
  @DF-RHF Final Energy:  -307.09626114481233
    Total Energy =                       -307.0962611448121606
  Basis Set: CC-PVTZ
  Basis Set:
  Basis Set: CC-PVTZ
  Basis Set:
  @DF-RHF Final Energy:  -307.09628012579924
    Total Energy =                       -307.0962801257991259
  Basis Set: CC-PVTZ
  Basis Set:
  Basis Set: CC-PVTZ
  Basis Set:
  @DF-RHF Final Energy:  -307.09628400442676
    Total Energy =                       -307.0962840044269910
  Basis Set: CC-PVTZ
  Basis Set:
  Charge       = 0
  Multiplicity = 1
  Basis Set: CC-PVTZ
  Basis Set:

    Orbital Energies (a.u.)
    -----------------------

    Doubly Occupied:

       1A    -20.555546     2A    -20.544266     3A    -11.269907
       4A    -11.267971     5A    -11.266817     6A    -11.252776
       7A     -1.393414     8A     -1.371625     9A     -1.029224
      10A     -0.947474    11A     -0.891602    12A     -0.819873
      13A     -0.691513    14A     -0.681215    15A     -0.659746
      16A     -0.636229    17A     -0.627843    18A     -0.599115
      19A     -0.554186    20A     -0.528598    21A     -0.523306
      22A     -0.487109    23A     -0.461506    24A     -0.427245
      25A     -0.407181

  @DF-RHF Final Energy:  -307.09628439541103

   => Energetics <=

    Nuclear Repulsion Energy =            263.9484526454269258
    One-Electron Energy =                -942.2989010836166699
    Two-Electron Energy =                 371.2541640427784841
    DFT Exchange-Correlation Energy =       0.0000000000000000
    Empirical Dispersion Energy =           0.0000000000000000
    PCM Polarization Energy =               0.0000000000000000
    EFP Energy =                            0.0000000000000000
    Total Energy =                       -307.0962843954112031
    Molecular point group: c1
  Basis Set: CC-PVTZ
  Basis Set:

  -Total Gradient:
     Atom            X                  Y                   Z
    ------   -----------------  -----------------  -----------------
       1       -0.000002523540     0.000010939910     0.000008448795
       2        0.000954151910     0.000648577706    -0.000845665518
       3       -0.001249505925    -0.001573720864     0.001203484000
       4       -0.000007546376     0.000005682203     0.000004069468
       5       -0.000005824821     0.000006793038     0.000001801158
       6        0.000011751121     0.002155403536    -0.000399119009
       7        0.000280667952    -0.001204165331     0.000052017947
       8        0.000003194032    -0.000007172046    -0.000007621564
       9        0.000005753002     0.000004939890    -0.000005147840
      10        0.000051049113    -0.000025985619    -0.000014343582
      11       -0.000001286758    -0.000011617355     0.000005914242
      12       -0.000002676573    -0.000002709143    -0.000009280199
      13       -0.000049786336    -0.000029831754     0.000009312269
      14        0.000009484056     0.000002782848    -0.000001249880
      15        0.000003382932     0.000002362816    -0.000004114275
      16       -0.000000283788     0.000017720167     0.000001493989

  **** Optimization is complete! (in 13 steps) ****
    Final optimized geometry and variables:
    Molecular point group: c1

    Geometry (in Angstrom), charge = 0, multiplicity = 1:

    H           -0.635978877760    -0.876977108852    -1.599553372069
    C           -1.552369437209    -0.927778624483    -1.025977807957
    O           -1.777138322638     0.235954580159    -0.289285430316
    H           -2.388357578671    -1.040222588974    -1.701848011853
    H           -1.502752392998    -1.800586635789    -0.380330736554
    C           -0.963366739522     0.457501589449     0.817604528649
    C            0.482109343257     0.792595133670     0.506285728614
    H           -1.398729485041     1.300628227344     1.338273577110
    H           -0.985559134504    -0.400350409512     1.487077175236
    O            1.196644637161    -0.357835376033     0.177657612228
    H            0.520854388533     1.513438488443    -0.308623626479
    H            0.922289664455     1.261468609255     1.386258582753
    C            2.535987503246    -0.134672624051    -0.117646355925
    H            2.650844679524     0.522940323547    -0.976300539790
    H            3.060116658875     0.308193194112     0.726537476031
    H            2.988605687604    -1.088457941507    -0.346273536389

  Mulliken Charges: (a.u.)
   Center  Symbol    Alpha    Beta     Spin     Total
       1     H     0.46603  0.46603  0.00000  0.06794
       2     C     3.02817  3.02817  0.00000 -0.05635
       3     O     4.18016  4.18016  0.00000 -0.36032
       4     H     0.44900  0.44900  0.00000  0.10201
       5     H     0.47117  0.47117  0.00000  0.05765
       6     C     2.97710  2.97710  0.00000  0.04579
       7     C     2.98597  2.98597  0.00000  0.02806
       8     H     0.45028  0.45028  0.00000  0.09945
       9     H     0.46691  0.46691  0.00000  0.06617
      10     O     4.17606  4.17606  0.00000 -0.35212
      11     H     0.46535  0.46535  0.00000  0.06931
      12     H     0.46563  0.46563  0.00000  0.06875
      13     C     3.03480  3.03480  0.00000 -0.06960
      14     H     0.46903  0.46903  0.00000  0.06195
      15     H     0.46821  0.46821  0.00000  0.06359
      16     H     0.44614  0.44614  0.00000  0.10771

   Total alpha = 25.00000, Total beta = 25.00000, Total charge =  0.00000

*** Psi4 exiting successfully. Buy a developer a beer!
