                              Psi4 1.0.54 Driver

  ==> Input File <==

--------------------------------------------------------------------------
set {
	reference rhf
	basis cc-pvtz
}

set_num_threads( 4 )
memory 2 gb

molecule MOL {
0 1

O	 -2.071633	 -1.227563	 -0.223463
C	 -1.652164	 -0.152425	 0.058082
C	 -0.327811	 0.006324	 0.778296
C	 -2.402515	 1.108629	 -0.298924
C	 0.844976	 -0.377540	 -0.132004
H	 -0.207302	 1.028318	 1.121996
H	 -0.345176	 -0.644477	 1.643162
C	 2.197104	 -0.248369	 0.563190
H	 0.839685	 0.246861	 -1.021829
H	 0.703164	 -1.398712	 -0.468845
C	 3.365586	 -0.641142	 -0.334330
H	 2.331031	 0.774673	 0.903739
H	 2.200664	 -0.870053	 1.453715
H	 3.409593	 -0.013136	 -1.217907
H	 3.275573	 -1.670143	 -0.665121
H	 4.309903	 -0.542840	 0.188167
H	 -3.240910	 0.874416	 -0.936711
H	 -1.747554	 1.818823	 -0.790984
H	 -2.760419	 1.579708	 0.610998

	symmetry c1
}
set optking {
	frozen_dihedral = ("
		5 3 2 4
	")
}

ee,wfn = optimize('scf', return_wfn=True)
oeprop( wfn, 'DIPOLE', 'QUADRUPOLE', 'MULLIKEN_CHARGES')
f=open( 'psi4out.xyz', 'w' )
f.write( "19  " )
f.write( str(ee) + "\n" )
f.write( MOL.save_string_xyz() )
f.close()
--------------------------------------------------------------------------

    Molecular point group: c1
  Charge       = 0
  Multiplicity = 1
  Basis Set: CC-PVTZ
  Basis Set:
  @DF-RHF Final Energy:  -309.17717979170015
    Total Energy =                       -309.1771797917002687
    Molecular point group: c1
  Basis Set: CC-PVTZ
  Basis Set:
  Basis Set: CC-PVTZ
  Basis Set:
  @DF-RHF Final Energy:  -309.17681726488257
    Total Energy =                       -309.1768172648825725
  Basis Set: CC-PVTZ
  Basis Set:
  Basis Set: CC-PVTZ
  Basis Set:
  @DF-RHF Final Energy:  -309.17720459164565
    Total Energy =                       -309.1772045916455340
  Basis Set: CC-PVTZ
  Basis Set:
  Basis Set: CC-PVTZ
  Basis Set:
  @DF-RHF Final Energy:  -309.17723348778912
    Total Energy =                       -309.1772334877894082
  Basis Set: CC-PVTZ
  Basis Set:
  Basis Set: CC-PVTZ
  Basis Set:
  @DF-RHF Final Energy:  -309.17719612928892
    Total Energy =                       -309.1771961292892570
  Basis Set: CC-PVTZ
  Basis Set:
  Basis Set: CC-PVTZ
  Basis Set:
  @DF-RHF Final Energy:  -309.17725535474881
    Total Energy =                       -309.1772553547492066
  Basis Set: CC-PVTZ
  Basis Set:
  Charge       = 0
  Multiplicity = 1
  Basis Set: CC-PVTZ
  Basis Set:

    Orbital Energies (a.u.)
    -----------------------

    Doubly Occupied:

       1A    -20.536905     2A    -11.319949     3A    -11.228142
       4A    -11.227458     5A    -11.225708     6A    -11.221472
       7A    -11.211791     8A     -1.397448     9A     -1.090947
      10A     -1.030210    11A     -0.985324    12A     -0.889377
      13A     -0.805612    14A     -0.734216    15A     -0.664069
      16A     -0.648211    17A     -0.624649    18A     -0.614359
      19A     -0.583319    20A     -0.574107    21A     -0.553877
      22A     -0.537173    23A     -0.515995    24A     -0.497604
      25A     -0.480715    26A     -0.475558    27A     -0.469091
      28A     -0.399443

  @DF-RHF Final Energy:  -309.17725612588163

   => Energetics <=

    Nuclear Repulsion Energy =            301.7125395936478753
    One-Electron Energy =               -1016.6941437244668123
    Two-Electron Energy =                 405.8043480049371396
    DFT Exchange-Correlation Energy =       0.0000000000000000
    Empirical Dispersion Energy =           0.0000000000000000
    PCM Polarization Energy =               0.0000000000000000
    EFP Energy =                            0.0000000000000000
    Total Energy =                       -309.1772561258817973
    Molecular point group: c1
  Basis Set: CC-PVTZ
  Basis Set:

  -Total Gradient:
     Atom            X                  Y                   Z
    ------   -----------------  -----------------  -----------------
       1        0.000017443400     0.000037957328     0.000018755207
       2        0.000064828219    -0.000052858164    -0.000168082754
       3        0.000005420876     0.000166767455    -0.000040941493
       4       -0.000020083750    -0.000005244814     0.000030589852
       5       -0.000018433021    -0.000136651267     0.000050812704
       6        0.000002378059    -0.000000680662     0.000000784296
       7       -0.000007902292    -0.000003203340     0.000011927351
       8        0.000009095131     0.000010306951     0.000005921318
       9        0.000000256276     0.000000184963    -0.000001075547
      10       -0.000006316925     0.000016475858     0.000005414424
      11       -0.000011171218    -0.000007792423     0.000002507753
      12       -0.000003589800    -0.000008492077    -0.000005079598
      13        0.000002037142     0.000005573219    -0.000006405695
      14       -0.000001047703    -0.000003072400     0.000010428736
      15        0.000003713227     0.000005730851     0.000000280716
      16       -0.000005606620    -0.000002556265    -0.000002884488
      17        0.000006490886    -0.000002111635     0.000027817324
      18       -0.000027942543    -0.000004868359     0.000038276200
      19       -0.000009569346    -0.000015465224     0.000020953694

  **** Optimization is complete! (in 7 steps) ****
    Final optimized geometry and variables:
    Molecular point group: c1

    Geometry (in Angstrom), charge = 0, multiplicity = 1:

    O           -2.068804803882    -1.010213644196    -0.268616145150
    C           -1.653585198715     0.068672102517     0.004506957673
    C           -0.327473355618     0.232417897797     0.724476474560
    C           -2.409707899692     1.324026294384    -0.355169875660
    C            0.847805788161    -0.148182883379    -0.181399593631
    H           -0.210720353450     1.249883256882     1.080451904560
    H           -0.346475252773    -0.423084456514     1.587619409807
    C            2.196775426578    -0.034920828909     0.522136862466
    H            0.848621670078     0.488753618008    -1.062847192558
    H            0.698985695439    -1.162482954900    -0.532548555816
    C            3.367872333137    -0.417606413287    -0.376351161084
    H            2.333976021134     0.981721774763     0.880355044444
    H            2.194175866189    -0.671309475420     1.402454052133
    H            3.417920162289     0.224411395242    -1.249440056080
    H            3.275113316527    -1.440663841061    -0.724273547619
    H            4.310386637048    -0.331444706897     0.151598632418
    H           -3.290104343166     1.078530736072    -0.928808563873
    H           -1.772846290869     1.996027653242    -0.920626478153
    H           -2.697481474695     1.845051869684     0.552313040216

  Mulliken Charges: (a.u.)
   Center  Symbol    Alpha    Beta     Spin     Total
       1     O     4.17764  4.17764  0.00000 -0.35529
       2     C     2.85809  2.85809  0.00000  0.28381
       3     C     3.10064  3.10064  0.00000 -0.20127
       4     C     3.15409  3.15409  0.00000 -0.30818
       5     C     3.09324  3.09324  0.00000 -0.18649
       6     H     0.44880  0.44880  0.00000  0.10240
       7     H     0.44072  0.44072  0.00000  0.11855
       8     C     3.08569  3.08569  0.00000 -0.17139
       9     H     0.45416  0.45416  0.00000  0.09169
      10     H     0.43957  0.43957  0.00000  0.12086
      11     C     3.14943  3.14943  0.00000 -0.29886
      12     H     0.45455  0.45455  0.00000  0.09090
      13     H     0.45228  0.45228  0.00000  0.09543
      14     H     0.45511  0.45511  0.00000  0.08977
      15     H     0.45270  0.45270  0.00000  0.09459
      16     H     0.44773  0.44773  0.00000  0.10454
      17     H     0.43630  0.43630  0.00000  0.12739
      18     H     0.45064  0.45064  0.00000  0.09873
      19     H     0.44860  0.44860  0.00000  0.10280

   Total alpha = 28.00000, Total beta = 28.00000, Total charge = -0.00000

*** Psi4 exiting successfully. Buy a developer a beer!
