                              Psi4 1.0.54 Driver

  ==> Input File <==

--------------------------------------------------------------------------
set {
	reference rhf
	basis cc-pvtz
}

set_num_threads( 4 )
memory 2 gb

molecule MOL {
0 1

O	 -2.081319	 -0.951530	 -0.502732
N	 -1.613558	 0.006676	 0.014756
C	 -0.329345	 -0.171618	 0.743966
O	 -2.068523	 1.100482	 -0.024385
C	 0.835904	 0.041968	 -0.213982
H	 -0.346048	 -1.174374	 1.137184
H	 -0.333613	 0.555559	 1.538590
C	 1.275423	 -1.271038	 -0.856636
H	 0.536830	 0.747804	 -0.980082
H	 1.662731	 0.483021	 0.330596
C	 2.446293	 -1.086264	 -1.815490
H	 0.437405	 -1.710284	 -1.389766
H	 1.552244	 -1.978052	 -0.080164
H	 2.187633	 -0.409550	 -2.622243
H	 3.310019	 -0.677166	 -1.303307
H	 2.738688	 -2.031530	 -2.256102

	symmetry c1
}
set optking {
	frozen_dihedral = ("
		9 5 3 2
	")
}

ee,wfn = optimize('scf', return_wfn=True)
oeprop( wfn, 'DIPOLE', 'QUADRUPOLE', 'MULLIKEN_CHARGES')
f=open( 'psi4out.xyz', 'w' )
f.write( "16  " )
f.write( str(ee) + "\n" )
f.write( MOL.save_string_xyz() )
f.close()
--------------------------------------------------------------------------

    Molecular point group: c1
  Charge       = 0
  Multiplicity = 1
  Basis Set: CC-PVTZ
  Basis Set:
  @DF-RHF Final Energy:  -360.90603247946609
    Total Energy =                       -360.9060324794661483
    Molecular point group: c1
  Basis Set: CC-PVTZ
  Basis Set:
  Basis Set: CC-PVTZ
  Basis Set:
  @DF-RHF Final Energy:  -360.90567038074192
    Total Energy =                       -360.9056703807421513
  Basis Set: CC-PVTZ
  Basis Set:
  Basis Set: CC-PVTZ
  Basis Set:
  @DF-RHF Final Energy:  -360.90144256717946
    Total Energy =                       -360.9014425671793447
  Basis Set: CC-PVTZ
  Basis Set:
  Basis Set: CC-PVTZ
  Basis Set:
  @DF-RHF Final Energy:  -360.90629772415599
    Total Energy =                       -360.9062977241561612
  Basis Set: CC-PVTZ
  Basis Set:
  @DF-RHF Final Energy:  -360.90642389198365
    Total Energy =                       -360.9064238919837635
  @DF-RHF Final Energy:  -360.90649675245635
    Total Energy =                       -360.9064967524564054
  @DF-RHF Final Energy:  -360.90650458402200
    Total Energy =                       -360.9065045840220023
  Basis Set: CC-PVTZ
  Basis Set:
  @DF-RHF Final Energy:  -360.90651025555690
    Total Energy =                       -360.9065102555567250
  Basis Set: CC-PVTZ
  Basis Set:
  Basis Set: CC-PVTZ
  Basis Set:
  @DF-RHF Final Energy:  -360.90652101427060
    Total Energy =                       -360.9065210142707656
  Basis Set: CC-PVTZ
  Basis Set:
  Basis Set: CC-PVTZ
  Basis Set:
  @DF-RHF Final Energy:  -360.90652531138562
    Total Energy =                       -360.9065253113858489
  Basis Set: CC-PVTZ
  Basis Set:
  Charge       = 0
  Multiplicity = 1
  Basis Set: CC-PVTZ
  Basis Set:

    Orbital Energies (a.u.)
    -----------------------

    Doubly Occupied:

       1A    -20.591535     2A    -20.589130     3A    -15.836675
       4A    -11.296861     5A    -11.251165     6A    -11.234580
       7A    -11.222026     8A     -1.635754     9A     -1.419941
      10A     -1.134306    11A     -1.056163    12A     -0.947535
      13A     -0.848964    14A     -0.822050    15A     -0.762969
      16A     -0.737362    17A     -0.728227    18A     -0.648918
      19A     -0.638057    20A     -0.602317    21A     -0.564338
      22A     -0.554800    23A     -0.506685    24A     -0.496940
      25A     -0.495327    26A     -0.481065    27A     -0.472822
      28A     -0.452532

  @DF-RHF Final Energy:  -360.90652618430983

   => Energetics <=

    Nuclear Repulsion Energy =            317.4382473468854755
    One-Electron Energy =               -1120.6314538170927335
    Two-Electron Energy =                 442.2866802858974893
    DFT Exchange-Correlation Energy =       0.0000000000000000
    Empirical Dispersion Energy =           0.0000000000000000
    PCM Polarization Energy =               0.0000000000000000
    EFP Energy =                            0.0000000000000000
    Total Energy =                       -360.9065261843098256
    Molecular point group: c1
  Basis Set: CC-PVTZ
  Basis Set:

  -Total Gradient:
     Atom            X                  Y                   Z
    ------   -----------------  -----------------  -----------------
       1        0.000069677268     0.000063398467     0.000038151566
       2       -0.000040730345     0.002509123821     0.000524629837
       3       -0.000311390467    -0.004223942227    -0.001182061175
       4        0.000013659224     0.000091272154     0.000011815994
       5        0.001493125072     0.004431622981     0.002697853981
       6       -0.000009574881     0.000000164593    -0.000012515716
       7       -0.000006310480     0.000003225793    -0.000013527980
       8        0.000018291040    -0.000018346885    -0.000026483227
       9       -0.001203229313    -0.002866855755    -0.002063330935
      10       -0.000009698310    -0.000002980631     0.000003794579
      11       -0.000018312292     0.000009230457     0.000022883180
      12       -0.000002383775     0.000000530951     0.000009764597
      13       -0.000006489523     0.000008684698    -0.000002106701
      14        0.000006463362    -0.000003689859     0.000002163756
      15        0.000005831855    -0.000000892169    -0.000009193024
      16        0.000001071571    -0.000000546389    -0.000001838733

  **** Optimization is complete! (in 11 steps) ****
    Final optimized geometry and variables:
    Molecular point group: c1

    Geometry (in Angstrom), charge = 0, multiplicity = 1:

    O           -1.932670254832    -0.662789022899     0.046390650296
    N           -1.375472033293     0.322842650682     0.397813359082
    C           -0.086578652232     0.165027137049     1.126871039585
    O           -1.748872823990     1.430130219761     0.198262272715
    C            1.093658839783     0.358872523846     0.168474751892
    H           -0.104853711646    -0.816011967470     1.569344227626
    H           -0.105322254634     0.927529397501     1.887207722405
    C            1.580536029483    -0.944064988334    -0.464360519333
    H            0.797783722872     1.046871092294    -0.614027391176
    H            1.900201653888     0.825726570290     0.720338861317
    C            2.730746084435    -0.721980836211    -1.439572111529
    H            0.754998194828    -1.425925049423    -0.976952964319
    H            1.896317663515    -1.626148018228     0.319718059276
    H            2.432145529198    -0.073092190513    -2.255586891843
    H            3.581450579567    -0.263536303176    -0.946378353749
    H            3.062500326759    -1.660025339075    -1.867501614772

  Mulliken Charges: (a.u.)
   Center  Symbol    Alpha    Beta     Spin     Total
       1     O     4.17255  4.17255  0.00000 -0.34509
       2     N     3.27672  3.27672  0.00000  0.44656
       3     C     3.04936  3.04936  0.00000 -0.09871
       4     O     4.17355  4.17355  0.00000 -0.34709
       5     C     3.10150  3.10150  0.00000 -0.20300
       6     H     0.43432  0.43432  0.00000  0.13135
       7     H     0.42625  0.42625  0.00000  0.14751
       8     C     3.08607  3.08607  0.00000 -0.17213
       9     H     0.43822  0.43822  0.00000  0.12356
      10     H     0.44431  0.44431  0.00000  0.11137
      11     C     3.15003  3.15003  0.00000 -0.30007
      12     H     0.44209  0.44209  0.00000  0.11582
      13     H     0.45358  0.45358  0.00000  0.09285
      14     H     0.45165  0.45165  0.00000  0.09669
      15     H     0.45511  0.45511  0.00000  0.08978
      16     H     0.44470  0.44470  0.00000  0.11060

   Total alpha = 28.00000, Total beta = 28.00000, Total charge = -0.00000

*** Psi4 exiting successfully. Buy a developer a beer!
