  ==> Input File <==

--------------------------------------------------------------------------
set {
	reference rhf
	basis 6-31G*
}

set_num_threads( 4 )
memory 2 gb

molecule MOL {
0 1

H	 -3.407059	 -1.043082	 0.000000
O	 -3.119761	 -0.140267	 0.000000
C	 -1.777559	 -0.059267	 0.000000
C	 -1.061713	 0.387502	 1.106781
C	 -1.114864	 -0.442055	 -1.159472
H	 -1.583074	 0.682296	 2.001538
C	 0.314759	 0.449700	 1.049546
H	 -1.689168	 -0.783118	 -1.999783
C	 0.262119	 -0.374217	 -1.201326
H	 0.879732	 0.792431	 1.895974
C	 0.993137	 0.069985	 -0.104093
H	 0.776153	 -0.670738	 -2.099606
C	 2.466550	 0.137170	 -0.163697
O	 3.166323	 0.504718	 0.728483
H	 2.905356	 -0.183052	 -1.114526

	symmetry c1
}
set optking {
	frozen_dihedral = ("
		5 3 2 1
	")
}

ee = optimize('scf')
oeprop('DIPOLE', 'QUADRUPOLE', 'MULLIKEN_CHARGES')
f=open( 'psi4out.xyz', 'w' )
f.write( "15  " )
f.write( str(ee) + "\n" )
f.write( MOL.save_string_xyz() )
f.close()
--------------------------------------------------------------------------

    Molecular point group: c1
  Charge       = 0
  Multiplicity = 1
  Basis Set: 6-31G*
  Basis Set:
  @DF-RHF Final Energy:  -418.28335730720926
    Total Energy =                       -418.2833573072090303
    Molecular point group: c1
  Basis Set: 6-31G*
  Basis Set:
  Basis Set: 6-31G*
  Basis Set:
  @DF-RHF Final Energy:  -418.28467470115720
    Total Energy =                       -418.2846747011567459
  Basis Set: 6-31G*
  Basis Set:
  Basis Set: 6-31G*
  Basis Set:
  @DF-RHF Final Energy:  -418.28461217622316
    Total Energy =                       -418.2846121762231633
  Basis Set: 6-31G*
  Basis Set:
  Basis Set: 6-31G*
  Basis Set:
  @DF-RHF Final Energy:  -418.28450198351771
    Total Energy =                       -418.2845019835177709
  Basis Set: 6-31G*
  Basis Set:
  Basis Set: 6-31G*
  Basis Set:
  @DF-RHF Final Energy:  -418.28477429756344
    Total Energy =                       -418.2847742975633309
  Basis Set: 6-31G*
  Basis Set:
  Charge       = 0
  Multiplicity = 1
  Basis Set: 6-31G*
  Basis Set:

    Orbital Energies (a.u.)
    -----------------------

    Doubly Occupied:

       1A    -20.595228     2A    -20.560373     3A    -11.331097
       4A    -11.314069     5A    -11.260808     6A    -11.253125
       7A    -11.244369     8A    -11.244286     9A    -11.240626
      10A     -1.412798    11A     -1.401403    12A     -1.170634
      13A     -1.041547    14A     -1.036653    15A     -0.888726
      16A     -0.856256    17A     -0.798477    18A     -0.751244
      19A     -0.702023    20A     -0.676508    21A     -0.644204
      22A     -0.630297    23A     -0.617710    24A     -0.606968
      25A     -0.560161    26A     -0.552665    27A     -0.538020
      28A     -0.497824    29A     -0.482756    30A     -0.421676
      31A     -0.355055    32A     -0.339320

  @DF-RHF Final Energy:  -418.28477588177805

   => Energetics <=

    Nuclear Repulsion Energy =            400.8164014507982529
    One-Electron Energy =               -1364.1485407738200593
    Two-Electron Energy =                 545.0473634412439878
    DFT Exchange-Correlation Energy =       0.0000000000000000
    Empirical Dispersion Energy =           0.0000000000000000
    PCM Polarization Energy =               0.0000000000000000
    EFP Energy =                            0.0000000000000000
    Total Energy =                       -418.2847758817778185
    Molecular point group: c1
  Basis Set: 6-31G*
  Basis Set:

  -Total Gradient:
     Atom            X                  Y                   Z
    ------   -----------------  -----------------  -----------------
       1        0.000066674929    -0.000061234228     0.002057674747
       2       -0.000163544110     0.000780325964    -0.002797749808
       3        0.000144517313    -0.002026171797     0.001466353153
       4       -0.000233271636    -0.000063069513    -0.000104764006
       5        0.000149237718     0.001413042441    -0.000593596728
       6        0.000002485011     0.000005986433     0.000000950004
       7        0.000202050921    -0.000088925740    -0.000115749831
       8        0.000003654660     0.000011434629     0.000010911032
       9       -0.000155682830    -0.000103812157    -0.000078058706
      10       -0.000021238689     0.000011059073     0.000002066935
      11       -0.000007216473     0.000101310314     0.000191425160
      12        0.000024852560     0.000014888251     0.000000392606
      13        0.000018749420     0.000036142672    -0.000060437609
      14       -0.000021996463    -0.000015204144     0.000016816163
      15       -0.000009272332    -0.000015772199     0.000003766888

  **** Optimization is complete! (in 6 steps) ****
    Final optimized geometry and variables:
    Molecular point group: c1

    Geometry (in Angstrom), charge = 0, multiplicity = 1:

    H           -3.450065802717    -1.056723345333    -0.004285984525
    O           -3.129224841916    -0.164527459880     0.006498215667
    C           -1.767132365796    -0.141842657148    -0.047715156532
    C           -1.062325548590     0.316940541206     1.057888222217
    C           -1.102195913535    -0.508366096390    -1.207018627083
    H           -1.606519029273     0.608237236743     1.936663394771
    C            0.313745712357     0.394035595829     1.005275060140
    H           -1.666582468527    -0.835651950633    -2.061065170118
    C            0.278833771773    -0.435551010870    -1.248192659294
    H            0.875795511672     0.744822434026     1.850257495774
    C            0.995948871981     0.013869299936    -0.147897637570
    H            0.798829934081    -0.721937518413    -2.146227460592
    C            2.472547379132     0.091630779007    -0.206285486952
    O            3.166552859709     0.460008509058     0.688826528436
    H            2.915114645700    -0.221932453673    -1.157268148527

  Mulliken Charges: (a.u.)
   Center  Symbol    Alpha    Beta     Spin     Total
       1     H     0.26871  0.26871  0.00000  0.46258
       2     O     4.38351  4.38351  0.00000 -0.76701
       3     C     2.80727  2.80727  0.00000  0.38546
       4     C     3.12045  3.12045  0.00000 -0.24090
       5     C     3.12733  3.12733  0.00000 -0.25465
       6     H     0.38681  0.38681  0.00000  0.22638
       7     C     3.08441  3.08441  0.00000 -0.16882
       8     H     0.39162  0.39162  0.00000  0.21677
       9     C     3.09801  3.09801  0.00000 -0.19603
      10     H     0.37491  0.37491  0.00000  0.25017
      11     C     3.06105  3.06105  0.00000 -0.12209
      12     H     0.39008  0.39008  0.00000  0.21984
      13     C     2.83091  2.83091  0.00000  0.33818
      14     O     4.25111  4.25111  0.00000 -0.50222
      15     H     0.42383  0.42383  0.00000  0.15234

   Total alpha = 32.00000, Total beta = 32.00000, Total charge = -0.00000
