                              Psi4 1.0.54 Driver

  ==> Input File <==

--------------------------------------------------------------------------
set {
	reference rhf
	basis cc-pvtz
}

set_num_threads( 4 )
memory 2 gb

molecule MOL {
0 1

H	 -0.366580	 2.045936	 -0.305741
C	 0.351829	 1.335402	 0.083179
N	 -0.000018	 0.000080	 -0.334836
H	 1.327156	 1.599860	 -0.305475
H	 0.380566	 1.445403	 1.171445
C	 -0.244378	 -0.870701	 0.789623
C	 -1.100845	 -0.001248	 -1.267798
H	 -0.436293	 -1.877978	 0.442270
H	 0.627017	 -0.899107	 1.431535
H	 -1.099202	 -0.552999	 1.394116
H	 -0.855623	 0.605811	 -2.130078
H	 -1.292027	 -1.009493	 -1.612788
H	 -2.026067	 0.388297	 -0.832677

	symmetry c1
}
set optking {
	frozen_dihedral = ("
		6 3 2 1
	")
}

ee,wfn = optimize('scf', return_wfn=True)
oeprop( wfn, 'DIPOLE', 'QUADRUPOLE', 'MULLIKEN_CHARGES')
f=open( 'psi4out.xyz', 'w' )
f.write( "13  " )
f.write( str(ee) + "\n" )
f.write( MOL.save_string_xyz() )
f.close()
--------------------------------------------------------------------------

    Molecular point group: c1
  Charge       = 0
  Multiplicity = 1
  Basis Set: CC-PVTZ
  Basis Set:
  @DF-RHF Final Energy:  -173.32684010627648
    Total Energy =                       -173.3268401062764497
    Molecular point group: c1
  Basis Set: CC-PVTZ
  Basis Set:
  Basis Set: CC-PVTZ
  Basis Set:
  @DF-RHF Final Energy:  -173.32526441396186
    Total Energy =                       -173.3252644139617757
  Basis Set: CC-PVTZ
  Basis Set:
  Basis Set: CC-PVTZ
  Basis Set:
  @DF-RHF Final Energy:  -173.32763797106216
    Total Energy =                       -173.3276379710621882
  Basis Set: CC-PVTZ
  Basis Set:
  Basis Set: CC-PVTZ
  Basis Set:
  @DF-RHF Final Energy:  -173.32768616611440
    Total Energy =                       -173.3276861661144324
  Basis Set: CC-PVTZ
  Basis Set:
  Basis Set: CC-PVTZ
  Basis Set:
  @DF-RHF Final Energy:  -173.32769262388115
    Total Energy =                       -173.3276926238810915
  Basis Set: CC-PVTZ
  Basis Set:
  Charge       = 0
  Multiplicity = 1
  Basis Set: CC-PVTZ
  Basis Set:

    Orbital Energies (a.u.)
    -----------------------

    Doubly Occupied:

       1A    -15.534731     2A    -11.233979     3A    -11.233933
       4A    -11.233741     5A     -1.221005     6A     -0.952062
       7A     -0.951861     8A     -0.806377     9A     -0.638238
      10A     -0.629347    11A     -0.628388    12A     -0.549256
      13A     -0.547266    14A     -0.514498    15A     -0.501792
      16A     -0.501320    17A     -0.340393

  @DF-RHF Final Energy:  -173.32769333269587

   => Energetics <=

    Nuclear Repulsion Energy =            138.9129312944873789
    One-Electron Energy =                -508.4448747120650296
    Two-Electron Energy =                 196.2042500848818349
    DFT Exchange-Correlation Energy =       0.0000000000000000
    Empirical Dispersion Energy =           0.0000000000000000
    PCM Polarization Energy =               0.0000000000000000
    EFP Energy =                            0.0000000000000000
    Total Energy =                       -173.3276933326957874
    Molecular point group: c1
  Basis Set: CC-PVTZ
  Basis Set:

  -Total Gradient:
     Atom            X                  Y                   Z
    ------   -----------------  -----------------  -----------------
       1        0.000872624150     0.000150084637    -0.001134226351
       2       -0.000677826316    -0.000245922761     0.001509080527
       3       -0.001257049900     0.000261997929    -0.000531265219
       4       -0.000019666373    -0.000015238622    -0.000008604349
       5       -0.000004601102    -0.000016006503    -0.000002915647
       6        0.001059635273    -0.000149312623     0.000154651946
       7        0.000021347612     0.000028878692     0.000027270903
       8        0.000001316563     0.000005960842    -0.000004898709
       9       -0.000001051595    -0.000006033942     0.000002797544
      10        0.000005547222    -0.000007260411    -0.000005607362
      11       -0.000007124468    -0.000000072571    -0.000009837487
      12        0.000000367832    -0.000006576504    -0.000004227973
      13        0.000006481103    -0.000000498161     0.000007782178

  **** Optimization is complete! (in 6 steps) ****
    Final optimized geometry and variables:
    Molecular point group: c1

    Geometry (in Angstrom), charge = 0, multiplicity = 1:

    H           -0.281507312507     1.942758407949    -0.249053351596
    C            0.455273471067     1.308353959178     0.234824588294
    N            0.266986949179    -0.092005901433    -0.106617760184
    H            1.435263528322     1.657914459243    -0.073838352803
    H            0.369258200042     1.469595321517     1.302931846942
    C            0.010781424443    -0.939580205865     1.030675010064
    C           -0.664397661589    -0.300065313431    -1.185891035591
    H           -0.007292931462    -1.976788435905     0.719479797212
    H            0.801590071662    -0.829558481051     1.761681308013
    H           -0.940440231299    -0.721932814159     1.526783865057
    H           -0.365518871264     0.278574429002    -2.051021904282
    H           -0.669392017055    -1.343961176006    -1.474297784225
    H           -1.689937289049    -0.016339112106    -0.929166438125

  Mulliken Charges: (a.u.)
   Center  Symbol    Alpha    Beta     Spin     Total
       1     H     0.46384  0.46384  0.00000  0.07232
       2     C     3.08500  3.08500  0.00000 -0.17001
       3     N     3.59898  3.59898  0.00000 -0.19796
       4     H     0.45148  0.45148  0.00000  0.09704
       5     H     0.46075  0.46075  0.00000  0.07851
       6     C     3.09017  3.09017  0.00000 -0.18035
       7     C     3.09041  3.09041  0.00000 -0.18083
       8     H     0.45374  0.45374  0.00000  0.09251
       9     H     0.45234  0.45234  0.00000  0.09533
      10     H     0.47365  0.47365  0.00000  0.05270
      11     H     0.45226  0.45226  0.00000  0.09547
      12     H     0.45381  0.45381  0.00000  0.09239
      13     H     0.47357  0.47357  0.00000  0.05287

   Total alpha = 17.00000, Total beta = 17.00000, Total charge = -0.00000

*** Psi4 exiting successfully. Buy a developer a beer!
