  ==> Input File <==

--------------------------------------------------------------------------
set {
	reference rhf
	basis 6-31G*
}

set_num_threads( 1 )
memory 2 gb

molecule MOL {
0 1

H	 1.263680	 0.014475	 2.215125
C	 1.669172	 0.105317	 1.200174
C	 0.692068	 0.589600	 0.160137
O	 2.804840	 -0.170066	 0.984418
C	 -0.558097	 -0.297372	 0.091132
H	 1.203139	 0.627441	 -0.794774
H	 0.399753	 1.604731	 0.426390
C	 -1.850991	 0.512573	 -0.019058
H	 -0.476753	 -0.965681	 -0.762987
H	 -0.604799	 -0.930658	 0.975228
C	 -3.096943	 -0.368295	 -0.099594
H	 -1.800724	 1.150330	 -0.898172
H	 -1.931651	 1.177355	 0.838044
H	 -3.060452	 -1.020287	 -0.967456
H	 -3.996858	 0.233488	 -0.175704
H	 -3.191959	 -0.995686	 0.782074

	symmetry c1
}
set optking {
	frozen_dihedral = ("
		9 5 8 12,
		4 2 3 6
	")
}

ee = energy('scf')
oeprop('DIPOLE', 'QUADRUPOLE', 'MULLIKEN_CHARGES')
f=open( 'psi4out.xyz', 'w' )
f.write( "16  " )
f.write( str(ee) + "\n" )
f.write( MOL.save_string_xyz() )
f.close()
--------------------------------------------------------------------------

    Molecular point group: c1

    Geometry (in Angstrom), charge = 0, multiplicity = 1:

       Center              X                  Y                   Z               Mass
    ------------   -----------------  -----------------  -----------------  -----------------
           H          1.323703105413    -0.039946145457     1.827202033879     1.007825032070
           C          1.729195105413     0.050895854543     0.812251033879    12.000000000000
           C          0.752091105413     0.535178854543    -0.227785966121    12.000000000000
           O          2.864863105413    -0.224487145457     0.596495033879    15.994914619560
           C         -0.498073894587    -0.351793145457    -0.296790966121    12.000000000000
           H          1.263162105413     0.573019854543    -1.182696966121     1.007825032070
           H          0.459776105413     1.550309854543     0.038467033879     1.007825032070
           C         -1.790967894587     0.458151854543    -0.406980966121    12.000000000000
           H         -0.416729894587    -1.020102145457    -1.150909966121     1.007825032070
           H         -0.544775894587    -0.985079145457     0.587305033879     1.007825032070
           C         -3.036919894587    -0.422716145457    -0.487516966121    12.000000000000
           H         -1.740700894587     1.095908854543    -1.286094966121     1.007825032070
           H         -1.871627894587     1.122933854543     0.450121033879     1.007825032070
           H         -3.000428894587    -1.074708145457    -1.355378966121     1.007825032070
           H         -3.936834894587     0.179066854543    -0.563626966121     1.007825032070
           H         -3.131935894587    -1.050107145457     0.394151033879     1.007825032070

  Charge       = 0
  Multiplicity = 1
  Basis Set: 6-31G*
  Basis Set:

    Orbital Energies (a.u.)
    -----------------------

    Doubly Occupied:

       1A    -20.562285     2A    -11.326800     3A    -11.235739
       4A    -11.234164     5A    -11.229869     6A    -11.218502
       7A     -1.402235     8A     -1.097159     9A     -1.018560
      10A     -0.905622    11A     -0.814987    12A     -0.794253
      13A     -0.672797    14A     -0.654177    15A     -0.623168
      16A     -0.604847    17A     -0.581285    18A     -0.553530
      19A     -0.533398    20A     -0.505503    21A     -0.485456
      22A     -0.481533    23A     -0.477510    24A     -0.409765

  @DF-RHF Final Energy:  -270.01593668293390

   => Energetics <=

    Nuclear Repulsion Energy =            229.2649991546798844
    One-Electron Energy =                -819.7155568372093057
    Two-Electron Energy =                 320.4346209995950403
    DFT Exchange-Correlation Energy =       0.0000000000000000
    Empirical Dispersion Energy =           0.0000000000000000
    PCM Polarization Energy =               0.0000000000000000
    EFP Energy =                            0.0000000000000000
    Total Energy =                       -270.0159366829343526

  Mulliken Charges: (a.u.)
   Center  Symbol    Alpha    Beta     Spin     Total
       1     H     0.43169  0.43169  0.00000  0.13661
       2     C     2.83276  2.83276  0.00000  0.33448
       3     C     3.20825  3.20825  0.00000 -0.41651
       4     O     4.23738  4.23738  0.00000 -0.47477
       5     C     3.16510  3.16510  0.00000 -0.33020
       6     H     0.39734  0.39734  0.00000  0.20533
       7     H     0.40760  0.40760  0.00000  0.18480
       8     C     3.15451  3.15451  0.00000 -0.30903
       9     H     0.41024  0.41024  0.00000  0.17952
      10     H     0.41765  0.41765  0.00000  0.16469
      11     C     3.24095  3.24095  0.00000 -0.48190
      12     H     0.41866  0.41866  0.00000  0.16268
      13     H     0.42156  0.42156  0.00000  0.15688
      14     H     0.41943  0.41943  0.00000  0.16113
      15     H     0.41666  0.41666  0.00000  0.16668
      16     H     0.42020  0.42020  0.00000  0.15961

   Total alpha = 24.00000, Total beta = 24.00000, Total charge =  0.00000
