  ==> Input File <==

--------------------------------------------------------------------------
set {
	reference rhf
	basis cc-pvtz
}

set_num_threads( 4 )
memory 2 gb

molecule MOL {
0 1

H	 3.119861	 0.359155	 0.853919
N	 2.260772	 -0.148266	 0.862824
C	 1.263552	 0.494993	 0.021953
H	 1.953172	 -0.190076	 1.812019
C	 -0.016533	 -0.325589	 -0.026925
H	 1.675445	 0.574848	 -0.978528
H	 1.026956	 1.509779	 0.344780
C	 -1.280353	 0.525521	 0.047747
H	 -0.016686	 -0.912532	 -0.939714
H	 -0.014099	 -1.037598	 0.796369
C	 -2.560681	 -0.301323	 -0.007747
H	 -1.279957	 1.241025	 -0.770189
H	 -1.270445	 1.110526	 0.963468
H	 -2.617064	 -0.872870	 -0.928010
H	 -3.439525	 0.331102	 0.043462
H	 -2.609427	 -1.002736	 0.818585

	symmetry c1
}
set optking {
	frozen_dihedral = ("
		6 3 5 9
	")
}

ee = optimize('scf')
oeprop('DIPOLE', 'QUADRUPOLE', 'MULLIKEN_CHARGES')
f=open( 'psi4out.xyz', 'w' )
f.write( "16  " )
f.write( str(ee) + "\n" )
f.write( MOL.save_string_xyz() )
f.close()
--------------------------------------------------------------------------

    Molecular point group: c1
  Charge       = 0
  Multiplicity = 1
  Basis Set: CC-PVTZ
  Basis Set:
  @DF-RHF Final Energy:  -212.39520917380213
    Total Energy =                       -212.3952091738020158
    Molecular point group: c1
  Basis Set: CC-PVTZ
  Basis Set:
  Basis Set: CC-PVTZ
  Basis Set:
  @DF-RHF Final Energy:  -212.39555724033278
    Total Energy =                       -212.3955572403328915
  Basis Set: CC-PVTZ
  Basis Set:
  Basis Set: CC-PVTZ
  Basis Set:
  @DF-RHF Final Energy:  -212.39564899021283
    Total Energy =                       -212.3956489902128624
  Basis Set: CC-PVTZ
  Basis Set:
  Basis Set: CC-PVTZ
  Basis Set:
  @DF-RHF Final Energy:  -212.39565065975981
    Total Energy =                       -212.3956506597596672
  Basis Set: CC-PVTZ
  Basis Set:
  Charge       = 0
  Multiplicity = 1
  Basis Set: CC-PVTZ
  Basis Set:

    Orbital Energies (a.u.)
    -----------------------

    Doubly Occupied:

       1A    -15.526334     2A    -11.238372     3A    -11.213046
       4A    -11.208075     5A    -11.205834     6A     -1.177003
       7A     -1.059964     8A     -0.958015     9A     -0.845765
      10A     -0.791503    11A     -0.669486    12A     -0.625764
      13A     -0.616024    14A     -0.576406    15A     -0.557718
      16A     -0.530213    17A     -0.504769    18A     -0.471777
      19A     -0.465742    20A     -0.455879    21A     -0.383130

  @DF-RHF Final Energy:  -212.39565095587821

   => Energetics <=

    Nuclear Repulsion Energy =            186.5490930651554038
    One-Electron Energy =                -655.7278464118471675
    Two-Electron Energy =                 256.7831023908134398
    DFT Exchange-Correlation Energy =       0.0000000000000000
    Empirical Dispersion Energy =           0.0000000000000000
    PCM Polarization Energy =               0.0000000000000000
    EFP Energy =                            0.0000000000000000
    Total Energy =                       -212.3956509558783523
    Molecular point group: c1
  Basis Set: CC-PVTZ
  Basis Set:

  -Total Gradient:
     Atom            X                  Y                   Z
    ------   -----------------  -----------------  -----------------
       1        0.000014375921    -0.000011541617     0.000012674750
       2       -0.000003138062     0.000033013292    -0.000024497380
       3       -0.003170694448     0.004921015933    -0.001223205341
       4       -0.000008042048     0.000012291374    -0.000028938061
       5        0.002892116520    -0.004565556449     0.002544494085
       6        0.002201133939    -0.003433243537     0.000632512478
       7       -0.000008288099    -0.000035377522     0.000002658049
       8        0.000011825020    -0.000006267302     0.000049204185
       9       -0.001900359973     0.003058872497    -0.001962117404
      10        0.000000088105     0.000029105704     0.000008095566
      11       -0.000017222706     0.000003265301    -0.000008135656
      12        0.000018652913    -0.000000466728     0.000001805212
      13       -0.000016835713    -0.000000076845     0.000003714743
      14       -0.000000787253    -0.000006119660     0.000001517445
      15       -0.000011832854    -0.000005780471    -0.000006891237
      16       -0.000000991262     0.000006866030    -0.000002891434

  **** Optimization is complete! (in 5 steps) ****
    Final optimized geometry and variables:
    Molecular point group: c1

    Geometry (in Angstrom), charge = 0, multiplicity = 1:

    H            3.192719477151     0.298810090411     0.595918472688
    N            2.330452696692    -0.202079315982     0.638838551806
    C            1.303775497154     0.453685024013    -0.161341656618
    H            2.061124901632    -0.243021034155     1.599709598719
    C            0.015021575127    -0.379456791863    -0.188641089684
    H            1.706217974310     0.533256192387    -1.164016594977
    H            1.083076587365     1.462329213004     0.184953454104
    C           -1.253125306022     0.471681601538    -0.148159635574
    H           -0.009874553536    -0.977569889524    -1.093433166088
    H            0.015605585269    -1.069377280369     0.648382719007
    C           -2.531163159451    -0.355565959704    -0.231500001148
    H           -1.233713980340     1.186156555404    -0.967307332903
    H           -1.262867334780     1.059955530249     0.765739549528
    H           -2.569891260261    -0.924113159584    -1.154677631810
    H           -3.411818883480     0.275454872582    -0.194714607457
    H           -2.594520925086    -1.060512190691     0.590925790513

  Mulliken Charges: (a.u.)
   Center  Symbol    Alpha    Beta     Spin     Total
       1     H     0.42961  0.42961  0.00000  0.14079
       2     N     3.68996  3.68996  0.00000 -0.37992
       3     C     3.03216  3.03216  0.00000 -0.06432
       4     H     0.43087  0.43087  0.00000  0.13825
       5     C     3.08329  3.08329  0.00000 -0.16658
       6     H     0.45572  0.45572  0.00000  0.08856
       7     H     0.46533  0.46533  0.00000  0.06934
       8     C     3.08750  3.08750  0.00000 -0.17500
       9     H     0.45297  0.45297  0.00000  0.09406
      10     H     0.45233  0.45233  0.00000  0.09534
      11     C     3.15012  3.15012  0.00000 -0.30023
      12     H     0.45497  0.45497  0.00000  0.09007
      13     H     0.45650  0.45650  0.00000  0.08699
      14     H     0.45475  0.45475  0.00000  0.09049
      15     H     0.44885  0.44885  0.00000  0.10230
      16     H     0.45507  0.45507  0.00000  0.08986

   Total alpha = 21.00000, Total beta = 21.00000, Total charge = -0.00000
