  ==> Input File <==

--------------------------------------------------------------------------
set {
	reference rhf
	basis 6-31G*
}

set_num_threads( 4 )
memory 2 gb

molecule MOL {
0 1

O	 1.847616	 1.294817	 -0.053760
C	 1.705091	 0.115954	 0.001797
C	 0.381791	 -0.609817	 0.001258
O	 2.720448	 -0.735899	 0.069114
C	 -0.823008	 0.326187	 0.001381
H	 0.371250	 -1.265087	 -0.865474
H	 0.370908	 -1.265746	 0.867490
C	 -2.149452	 -0.435131	 -0.000098
H	 -0.770201	 0.977095	 -0.865636
H	 -0.771220	 0.975655	 0.869608
C	 -3.368779	 0.488503	 -0.000883
H	 -2.193746	 -1.087250	 -0.871175
H	 -2.195311	 -1.087803	 0.870418
C	 -4.693822	 -0.272754	 -0.001129
H	 -3.325798	 1.139422	 -0.871284
H	 -3.326423	 1.139959	 0.869145
H	 -4.781274	 -0.907928	 -0.878124
H	 -5.538651	 0.408946	 -0.001420
H	 -4.781694	 -0.907783	 0.875984
C	 4.023940	 -0.182886	 0.075345
H	 4.202171	 0.380240	 -0.829448
H	 4.700060	 -1.021571	 0.133178
H	 4.157650	 0.465509	 0.929284

	symmetry c1
}
set optking {
	frozen_dihedral = ("
		1 2 3 6
	")
}

ee = optimize('scf')
oeprop('DIPOLE', 'QUADRUPOLE', 'MULLIKEN_CHARGES')
f=open( 'psi4out.xyz', 'w' )
f.write( "23  " )
f.write( str(ee) + "\n" )
f.write( MOL.save_string_xyz() )
f.close()
--------------------------------------------------------------------------

    Molecular point group: c1
  Charge       = 0
  Multiplicity = 1
  Basis Set: 6-31G*
  Basis Set:
  @DF-RHF Final Energy:  -422.97630300207464
    Total Energy =                       -422.9763030020743599
    Molecular point group: c1
  Basis Set: 6-31G*
  Basis Set:
  Basis Set: 6-31G*
  Basis Set:
  @DF-RHF Final Energy:  -422.97630272330116
    Total Energy =                       -422.9763027233011599
  Basis Set: 6-31G*
  Basis Set:
  Basis Set: 6-31G*
  Basis Set:
  @DF-RHF Final Energy:  -422.97629452576240
    Total Energy =                       -422.9762945257623414
  Basis Set: 6-31G*
  Basis Set:
  Basis Set: 6-31G*
  Basis Set:
  @DF-RHF Final Energy:  -422.97630643092555
    Total Energy =                       -422.9763064309261154
  Basis Set: 6-31G*
  Basis Set:
  Charge       = 0
  Multiplicity = 1
  Basis Set: 6-31G*
  Basis Set:

    Orbital Energies (a.u.)
    -----------------------

    Doubly Occupied:

       1A    -20.603650     2A    -20.545424     3A    -11.372263
       4A    -11.280852     5A    -11.235546     6A    -11.219295
       7A    -11.217894     8A    -11.216475     9A    -11.209651
      10A     -1.469334    11A     -1.362774    12A     -1.093218
      13A     -1.043658    14A     -0.987042    15A     -0.932109
      16A     -0.843554    17A     -0.795078    18A     -0.767296
      19A     -0.696845    20A     -0.683872    21A     -0.671502
      22A     -0.651795    23A     -0.609297    24A     -0.599398
      25A     -0.572762    26A     -0.558482    27A     -0.556825
      28A     -0.523807    29A     -0.521158    30A     -0.507723
      31A     -0.484422    32A     -0.469785    33A     -0.466290
      34A     -0.461305    35A     -0.455639    36A     -0.435464

  @DF-RHF Final Energy:  -422.97630646408783

   => Energetics <=

    Nuclear Repulsion Energy =            452.1243370633083600
    One-Electron Energy =               -1471.9583200972988379
    Two-Electron Energy =                 596.8576765699027646
    DFT Exchange-Correlation Energy =       0.0000000000000000
    Empirical Dispersion Energy =           0.0000000000000000
    PCM Polarization Energy =               0.0000000000000000
    EFP Energy =                            0.0000000000000000
    Total Energy =                       -422.9763064640877701
    Molecular point group: c1
  Basis Set: 6-31G*
  Basis Set:

  -Total Gradient:
     Atom            X                  Y                   Z
    ------   -----------------  -----------------  -----------------
       1        0.000003276097    -0.000006956712    -0.000130099882
       2       -0.000015894310     0.000030736529     0.000176910149
       3        0.000063459946    -0.000114798747     0.000008523671
       4        0.000000646167    -0.000000571822     0.000012620772
       5        0.000000306085     0.000000953684     0.000003165844
       6       -0.000050469582     0.000088347583    -0.000068432608
       7        0.000000949869     0.000003343956    -0.000000434654
       8        0.000000067547    -0.000000396286    -0.000000933731
       9        0.000001974558    -0.000000666698    -0.000000785805
      10       -0.000002571839     0.000000567377    -0.000001778998
      11       -0.000000190004    -0.000000074063     0.000012899469
      12       -0.000002498122    -0.000003705271     0.000001220119
      13        0.000002326682     0.000003508405     0.000000899878
      14        0.000000396609    -0.000000448431    -0.000010204261
      15        0.000001164042     0.000001728981     0.000002854842
      16       -0.000001265836    -0.000001414879     0.000003265565
      17       -0.000000521686    -0.000003452099     0.000001065271
      18       -0.000000069017     0.000000334434    -0.000003693498
      19        0.000000727357     0.000003612237     0.000000956182
      20       -0.000001381000    -0.000001736073    -0.000018373570
      21        0.000004357967     0.000000539969     0.000003605401
      22       -0.000000476739     0.000000480502     0.000003321886
      23       -0.000004314802     0.000000067421     0.000003427956

  **** Optimization is complete! (in 5 steps) ****
    Final optimized geometry and variables:
    Molecular point group: c1

    Geometry (in Angstrom), charge = 0, multiplicity = 1:

    O            1.847165107439     1.294616059326    -0.059883262886
    C            1.705139176306     0.115714587942    -0.004193640465
    C            0.381911838802    -0.610260242611    -0.002023773333
    O            2.720867234102    -0.735995086566     0.058926513348
    C           -0.822889034690     0.325857204651    -0.006225661643
    H            0.372374595630    -1.264638511484    -0.869835656520
    H            0.369561759115    -1.266366954816     0.863604001602
    C           -2.149353771139    -0.435406011803    -0.010304195653
    H           -0.767292124031     0.975966013792    -0.873516594408
    H           -0.773756628427     0.976109571598     0.861812776037
    C           -3.368594735305     0.488301243066    -0.013789692546
    H           -2.191754418207    -1.087442575026    -0.881531166853
    H           -2.197193005016    -1.088141805402     0.860092713934
    C           -4.693695724478    -0.272862334080    -0.020023612702
    H           -3.322468720060     1.140638781773    -0.882924272321
    H           -3.329332568536     1.138293174453     0.857459826902
    H           -4.777755994988    -0.907180116275    -0.898011274336
    H           -5.538484249745     0.408843917094    -0.022940358502
    H           -4.785088569863    -0.908782026811     0.856073247568
    C            4.024410851545    -0.183007740536     0.054933978756
    H            4.196815534507     0.377464995141    -0.852635305293
    H            4.700889513006    -1.021592440438     0.110766835622
    H            4.163664421955     0.467804656373     0.906137154811

  Mulliken Charges: (a.u.)
   Center  Symbol    Alpha    Beta     Spin     Total
       1     O     4.28608  4.28608  0.00000 -0.57216
       2     C     2.60484  2.60484  0.00000  0.79032
       3     C     3.20822  3.20822  0.00000 -0.41644
       4     O     4.30740  4.30740  0.00000 -0.61480
       5     C     3.15248  3.15248  0.00000 -0.30496
       6     H     0.40056  0.40056  0.00000  0.19888
       7     H     0.40071  0.40071  0.00000  0.19858
       8     C     3.15332  3.15332  0.00000 -0.30663
       9     H     0.41099  0.41099  0.00000  0.17801
      10     H     0.41243  0.41243  0.00000  0.17513
      11     C     3.15155  3.15155  0.00000 -0.30310
      12     H     0.42401  0.42401  0.00000  0.15197
      13     H     0.42402  0.42402  0.00000  0.15195
      14     C     3.23958  3.23958  0.00000 -0.47917
      15     H     0.42127  0.42127  0.00000  0.15746
      16     H     0.42138  0.42138  0.00000  0.15723
      17     H     0.42181  0.42181  0.00000  0.15638
      18     H     0.41847  0.41847  0.00000  0.16306
      19     H     0.42183  0.42183  0.00000  0.15634
      20     C     3.09246  3.09246  0.00000 -0.18492
      21     H     0.40913  0.40913  0.00000  0.18174
      22     H     0.40843  0.40843  0.00000  0.18315
      23     H     0.40901  0.40901  0.00000  0.18197

   Total alpha = 36.00000, Total beta = 36.00000, Total charge =  0.00000
