  ==> Input File <==

--------------------------------------------------------------------------
set {
	reference rhf
	basis 6-31G*
}

set_num_threads( 4 )
memory 2 gb

molecule MOL {
0 1

H	 -3.205930	 0.047080	 -0.279154
C	 -2.902992	 1.055738	 -0.552977
O	 -1.542796	 1.118908	 -0.837958
H	 -3.437211	 1.351567	 -1.445298
H	 -3.174091	 1.729681	 0.258648
C	 -0.719715	 0.768384	 0.229244
C	 0.719720	 0.768376	 -0.229267
H	 -0.835651	 1.481611	 1.046289
H	 -0.975613	 -0.219342	 0.607287
O	 1.392611	 -0.295398	 0.366430
H	 0.750534	 0.687200	 -1.313918
H	 1.185043	 1.714359	 0.050526
C	 2.706965	 -0.449871	 -0.062409
H	 2.756559	 -0.644779	 -1.131878
H	 3.305899	 0.433456	 0.155466
H	 3.125548	 -1.294566	 0.467107

	symmetry c1
}
set optking {
	frozen_dihedral = ("
		3 6 7 11
	")
}

ee = optimize('scf')
oeprop('DIPOLE', 'QUADRUPOLE', 'MULLIKEN_CHARGES')
f=open( 'psi4out.xyz', 'w' )
f.write( "16  " )
f.write( str(ee) + "\n" )
f.write( MOL.save_string_xyz() )
f.close()
--------------------------------------------------------------------------

    Molecular point group: c1
  Charge       = 0
  Multiplicity = 1
  Basis Set: 6-31G*
  Basis Set:
  @DF-RHF Final Energy:  -306.97501868813282
    Total Energy =                       -306.9750186881329910
    Molecular point group: c1
  Basis Set: 6-31G*
  Basis Set:
  Basis Set: 6-31G*
  Basis Set:
  @DF-RHF Final Energy:  -306.97574576982515
    Total Energy =                       -306.9757457698250391
  Basis Set: 6-31G*
  Basis Set:
  Basis Set: 6-31G*
  Basis Set:
  @DF-RHF Final Energy:  -306.97578639333176
    Total Energy =                       -306.9757863933317026
  Basis Set: 6-31G*
  Basis Set:
  Charge       = 0
  Multiplicity = 1
  Basis Set: 6-31G*
  Basis Set:

    Orbital Energies (a.u.)
    -----------------------

    Doubly Occupied:

       1A    -20.558425     2A    -20.557661     3A    -11.267423
       4A    -11.266804     5A    -11.266494     6A    -11.266168
       7A     -1.388198     8A     -1.376626     9A     -1.028130
      10A     -0.940622    11A     -0.884603    12A     -0.831720
      13A     -0.688299    14A     -0.675703    15A     -0.658124
      16A     -0.645511    17A     -0.624126    18A     -0.599721
      19A     -0.565584    20A     -0.522234    21A     -0.508227
      22A     -0.482243    23A     -0.466374    24A     -0.419352
      25A     -0.413992

  @DF-RHF Final Energy:  -306.97579112628983

   => Energetics <=

    Nuclear Repulsion Energy =            254.7576268439085538
    One-Electron Energy =                -923.6621065615173620
    Two-Electron Energy =                 361.9286885913190872
    DFT Exchange-Correlation Energy =       0.0000000000000000
    Empirical Dispersion Energy =           0.0000000000000000
    PCM Polarization Energy =               0.0000000000000000
    EFP Energy =                            0.0000000000000000
    Total Energy =                       -306.9757911262897778
    Molecular point group: c1
  Basis Set: 6-31G*
  Basis Set:

  -Total Gradient:
     Atom            X                  Y                   Z
    ------   -----------------  -----------------  -----------------
       1       -0.000014715972     0.000008740011     0.000003197413
       2       -0.000033964162    -0.000017959688    -0.000034861857
       3       -0.000243804590    -0.003167857598    -0.000724186642
       4       -0.000014230833     0.000006257426     0.000008884425
       5       -0.000002837473     0.000007708817    -0.000000242234
       6        0.000273268085     0.005096784428     0.000859454656
       7        0.000024679361    -0.006032457688     0.000121581962
       8        0.000001544894     0.000015064957    -0.000011164067
       9        0.000025816685    -0.000013905085    -0.000003541288
      10        0.000083359658    -0.000016403313     0.000003750646
      11       -0.000154177385     0.004185322213    -0.000269341821
      12        0.000010439178    -0.000041309311     0.000031333495
      13       -0.000031210153    -0.000033478733     0.000016468310
      14        0.000017020081     0.000000641932     0.000001748947
      15        0.000020995073     0.000005645811     0.000001492311
      16        0.000037817550    -0.000002794181    -0.000004574256

  **** Optimization is complete! (in 4 steps) ****
    Final optimized geometry and variables:
    Molecular point group: c1

    Geometry (in Angstrom), charge = 0, multiplicity = 1:

    H           -3.216280196303    -0.323140183181     0.026292982656
    C           -2.855151908233     0.640252618976    -0.328632017122
    O           -1.504030712242     0.586359991867    -0.658711246727
    H           -3.399468756921     0.910939863146    -1.222903572278
    H           -3.048789077413     1.385490698543     0.440782531444
    C           -0.670830108500     0.233292746078     0.404717138259
    C            0.771017780464     0.244744239486    -0.087553382324
    H           -0.808478135443     0.916190288472     1.240687433116
    H           -0.906141141585    -0.769547765119     0.752432896661
    O            1.457187310919    -0.811505708470     0.510720222883
    H            0.770090090844     0.168579457649    -1.171771320028
    H            1.253784892812     1.189399001406     0.160298226652
    C            2.804806821605    -0.880993155438     0.168601394225
    H            2.936448706025    -1.013650947169    -0.903439702772
    H            3.340120567039     0.016481551333     0.473265789968
    H            3.228684698607    -1.732964225059     0.682122381804

  Mulliken Charges: (a.u.)
   Center  Symbol    Alpha    Beta     Spin     Total
       1     H     0.42826  0.42826  0.00000  0.14348
       2     C     3.08017  3.08017  0.00000 -0.16034
       3     O     4.30891  4.30891  0.00000 -0.61782
       4     H     0.41159  0.41159  0.00000  0.17682
       5     H     0.42959  0.42959  0.00000  0.14082
       6     C     2.99804  2.99804  0.00000  0.00393
       7     C     2.99826  2.99826  0.00000  0.00348
       8     H     0.42774  0.42774  0.00000  0.14452
       9     H     0.41584  0.41584  0.00000  0.16832
      10     O     4.30804  4.30804  0.00000 -0.61607
      11     H     0.41523  0.41523  0.00000  0.16953
      12     H     0.42918  0.42918  0.00000  0.14164
      13     C     3.08033  3.08033  0.00000 -0.16067
      14     H     0.42791  0.42791  0.00000  0.14419
      15     H     0.42942  0.42942  0.00000  0.14116
      16     H     0.41148  0.41148  0.00000  0.17704

   Total alpha = 25.00000, Total beta = 25.00000, Total charge =  0.00000
