  ==> Input File <==

--------------------------------------------------------------------------
set {
	reference rhf
	basis cc-pvtz
}

set_num_threads( 4 )
memory 2 gb

molecule MOL {
0 1

H	 2.769501	 0.620314	 0.565490
N	 2.326826	 -0.066186	 0.000000
C	 0.934676	 -0.005420	 0.000000
H	 2.737707	 -0.108086	 -0.903573
C	 0.226436	 -0.001077	 -1.195129
C	 0.226436	 -0.001077	 1.195129
H	 0.759091	 -0.011439	 -2.128123
C	 -1.153391	 0.009141	 -1.189028
H	 0.759091	 -0.011439	 2.128123
C	 -1.153391	 0.009141	 1.189028
H	 -1.680905	 0.012964	 -2.124348
C	 -1.857876	 0.014675	 0.000000
H	 -1.680905	 0.012964	 2.124348
H	 -2.930222	 0.022904	 0.000000

	symmetry c1
}
set optking {
	frozen_dihedral = ("
		1 2 3 5
	")
}

ee = optimize('scf')
oeprop('DIPOLE', 'QUADRUPOLE', 'MULLIKEN_CHARGES')
f=open( 'psi4out.xyz', 'w' )
f.write( "14  " )
f.write( str(ee) + "\n" )
f.write( MOL.save_string_xyz() )
f.close()
--------------------------------------------------------------------------

    Molecular point group: c1
  Charge       = 0
  Multiplicity = 1
  Basis Set: CC-PVTZ
  Basis Set:
  @DF-RHF Final Energy:  -285.83205334614786
    Total Energy =                       -285.8320533461475179
    Molecular point group: c1
  Basis Set: CC-PVTZ
  Basis Set:
  Basis Set: CC-PVTZ
  Basis Set:
  @DF-RHF Final Energy:  -285.83243631562806
    Total Energy =                       -285.8324363156282288
  Basis Set: CC-PVTZ
  Basis Set:
  Basis Set: CC-PVTZ
  Basis Set:
  @DF-RHF Final Energy:  -285.83251975950731
    Total Energy =                       -285.8325197595076474
  Basis Set: CC-PVTZ
  Basis Set:
  Basis Set: CC-PVTZ
  Basis Set:
  @DF-RHF Final Energy:  -285.83252590258002
    Total Energy =                       -285.8325259025800165
  Basis Set: CC-PVTZ
  Basis Set:
  Charge       = 0
  Multiplicity = 1
  Basis Set: CC-PVTZ
  Basis Set:

    Orbital Energies (a.u.)
    -----------------------

    Doubly Occupied:

       1A    -15.554152     2A    -11.268877     3A    -11.227909
       4A    -11.227526     5A    -11.218186     6A    -11.216514
       7A    -11.214184     8A     -1.224142     9A     -1.131510
      10A     -1.014479    11A     -0.988838    12A     -0.832917
      13A     -0.812964    14A     -0.707508    15A     -0.682759
      16A     -0.653507    17A     -0.604475    18A     -0.594938
      19A     -0.583277    20A     -0.527991    21A     -0.506466
      22A     -0.489225    23A     -0.446072    24A     -0.336726
      25A     -0.300865

  @DF-RHF Final Energy:  -285.83252636804713

   => Energetics <=

    Nuclear Repulsion Energy =            273.5858922816900645
    One-Electron Energy =                -928.1048171913947726
    Two-Electron Energy =                 368.6863985416574678
    DFT Exchange-Correlation Energy =       0.0000000000000000
    Empirical Dispersion Energy =           0.0000000000000000
    PCM Polarization Energy =               0.0000000000000000
    EFP Energy =                            0.0000000000000000
    Total Energy =                       -285.8325263680472972
    Molecular point group: c1
  Basis Set: CC-PVTZ
  Basis Set:

  -Total Gradient:
     Atom            X                  Y                   Z
    ------   -----------------  -----------------  -----------------
       1        0.000125400724     0.001772975140    -0.002085041697
       2       -0.000107683107    -0.001173066606     0.002689148049
       3       -0.000134665379    -0.002725449150    -0.000424040460
       4        0.000020685933     0.000010323652    -0.000036305804
       5       -0.000025211166     0.002134164138    -0.000076245550
       6        0.000094901314    -0.000001858570    -0.000060197094
       7        0.000002803983    -0.000003580637     0.000001016572
       8        0.000104163782    -0.000045483437    -0.000054445514
       9        0.000004414228     0.000012552823     0.000014539286
      10       -0.000090093892    -0.000032790398    -0.000063051070
      11       -0.000007815818     0.000010155283     0.000003206614
      12       -0.000000494548     0.000040272393     0.000108321797
      13        0.000014981675    -0.000002262627    -0.000000178758
      14       -0.000001387729     0.000004047996    -0.000016726372

  **** Optimization is complete! (in 5 steps) ****
    Final optimized geometry and variables:
    Molecular point group: c1

    Geometry (in Angstrom), charge = 0, multiplicity = 1:

    H            2.744404146012     0.615586049158     0.599968388877
    N            2.334233030673    -0.077553105906     0.014193072159
    C            0.932127499994    -0.023582250743    -0.003968312464
    H            2.734143239518    -0.014189846077    -0.894832749242
    C            0.222277265541    -0.009761694669    -1.194906461179
    C            0.228957522066    -0.002765172618     1.194178203120
    H            0.751045358094    -0.016116771080    -2.130305186265
    C           -1.159886511302     0.006425495152    -1.186191530766
    H            0.769117372247    -0.024975523526     2.122028623321
    C           -1.149273384945     0.031623611742     1.193605117689
    H           -1.690871058356     0.010374544712    -2.119450774565
    C           -1.857160463531     0.032146582120     0.004595187264
    H           -1.674790304963     0.049200800685     2.129784642192
    H           -2.929495089311     0.051807802864     0.008538383400

  Mulliken Charges: (a.u.)
   Center  Symbol    Alpha    Beta     Spin     Total
       1     H     0.41963  0.41963  0.00000  0.16073
       2     N     3.67540  3.67540  0.00000 -0.35080
       3     C     2.88717  2.88717  0.00000  0.22567
       4     H     0.42672  0.42672  0.00000  0.14655
       5     C     3.11824  3.11824  0.00000 -0.23648
       6     C     3.11510  3.11510  0.00000 -0.23020
       7     H     0.43432  0.43432  0.00000  0.13136
       8     C     3.06131  3.06131  0.00000 -0.12261
       9     H     0.42821  0.42821  0.00000  0.14358
      10     C     3.05977  3.05977  0.00000 -0.11955
      11     H     0.42447  0.42447  0.00000  0.15106
      12     C     3.10038  3.10038  0.00000 -0.20076
      13     H     0.42434  0.42434  0.00000  0.15132
      14     H     0.42493  0.42493  0.00000  0.15014

   Total alpha = 25.00000, Total beta = 25.00000, Total charge = -0.00000
