  ==> Input File <==

--------------------------------------------------------------------------
set {
	reference rhf
	basis 6-31G*
}

set_num_threads( 1 )
memory 2 gb

molecule MOL {
0 1

H	 -2.200614	 0.731512	 -1.953781
C	 -1.596068	 -0.146326	 -1.734541
O	 -1.392607	 -0.295399	 -0.366433
H	 -2.117340	 -1.026623	 -2.084535
H	 -0.653121	 -0.059009	 -2.272737
C	 -0.719715	 0.768384	 0.229244
C	 0.719720	 0.768376	 -0.229267
H	 -1.185038	 1.714362	 -0.050570
H	 -0.750528	 0.687237	 1.313896
O	 1.392611	 -0.295398	 0.366430
H	 0.750534	 0.687200	 -1.313918
H	 1.185043	 1.714359	 0.050526
C	 2.706965	 -0.449871	 -0.062409
H	 2.756559	 -0.644779	 -1.131878
H	 3.305899	 0.433456	 0.155466
H	 3.125548	 -1.294566	 0.467107

	symmetry c1
}
set optking {
	frozen_dihedral = ("
		3 6 7 11,
		7 10 13 14
	")
}

ee = energy('scf')
oeprop('DIPOLE', 'QUADRUPOLE', 'MULLIKEN_CHARGES')
f=open( 'psi4out.xyz', 'w' )
f.write( "16  " )
f.write( str(ee) + "\n" )
f.write( MOL.save_string_xyz() )
f.close()
--------------------------------------------------------------------------

    Molecular point group: c1

    Geometry (in Angstrom), charge = 0, multiplicity = 1:

       Center              X                  Y                   Z               Mass
    ------------   -----------------  -----------------  -----------------  -----------------
           H         -2.395808876720     0.678183587911    -1.638047410917     1.007825032070
           C         -1.791262876720    -0.199654412089    -1.418807410917    12.000000000000
           O         -1.587801876720    -0.348727412089    -0.050699410917    15.994914619560
           H         -2.312534876720    -1.079951412089    -1.768801410917     1.007825032070
           H         -0.848315876720    -0.112337412089    -1.957003410917     1.007825032070
           C         -0.914909876720     0.715055587911     0.544977589083    12.000000000000
           C          0.524525123280     0.715047587911     0.086466589083    12.000000000000
           H         -1.380232876720     1.661033587911     0.265163589083     1.007825032070
           H         -0.945722876720     0.633908587911     1.629629589083     1.007825032070
           O          1.197416123280    -0.348726412089     0.682163589083    15.994914619560
           H          0.555339123280     0.633871587911    -0.998184410917     1.007825032070
           H          0.989848123280     1.661030587911     0.366259589083     1.007825032070
           C          2.511770123280    -0.503199412089     0.253324589083    12.000000000000
           H          2.561364123280    -0.698107412089    -0.816144410917     1.007825032070
           H          3.110704123280     0.380127587911     0.471199589083     1.007825032070
           H          2.930353123280    -1.347894412089     0.782840589083     1.007825032070

  Charge       = 0
  Multiplicity = 1
  Basis Set: 6-31G*
  Basis Set:

    Orbital Energies (a.u.)
    -----------------------

    Doubly Occupied:

       1A    -20.555958     2A    -20.554033     3A    -11.269828
       4A    -11.267944     5A    -11.265965     6A    -11.265294
       7A     -1.391432     8A     -1.371886     9A     -1.027737
      10A     -0.945379    11A     -0.901071    12A     -0.816332
      13A     -0.696658    14A     -0.680622    15A     -0.657681
      16A     -0.636902    17A     -0.627890    18A     -0.600760
      19A     -0.549595    20A     -0.532857    21A     -0.522224
      22A     -0.489374    23A     -0.459498    24A     -0.418768
      25A     -0.408245

  @DF-RHF Final Energy:  -306.97001647191894

   => Energetics <=

    Nuclear Repulsion Energy =            264.0175703883797951
    One-Electron Energy =                -942.1473750379923331
    Two-Electron Energy =                 371.1597881776934855
    DFT Exchange-Correlation Energy =       0.0000000000000000
    Empirical Dispersion Energy =           0.0000000000000000
    PCM Polarization Energy =               0.0000000000000000
    EFP Energy =                            0.0000000000000000
    Total Energy =                       -306.9700164719190525

  Mulliken Charges: (a.u.)
   Center  Symbol    Alpha    Beta     Spin     Total
       1     H     0.43052  0.43052  0.00000  0.13897
       2     C     3.08407  3.08407  0.00000 -0.16814
       3     O     4.29704  4.29704  0.00000 -0.59408
       4     H     0.40905  0.40905  0.00000  0.18190
       5     H     0.42999  0.42999  0.00000  0.14002
       6     C     3.00201  3.00201  0.00000 -0.00401
       7     C     2.99935  2.99935  0.00000  0.00130
       8     H     0.43115  0.43115  0.00000  0.13770
       9     H     0.40407  0.40407  0.00000  0.19185
      10     O     4.29945  4.29945  0.00000 -0.59891
      11     H     0.42977  0.42977  0.00000  0.14046
      12     H     0.43270  0.43270  0.00000  0.13460
      13     C     3.07904  3.07904  0.00000 -0.15808
      14     H     0.43025  0.43025  0.00000  0.13951
      15     H     0.43107  0.43107  0.00000  0.13785
      16     H     0.41047  0.41047  0.00000  0.17907

   Total alpha = 25.00000, Total beta = 25.00000, Total charge =  0.00000
