                              Psi4 1.0.54 Driver

  ==> Input File <==

--------------------------------------------------------------------------
set {
	reference rhf
	basis cc-pvtz
}

set_num_threads( 4 )
memory 2 gb

molecule MOL {
0 1

O	 1.847685	 1.294399	 -0.000190
C	 1.704209	 0.119472	 -0.000093
C	 0.380337	 -0.600947	 -0.000234
O	 2.715427	 -0.733672	 0.000025
C	 -0.824290	 0.329213	 -0.000115
H	 0.371455	 -1.255476	 -0.865660
H	 0.371410	 -1.255787	 0.864952
C	 -1.625753	 0.241296	 -1.295471
H	 -0.488954	 1.348100	 0.157021
H	 -1.460984	 0.089132	 0.843847
C	 -2.838650	 1.167045	 -1.313866
H	 -0.980830	 0.480754	 -2.138077
H	 -1.956328	 -0.783631	 -1.448709
C	 -3.639427	 1.079581	 -2.608670
H	 -2.509546	 2.191125	 -1.161858
H	 -3.484316	 0.927689	 -0.473637
H	 -3.029580	 1.347108	 -3.465263
H	 -4.491983	 1.748522	 -2.588666
H	 -4.012396	 0.073776	 -2.771407
C	 4.020999	 -0.192556	 0.000019
H	 4.182809	 0.412891	 -0.879449
H	 4.692590	 -1.035653	 0.000152
H	 4.182726	 0.413087	 0.879368

	symmetry c1
}
set optking {
	frozen_dihedral = ("
		9 5 3 6
	")
}

ee,wfn = optimize('scf', return_wfn=True)
oeprop( wfn, 'DIPOLE', 'QUADRUPOLE', 'MULLIKEN_CHARGES')
f=open( 'psi4out.xyz', 'w' )
f.write( "23  " )
f.write( str(ee) + "\n" )
f.write( MOL.save_string_xyz() )
f.close()
--------------------------------------------------------------------------

    Molecular point group: c1
  Charge       = 0
  Multiplicity = 1
  Basis Set: CC-PVTZ
  Basis Set:
  @DF-RHF Final Energy:  -423.12645324100708
    Total Energy =                       -423.1264532410068568
    Molecular point group: c1
  Basis Set: CC-PVTZ
  Basis Set:
  Basis Set: CC-PVTZ
  Basis Set:
  @DF-RHF Final Energy:  -423.12677672449814
    Total Energy =                       -423.1267767244974038
  Basis Set: CC-PVTZ
  Basis Set:
  Basis Set: CC-PVTZ
  Basis Set:
  @DF-RHF Final Energy:  -423.12668630781616
    Total Energy =                       -423.1266863078155893
  Basis Set: CC-PVTZ
  Basis Set:
  Basis Set: CC-PVTZ
  Basis Set:
  @DF-RHF Final Energy:  -423.12687220728623
    Total Energy =                       -423.1268722072858282
  Basis Set: CC-PVTZ
  Basis Set:
  Basis Set: CC-PVTZ
  Basis Set:
  @DF-RHF Final Energy:  -423.12687834874214
    Total Energy =                       -423.1268783487429346
  Basis Set: CC-PVTZ
  Basis Set:
  Basis Set: CC-PVTZ
  Basis Set:
  @DF-RHF Final Energy:  -423.12687968781086
    Total Energy =                       -423.1268796878101739
  Basis Set: CC-PVTZ
  Basis Set:
  Charge       = 0
  Multiplicity = 1
  Basis Set: CC-PVTZ
  Basis Set:

    Orbital Energies (a.u.)
    -----------------------

    Doubly Occupied:

       1A    -20.596670     2A    -20.535068     3A    -11.365454
       4A    -11.278798     5A    -11.233809     6A    -11.215455
       7A    -11.213806     8A    -11.212588     9A    -11.206203
      10A     -1.472944    11A     -1.366442    12A     -1.091780
      13A     -1.043238    14A     -0.987390    15A     -0.931712
      16A     -0.844389    17A     -0.794822    18A     -0.768761
      19A     -0.703683    20A     -0.684339    21A     -0.676156
      22A     -0.643577    23A     -0.612967    24A     -0.600682
      25A     -0.571140    26A     -0.558339    27A     -0.555886
      28A     -0.531389    29A     -0.524713    30A     -0.499870
      31A     -0.488661    32A     -0.467226    33A     -0.464299
      34A     -0.460909    35A     -0.454501    36A     -0.441740

  @DF-RHF Final Energy:  -423.12688059406065

   => Energetics <=

    Nuclear Repulsion Energy =            456.7782987633385687
    One-Electron Energy =               -1481.6115473519248553
    Two-Electron Energy =                 601.7063679945256354
    DFT Exchange-Correlation Energy =       0.0000000000000000
    Empirical Dispersion Energy =           0.0000000000000000
    PCM Polarization Energy =               0.0000000000000000
    EFP Energy =                            0.0000000000000000
    Total Energy =                       -423.1268805940605944
    Molecular point group: c1
  Basis Set: CC-PVTZ
  Basis Set:

  -Total Gradient:
     Atom            X                  Y                   Z
    ------   -----------------  -----------------  -----------------
       1        0.000013064175    -0.000019069617     0.000071507227
       2        0.000003235035     0.000038058597    -0.000021047734
       3       -0.001214396768    -0.001624912601     0.000770307188
       4        0.000024924180    -0.000008276511    -0.000066686199
       5        0.000016237830     0.000061884659     0.002033898783
       6        0.001007725181     0.001283089398    -0.000946355730
       7       -0.000021066842     0.000036512062     0.000027368761
       8       -0.000010851968     0.000000511281    -0.000001961839
       9        0.000187481920     0.000225130702    -0.001868447356
      10       -0.000001178952     0.000007380184    -0.000004538601
      11       -0.000001122311     0.000003969530    -0.000007963156
      12        0.000000106729    -0.000005797253    -0.000001166635
      13       -0.000002589577     0.000000505384     0.000004886798
      14       -0.000002488949     0.000003883249     0.000000407322
      15       -0.000000055781     0.000000057465     0.000004267279
      16       -0.000000455958    -0.000003075239    -0.000000782957
      17        0.000001979000    -0.000000335859    -0.000001807392
      18        0.000000958595     0.000000458045     0.000000704484
      19       -0.000001340449    -0.000002037628    -0.000000245182
      20       -0.000008404795    -0.000006813552     0.000009007202
      21        0.000002148159     0.000003553883    -0.000005640873
      22        0.000004339482    -0.000000819732     0.000000347154
      23        0.000001752067     0.000006143558     0.000003941459

  **** Optimization is complete! (in 7 steps) ****
    Final optimized geometry and variables:
    Molecular point group: c1

    Geometry (in Angstrom), charge = 0, multiplicity = 1:

    O            1.617114526900     0.999338538661     0.531460026952
    C            1.470157476210    -0.173613428651     0.591494829559
    C            0.148736140878    -0.905792211650     0.607151895071
    O            2.481097673733    -1.025366163798     0.645326461159
    C           -1.085136643349     0.005227007219     0.584827439151
    H            0.171169070418    -1.563058540001    -0.255481297664
    H            0.162269968197    -1.554284661748     1.474254704208
    C           -1.860873182927    -0.068434367435    -0.729341016180
    H           -0.770673234145     1.027050068751     0.745102260645
    H           -1.744274735962    -0.260547468835     1.403596719991
    C           -3.077737721133     0.850564828360    -0.759789251136
    H           -1.195555863767     0.190909022093    -1.549593542835
    H           -2.180476799277    -1.093092062871    -0.906512799954
    C           -3.850229284335     0.778541834166    -2.072710612993
    H           -2.756968265968     1.873560345108    -0.585549056693
    H           -3.740734531178     0.594945240962     0.062521838778
    H           -3.223263249905     1.062599791408    -2.911301208360
    H           -4.706786428180     1.442630726524    -2.061090191858
    H           -4.213940004911    -0.226660281549    -2.258905474826
    C            3.787108883191    -0.485700075499     0.627399240282
    H            3.957359783302     0.070885887367    -0.282263704757
    H            4.457779963637    -1.327967188382     0.679188950796
    H            3.941897632255     0.166657321239     1.473949823456

  Mulliken Charges: (a.u.)
   Center  Symbol    Alpha    Beta     Spin     Total
       1     O     4.19693  4.19693  0.00000 -0.39385
       2     C     2.80032  2.80032  0.00000  0.39935
       3     C     3.11391  3.11391  0.00000 -0.22782
       4     O     4.14694  4.14694  0.00000 -0.29388
       5     C     3.09825  3.09825  0.00000 -0.19649
       6     H     0.43877  0.43877  0.00000  0.12245
       7     H     0.43096  0.43096  0.00000  0.13808
       8     C     3.08814  3.08814  0.00000 -0.17629
       9     H     0.43715  0.43715  0.00000  0.12570
      10     H     0.44809  0.44809  0.00000  0.10382
      11     C     3.08601  3.08601  0.00000 -0.17202
      12     H     0.45280  0.45280  0.00000  0.09439
      13     H     0.45564  0.45564  0.00000  0.08873
      14     C     3.15000  3.15000  0.00000 -0.30000
      15     H     0.45137  0.45137  0.00000  0.09726
      16     H     0.45535  0.45535  0.00000  0.08930
      17     H     0.45453  0.45453  0.00000  0.09095
      18     H     0.44820  0.44820  0.00000  0.10359
      19     H     0.45592  0.45592  0.00000  0.08816
      20     C     3.03642  3.03642  0.00000 -0.07284
      21     H     0.45450  0.45450  0.00000  0.09101
      22     H     0.44554  0.44554  0.00000  0.10892
      23     H     0.45426  0.45426  0.00000  0.09148

   Total alpha = 36.00000, Total beta = 36.00000, Total charge = -0.00000

*** Psi4 exiting successfully. Buy a developer a beer!
