  ==> Input File <==

--------------------------------------------------------------------------
set {
	reference rhf
	basis cc-pvtz
}

set_num_threads( 4 )
memory 2 gb

molecule MOL {
0 1

H	 -0.000105	 1.988529	 0.748933
O	 -0.000098	 1.879786	 -0.188206
C	 -0.000014	 0.545691	 -0.532416
C	 -0.159663	 0.390693	 -2.045779
C	 -1.039306	 -0.213177	 0.294486
H	 0.965887	 0.136547	 -0.274933
F	 0.830815	 0.999174	 -2.650398
F	 -0.150300	 -0.863321	 -2.421374
F	 -1.280270	 0.936481	 -2.467361
F	 -0.754548	 -0.089191	 1.567434
F	 -1.064517	 -1.490917	 0.010833
F	 -2.247796	 0.272288	 0.106731

	symmetry c1
}
set optking {
	frozen_dihedral = ("
		6 3 2 1
	")
}

ee = optimize('scf')
oeprop('DIPOLE', 'QUADRUPOLE', 'MULLIKEN_CHARGES')
f=open( 'psi4out.xyz', 'w' )
f.write( "12  " )
f.write( str(ee) + "\n" )
f.write( MOL.save_string_xyz() )
f.close()
--------------------------------------------------------------------------

    Molecular point group: c1
  Charge       = 0
  Multiplicity = 1
  Basis Set: CC-PVTZ
  Basis Set:
  @DF-RHF Final Energy:  -786.58534704019314
    Total Energy =                       -786.5853470401930281
    Molecular point group: c1
  Basis Set: CC-PVTZ
  Basis Set:
  Basis Set: CC-PVTZ
  Basis Set:
  @DF-RHF Final Energy:  -786.58726206689096
    Total Energy =                       -786.5872620668911850
  Basis Set: CC-PVTZ
  Basis Set:
  Basis Set: CC-PVTZ
  Basis Set:
  @DF-RHF Final Energy:  -786.58768242581755
    Total Energy =                       -786.5876824258168654
  Basis Set: CC-PVTZ
  Basis Set:
  Basis Set: CC-PVTZ
  Basis Set:
  @DF-RHF Final Energy:  -786.58774073109635
    Total Energy =                       -786.5877407310963463
  Basis Set: CC-PVTZ
  Basis Set:
  Basis Set: CC-PVTZ
  Basis Set:
  @DF-RHF Final Energy:  -786.58775280009979
    Total Energy =                       -786.5877528000999064
  Basis Set: CC-PVTZ
  Basis Set:
  Basis Set: CC-PVTZ
  Basis Set:
  @DF-RHF Final Energy:  -786.58775505928224
    Total Energy =                       -786.5877550592826992
  Basis Set: CC-PVTZ
  Basis Set:
  Charge       = 0
  Multiplicity = 1
  Basis Set: CC-PVTZ
  Basis Set:

    Orbital Energies (a.u.)
    -----------------------

    Doubly Occupied:

       1A    -26.362353     2A    -26.359016     3A    -26.357145
       4A    -26.351847     5A    -26.348290     6A    -26.348016
       7A    -20.608566     8A    -11.522155     9A    -11.516028
      10A    -11.351595    11A     -1.772719    12A     -1.762331
      13A     -1.667621    14A     -1.666387    15A     -1.657698
      16A     -1.655940    17A     -1.439068    18A     -1.104403
      19A     -1.001369    20A     -0.941729    21A     -0.874854
      22A     -0.865364    23A     -0.860872    24A     -0.849229
      25A     -0.838641    26A     -0.792046    27A     -0.759147
      28A     -0.738491    29A     -0.727360    30A     -0.724459
      31A     -0.720451    32A     -0.691963    33A     -0.688619
      34A     -0.674894    35A     -0.674101    36A     -0.668910
      37A     -0.658939    38A     -0.645140    39A     -0.622295
      40A     -0.550230    41A     -0.509675

  @DF-RHF Final Energy:  -786.58775562015489

   => Energetics <=

    Nuclear Repulsion Energy =            671.0489707559786439
    One-Electron Energy =               -2429.4135383264247139
    Two-Electron Energy =                 971.7768119502912896
    DFT Exchange-Correlation Energy =       0.0000000000000000
    Empirical Dispersion Energy =           0.0000000000000000
    PCM Polarization Energy =               0.0000000000000000
    EFP Energy =                            0.0000000000000000
    Total Energy =                       -786.5877556201547804
    Molecular point group: c1
  Basis Set: CC-PVTZ
  Basis Set:

  -Total Gradient:
     Atom            X                  Y                   Z
    ------   -----------------  -----------------  -----------------
       1       -0.001486209549     0.000030179552     0.000059734541
       2        0.001989335111     0.000121355586    -0.000397291078
       3       -0.000917583697    -0.000424921538     0.001489314327
       4        0.000011991600    -0.000018753746     0.000071701326
       5        0.000006524766     0.000101769674    -0.000026580447
       6        0.000394971169     0.000282067059    -0.001215981944
       7        0.000001054353     0.000029629806    -0.000053642072
       8       -0.000010177351     0.000035818353    -0.000010466195
       9        0.000051693570    -0.000034284382    -0.000009533777
      10        0.000029259958    -0.000084937065     0.000052416834
      11       -0.000072979479     0.000059769895     0.000063922866
      12        0.000002119544    -0.000097693204    -0.000023594374

  **** Optimization is complete! (in 7 steps) ****
    Final optimized geometry and variables:
    Molecular point group: c1

    Geometry (in Angstrom), charge = 0, multiplicity = 1:

    H            0.665923200300     1.765994129752     1.564954577308
    O            0.636014797939     1.639537469860     0.632548109834
    C            0.625896760373     0.298451137028     0.313712414444
    C            0.431256959701     0.209940888137    -1.198497621000
    C           -0.432815915743    -0.453485575941     1.121087984505
    H            1.575247550054    -0.184088649948     0.521063783065
    F            1.450510302589     0.774359049379    -1.799282773317
    F            0.380572783746    -1.043807745903    -1.586758985170
    F           -0.658511311404     0.805973554167    -1.601942971120
    F           -0.237785719589    -0.187924779876     2.401396506368
    F           -0.328231957095    -1.748634233655     0.966550096033
    F           -1.655261391708    -0.098903562290     0.827575324497

  Mulliken Charges: (a.u.)
   Center  Symbol    Alpha    Beta     Spin     Total
       1     H     0.38375  0.38375  0.00000  0.23251
       2     O     4.18507  4.18507  0.00000 -0.37013
       3     C     2.99713  2.99713  0.00000  0.00573
       4     C     2.67707  2.67707  0.00000  0.64587
       5     C     2.68403  2.68403  0.00000  0.63194
       6     H     0.44511  0.44511  0.00000  0.10978
       7     F     4.60386  4.60386  0.00000 -0.20772
       8     F     4.60615  4.60615  0.00000 -0.21230
       9     F     4.60137  4.60137  0.00000 -0.20275
      10     F     4.61468  4.61468  0.00000 -0.22937
      11     F     4.60228  4.60228  0.00000 -0.20456
      12     F     4.59950  4.59950  0.00000 -0.19901

   Total alpha = 41.00000, Total beta = 41.00000, Total charge = -0.00000
