  ==> Input File <==

--------------------------------------------------------------------------
set {
	reference rhf
	basis cc-pvtz
}

set_num_threads( 4 )
memory 2 gb

molecule MOL {
0 1

O	 -2.440701	 -0.934798	 -0.415053
C	 -1.922978	 0.063265	 -0.045005
C	 -2.632749	 1.372204	 0.158357
O	 -0.637375	 0.157174	 0.243149
H	 -2.187724	 2.129143	 -0.474664
H	 -3.677681	 1.257276	 -0.079438
H	 -2.516788	 1.693160	 1.185542
C	 0.162530	 -1.009518	 0.097799
C	 1.587210	 -0.664190	 0.477086
H	 0.096803	 -1.356267	 -0.924704
H	 -0.233803	 -1.785900	 0.736810
C	 2.256770	 0.342732	 -0.454344
H	 2.154716	 -1.590834	 0.479041
H	 1.598751	 -0.289614	 1.496104
C	 2.436390	 1.712400	 0.191692
H	 3.226241	 -0.043060	 -0.758296
H	 1.667702	 0.443012	 -1.358660
H	 2.916928	 2.405590	 -0.488716
H	 3.048324	 1.648755	 1.085492
H	 1.480304	 2.138637	 0.476714

	symmetry c1
}
set optking {
	frozen_dihedral = ("
		16 12 9 8
	")
}

ee = optimize('scf')
oeprop('DIPOLE', 'QUADRUPOLE', 'MULLIKEN_CHARGES')
f=open( 'psi4out.xyz', 'w' )
f.write( "20  " )
f.write( str(ee) + "\n" )
f.write( MOL.save_string_xyz() )
f.close()
--------------------------------------------------------------------------

    Molecular point group: c1
  Charge       = 0
  Multiplicity = 1
  Basis Set: CC-PVTZ
  Basis Set:
  @DF-RHF Final Energy:  -384.08246435614365
    Total Energy =                       -384.0824643561437597
    Molecular point group: c1
  Basis Set: CC-PVTZ
  Basis Set:
  Basis Set: CC-PVTZ
  Basis Set:
  @DF-RHF Final Energy:  -384.08277030047640
    Total Energy =                       -384.0827703004763407
  Basis Set: CC-PVTZ
  Basis Set:
  Basis Set: CC-PVTZ
  Basis Set:
  @DF-RHF Final Energy:  -384.08275986793410
    Total Energy =                       -384.0827598679346693
  Basis Set: CC-PVTZ
  Basis Set:
  Basis Set: CC-PVTZ
  Basis Set:
  @DF-RHF Final Energy:  -384.08283061425789
    Total Energy =                       -384.0828306142574320
  Basis Set: CC-PVTZ
  Basis Set:
  Basis Set: CC-PVTZ
  Basis Set:
  @DF-RHF Final Energy:  -384.08285253894724
    Total Energy =                       -384.0828525389473498
  Basis Set: CC-PVTZ
  Basis Set:
  Basis Set: CC-PVTZ
  Basis Set:
  @DF-RHF Final Energy:  -384.08285545479225
    Total Energy =                       -384.0828554547923659
  Basis Set: CC-PVTZ
  Basis Set:
  Charge       = 0
  Multiplicity = 1
  Basis Set: CC-PVTZ
  Basis Set:

    Orbital Energies (a.u.)
    -----------------------

    Doubly Occupied:

       1A    -20.594829     2A    -20.533155     3A    -11.367118
       4A    -11.280490     5A    -11.232111     6A    -11.223607
       7A    -11.219704     8A    -11.208752     9A     -1.471419
      10A     -1.365618    11A     -1.084919    12A     -1.028110
      13A     -0.981917    14A     -0.883284    15A     -0.808820
      16A     -0.778483    17A     -0.693667    18A     -0.688156
      19A     -0.670210    20A     -0.620328    21A     -0.605555
      22A     -0.596844    23A     -0.575905    24A     -0.555381
      25A     -0.540059    26A     -0.534274    27A     -0.513042
      28A     -0.480978    29A     -0.476769    30A     -0.469088
      31A     -0.452613    32A     -0.441756

  @DF-RHF Final Energy:  -384.08285572626346

   => Energetics <=

    Nuclear Repulsion Energy =            391.5659526519012843
    One-Electron Energy =               -1299.3436904278353268
    Two-Electron Energy =                 523.6948820496702410
    DFT Exchange-Correlation Energy =       0.0000000000000000
    Empirical Dispersion Energy =           0.0000000000000000
    PCM Polarization Energy =               0.0000000000000000
    EFP Energy =                            0.0000000000000000
    Total Energy =                       -384.0828557262638014
    Molecular point group: c1
  Basis Set: CC-PVTZ
  Basis Set:

  -Total Gradient:
     Atom            X                  Y                   Z
    ------   -----------------  -----------------  -----------------
       1        0.000006265418    -0.000003814691     0.000018311438
       2        0.000002079465     0.000023241834    -0.000042019759
       3       -0.000007569283    -0.000000580162     0.000009169500
       4       -0.000019220712    -0.000009774202    -0.000000070086
       5        0.000001634350    -0.000003374087     0.000001779385
       6       -0.000001204139     0.000001132596     0.000001654899
       7       -0.000002559569     0.000001861306     0.000002029258
       8        0.000391317377    -0.000873150621    -0.000695704267
       9       -0.000699145229     0.001037503226     0.000711955969
      10       -0.000003993195    -0.000002160676    -0.000004188328
      11        0.000006620621     0.000002783805    -0.000004396090
      12        0.001032951273     0.000495356461     0.001274164182
      13        0.000000407041     0.000001406761     0.000006543539
      14       -0.000002101311    -0.000004875361    -0.000002568240
      15        0.000004295170     0.000014533402     0.000001880153
      16       -0.000715908335    -0.000679727209    -0.001271305004
      17        0.000002105221    -0.000000755309    -0.000009855990
      18       -0.000000149960    -0.000001645830     0.000000540298
      19        0.000002523934     0.000002817082     0.000001320331
      20        0.000001651857    -0.000000778322     0.000000758811

  **** Optimization is complete! (in 7 steps) ****
    Final optimized geometry and variables:
    Molecular point group: c1

    Geometry (in Angstrom), charge = 0, multiplicity = 1:

    O           -2.278135423150    -1.072725481533    -0.442531353286
    C           -1.755051194630    -0.074575161653    -0.080759768240
    C           -2.455694284492     1.241741123633     0.103615082702
    O           -0.469790707011     0.012010634515     0.212563084024
    H           -2.002145344613     1.987404970312    -0.536661230587
    H           -3.500437881031     1.131858420559    -0.137374127220
    H           -2.341716003316     1.573978325388     1.127382620027
    C            0.321248098423    -1.163104235299     0.082787947943
    C            1.752387932743    -0.822510347026     0.440738046662
    H            0.245944191401    -1.525872713261    -0.933151291296
    H           -0.075017801700    -1.925985630791     0.738148320303
    C            2.409435922520     0.221634175594    -0.482899452107
    H            2.307067463748    -1.754202681585     0.402060621936
    H            1.788537063329    -0.488124861909     1.471961915652
    C            2.590818577904     1.590706185288     0.165146139416
    H            3.372078895399    -0.148352395391    -0.817715653826
    H            1.810846404702     0.332689288524    -1.381342601177
    H            3.039239439289     2.293577348913    -0.527867486350
    H            3.236686220020     1.526651849235     1.034607956392
    H            1.639521522973     1.996593759278     0.487479888044

  Mulliken Charges: (a.u.)
   Center  Symbol    Alpha    Beta     Spin     Total
       1     O     4.19740  4.19740  0.00000 -0.39480
       2     C     2.80818  2.80818  0.00000  0.38363
       3     C     3.14011  3.14011  0.00000 -0.28022
       4     O     4.15431  4.15431  0.00000 -0.30861
       5     H     0.44584  0.44584  0.00000  0.10833
       6     H     0.43679  0.43679  0.00000  0.12643
       7     H     0.44549  0.44549  0.00000  0.10903
       8     C     2.99316  2.99316  0.00000  0.01368
       9     C     3.09289  3.09289  0.00000 -0.18579
      10     H     0.45098  0.45098  0.00000  0.09803
      11     H     0.44438  0.44438  0.00000  0.11124
      12     C     3.08804  3.08804  0.00000 -0.17607
      13     H     0.44499  0.44499  0.00000  0.11002
      14     H     0.45211  0.45211  0.00000  0.09577
      15     C     3.14794  3.14794  0.00000 -0.29587
      16     H     0.44726  0.44726  0.00000  0.10548
      17     H     0.45398  0.45398  0.00000  0.09204
      18     H     0.45008  0.45008  0.00000  0.09983
      19     H     0.45582  0.45582  0.00000  0.08836
      20     H     0.45026  0.45026  0.00000  0.09949

   Total alpha = 32.00000, Total beta = 32.00000, Total charge = -0.00000
