  ==> Input File <==

--------------------------------------------------------------------------
set {
	reference rhf
	basis cc-pvtz
}

set_num_threads( 4 )
memory 2 gb

molecule MOL {
0 1

H	 1.319995	 -1.127524	 -0.649415
C	 0.788096	 -0.429819	 0.000000
N	 -0.537714	 -0.645117	 0.000000
O	 1.360011	 0.410591	 0.619147
C	 -1.522613	 0.412524	 0.000000
H	 -0.845894	 -1.585866	 0.000000
H	 -2.150256	 0.356137	 -0.880771
H	 -1.005621	 1.357208	 0.000000
H	 -2.150256	 0.356137	 0.880771

	symmetry c1
}
set optking {
	frozen_dihedral = ("
		1 2 3 6
	")
}

ee = optimize('scf')
oeprop('DIPOLE', 'QUADRUPOLE', 'MULLIKEN_CHARGES')
f=open( 'psi4out.xyz', 'w' )
f.write( "9  " )
f.write( str(ee) + "\n" )
f.write( MOL.save_string_xyz() )
f.close()
--------------------------------------------------------------------------

    Molecular point group: c1
  Charge       = 0
  Multiplicity = 1
  Basis Set: CC-PVTZ
  Basis Set:
  @DF-RHF Final Energy:  -208.02688393309148
    Total Energy =                       -208.0268839330914830
    Molecular point group: c1
  Basis Set: CC-PVTZ
  Basis Set:
  Basis Set: CC-PVTZ
  Basis Set:
  @DF-RHF Final Energy:  -208.03202008340782
    Total Energy =                       -208.0320200834079571
  Basis Set: CC-PVTZ
  Basis Set:
  Basis Set: CC-PVTZ
  Basis Set:
  @DF-RHF Final Energy:  -208.03764775288676
    Total Energy =                       -208.0376477528868122
  Basis Set: CC-PVTZ
  Basis Set:
  Basis Set: CC-PVTZ
  Basis Set:
  @DF-RHF Final Energy:  -208.03902530578222
    Total Energy =                       -208.0390253057822179
  Basis Set: CC-PVTZ
  Basis Set:
  @DF-RHF Final Energy:  -208.03947275364771
    Total Energy =                       -208.0394727536476296
  @DF-RHF Final Energy:  -208.03956403868096
    Total Energy =                       -208.0395640386808509
  @DF-RHF Final Energy:  -208.03963752011435
    Total Energy =                       -208.0396375201142121
  @DF-RHF Final Energy:  -208.03970539016836
    Total Energy =                       -208.0397053901683648
  @DF-RHF Final Energy:  -208.03970908112305
    Total Energy =                       -208.0397090811230498
  @DF-RHF Final Energy:  -208.03975425075089
    Total Energy =                       -208.0397542507508888
  @DF-RHF Final Energy:  -208.03977772193394
    Total Energy =                       -208.0397777219338309
  @DF-RHF Final Energy:  -208.03982406874525
    Total Energy =                       -208.0398240687452756
  @DF-RHF Final Energy:  -208.03992460502070
    Total Energy =                       -208.0399246050207580
  @DF-RHF Final Energy:  -208.03999392318860
    Total Energy =                       -208.0399939231884900
  @DF-RHF Final Energy:  -208.04001932070935
    Total Energy =                       -208.0400193207093480
  @DF-RHF Final Energy:  -208.04002113027315
    Total Energy =                       -208.0400211302729758
  @DF-RHF Final Energy:  -208.03997755656496
    Total Energy =                       -208.0399775565650202
  @DF-RHF Final Energy:  -208.04001661626501
    Total Energy =                       -208.0400166162649498
  @DF-RHF Final Energy:  -208.03998604011491
    Total Energy =                       -208.0399860401148544
  @DF-RHF Final Energy:  -208.04002526284359
    Total Energy =                       -208.0400252628436419
  @DF-RHF Final Energy:  -208.04030280956184
    Total Energy =                       -208.0403028095618083
  @DF-RHF Final Energy:  -208.04030268062274
    Total Energy =                       -208.0403026806226876
  @DF-RHF Final Energy:  -208.03969013937558
    Total Energy =                       -208.0396901393754661
  @DF-RHF Final Energy:  -208.04026300563794
    Total Energy =                       -208.0402630056379394
  @DF-RHF Final Energy:  -208.04030348078072
    Total Energy =                       -208.0403034807807217
  @DF-RHF Final Energy:  -208.04030343804467
    Total Energy =                       -208.0403034380446456
  @DF-RHF Final Energy:  -208.04030267127320
    Total Energy =                       -208.0403026712732242
  @DF-RHF Final Energy:  -208.02958144764375
    Total Energy =                       -208.0295814476437783
  @DF-RHF Final Energy:  -207.99107324432254
    Total Energy =                       -207.9910732443224219
  @DF-RHF Final Energy:  -207.99240234179464
    Total Energy =                       -207.9924023417946159
  @DF-RHF Final Energy:  -208.01228558119772
    Total Energy =                       -208.0122855811976876
  @DF-RHF Final Energy:  -208.02820038406057
    Total Energy =                       -208.0282003840606535
  @DF-RHF Final Energy:  -208.01820391279040
    Total Energy =                       -208.0182039127904545
  @DF-RHF Final Energy:  -208.03706727642745
    Total Energy =                       -208.0370672764275071
  @DF-RHF Final Energy:  -208.03893927845905
    Total Energy =                       -208.0389392784589404
  @DF-RHF Final Energy:  -208.03995766642862
    Total Energy =                       -208.0399576664285064
  Basis Set: CC-PVTZ
  Basis Set:
  @DF-RHF Final Energy:  -208.04015336461879
    Total Energy =                       -208.0401533646187886
  Basis Set: CC-PVTZ
  Basis Set:
  Basis Set: CC-PVTZ
  Basis Set:
  @DF-RHF Final Energy:  -208.04022155756905
    Total Energy =                       -208.0402215575689695
  Basis Set: CC-PVTZ
  Basis Set:
  Basis Set: CC-PVTZ
  Basis Set:
  @DF-RHF Final Energy:  -208.04024912521311
    Total Energy =                       -208.0402491252130801
  Basis Set: CC-PVTZ
  Basis Set:
  Charge       = 0
  Multiplicity = 1
  Basis Set: CC-PVTZ
  Basis Set:

    Orbital Energies (a.u.)
    -----------------------

    Doubly Occupied:

       1A    -20.528162     2A    -15.582565     3A    -11.339768
       4A    -11.256057     5A     -1.402950     6A     -1.237855
       7A     -0.963004     8A     -0.806740     9A     -0.743874
      10A     -0.649375    11A     -0.638114    12A     -0.585987
      13A     -0.554092    14A     -0.537990    15A     -0.435661
      16A     -0.405219

  @DF-RHF Final Energy:  -208.04027869227360

   => Energetics <=

    Nuclear Repulsion Energy =            123.0576195835541995
    One-Electron Energy =                -526.8609652297400316
    Two-Electron Energy =                 195.7630669539122721
    DFT Exchange-Correlation Energy =       0.0000000000000000
    Empirical Dispersion Energy =           0.0000000000000000
    PCM Polarization Energy =               0.0000000000000000
    EFP Energy =                            0.0000000000000000
    Total Energy =                       -208.0402786922735743
    Molecular point group: c1
  Basis Set: CC-PVTZ
  Basis Set:

  -Total Gradient:
     Atom            X                  Y                   Z
    ------   -----------------  -----------------  -----------------
       1        0.002064597899     0.003618905588    -0.005863587927
       2       -0.004071795396    -0.004303264117     0.009138000739
       3        0.003413573011     0.000937867435    -0.010075300918
       4        0.000392795349     0.000416936851     0.000300660177
       5        0.000183441547    -0.000708398476    -0.000138998969
       6       -0.003138671481     0.000405773061     0.006650988159
       7        0.000140510862    -0.000877208795     0.000018714209
       8        0.001207097318     0.000251708301     0.000106104451
       9       -0.000191549108     0.000257680152    -0.000136579922

    Molecular point group: c1

    Geometry (in Angstrom), charge = 0, multiplicity = 1:

    H            1.438802282664    -1.236916543331    -0.370770137801
    C            0.788460717746    -0.431655102446    -0.022654618594
    N           -0.482899886215    -0.547155898249    -0.489145284188
    O            1.208399551362     0.491322520212     0.594147872414
    C           -1.457012648884     0.460897962665    -0.116532058640
    H           -0.831535824268    -1.478941810279    -0.501515168468
    H           -2.365596723120     0.280000038430    -0.672063072028
    H           -1.071038170912     1.434646768029    -0.376295108445
    H           -1.678895884617     0.457752582228     0.944713420547

  Mulliken Charges: (a.u.)
   Center  Symbol    Alpha    Beta     Spin     Total
       1     H     0.45890  0.45890  0.00000  0.08220
       2     C     2.88232  2.88232  0.00000  0.23536
       3     N     3.60366  3.60366  0.00000 -0.20731
       4     O     4.20264  4.20264  0.00000 -0.40529
       5     C     3.08113  3.08113  0.00000 -0.16226
       6     H     0.42171  0.42171  0.00000  0.15658
       7     H     0.45229  0.45229  0.00000  0.09543
       8     H     0.44109  0.44109  0.00000  0.11783
       9     H     0.45627  0.45627  0.00000  0.08747

   Total alpha = 16.00000, Total beta = 16.00000, Total charge =  0.00000
