  ==> Input File <==

--------------------------------------------------------------------------
set {
	reference rhf
	basis 6-31G*
}

set_num_threads( 4 )
memory 2 gb

molecule MOL {
0 1

H	 -2.866401	 0.112938	 -2.260275
C	 -1.904399	 -0.020225	 -1.799958
C	 -1.592638	 -1.208434	 -1.147895
C	 -0.959757	 0.984233	 -1.846512
H	 -2.316735	 -2.002396	 -1.101663
C	 -0.360145	 -1.382803	 -0.556495
H	 -1.183259	 1.910066	 -2.346478
C	 0.288675	 0.824101	 -1.254707
H	 -0.106370	 -2.295292	 -0.049744
C	 0.589019	 -0.364123	 -0.607406
H	 1.001824	 1.623632	 -1.307958
O	 1.765256	 -0.628444	 0.000000
C	 2.778419	 0.335181	 0.000000
H	 2.731280	 0.961222	 -0.884976
H	 3.711703	 -0.207767	 0.000000
H	 2.731280	 0.961222	 0.884976

	symmetry c1
}
set optking {
	frozen_dihedral = ("
		10 12 13 14
	")
}

ee = optimize('scf')
oeprop('DIPOLE', 'QUADRUPOLE', 'MULLIKEN_CHARGES')
f=open( 'psi4out.xyz', 'w' )
f.write( "16  " )
f.write( str(ee) + "\n" )
f.write( MOL.save_string_xyz() )
f.close()
--------------------------------------------------------------------------

    Molecular point group: c1
  Charge       = 0
  Multiplicity = 1
  Basis Set: 6-31G*
  Basis Set:
  @DF-RHF Final Energy:  -344.57858564939909
    Total Energy =                       -344.5785856493993151
    Molecular point group: c1
  Basis Set: 6-31G*
  Basis Set:
  Basis Set: 6-31G*
  Basis Set:
  @DF-RHF Final Energy:  -344.57874732187707
    Total Energy =                       -344.5787473218767900
  Basis Set: 6-31G*
  Basis Set:
  Basis Set: 6-31G*
  Basis Set:
  @DF-RHF Final Energy:  -344.58047254569146
    Total Energy =                       -344.5804725456916344
  Basis Set: 6-31G*
  Basis Set:
  Basis Set: 6-31G*
  Basis Set:
  @DF-RHF Final Energy:  -344.58079611174372
    Total Energy =                       -344.5807961117436662
  Basis Set: 6-31G*
  Basis Set:
  Basis Set: 6-31G*
  Basis Set:
  @DF-RHF Final Energy:  -344.58087200980736
    Total Energy =                       -344.5808720098073081
  Basis Set: 6-31G*
  Basis Set:
  Basis Set: 6-31G*
  Basis Set:
  @DF-RHF Final Energy:  -344.58087574677256
    Total Energy =                       -344.5808757467726196
  Basis Set: 6-31G*
  Basis Set:
  Charge       = 0
  Multiplicity = 1
  Basis Set: 6-31G*
  Basis Set:

    Orbital Energies (a.u.)
    -----------------------

    Doubly Occupied:

       1A    -20.581529     2A    -11.293036     3A    -11.279182
       4A    -11.233044     5A    -11.231473     6A    -11.224157
       7A    -11.220144     8A    -11.219569     9A     -1.410340
      10A     -1.145915    11A     -1.020809    12A     -1.012921
      13A     -0.940329    14A     -0.831050    15A     -0.804790
      16A     -0.719963    17A     -0.663984    18A     -0.661599
      19A     -0.651826    20A     -0.615884    21A     -0.588161
      22A     -0.578844    23A     -0.524663    24A     -0.516572
      25A     -0.508292    26A     -0.478491    27A     -0.455535
      28A     -0.334520    29A     -0.306498

  @DF-RHF Final Energy:  -344.58087691120966

   => Energetics <=

    Nuclear Repulsion Energy =            347.9190631021139097
    One-Electron Energy =               -1156.8936436093836164
    Two-Electron Energy =                 464.3937035960598223
    DFT Exchange-Correlation Energy =       0.0000000000000000
    Empirical Dispersion Energy =           0.0000000000000000
    PCM Polarization Energy =               0.0000000000000000
    EFP Energy =                            0.0000000000000000
    Total Energy =                       -344.5808769112098844
    Molecular point group: c1
  Basis Set: 6-31G*
  Basis Set:

  -Total Gradient:
     Atom            X                  Y                   Z
    ------   -----------------  -----------------  -----------------
       1       -0.000019560715    -0.000021107910     0.000012279365
       2        0.000045259411     0.000111293396    -0.000014664682
       3        0.000096278539    -0.000098494158     0.000051469920
       4       -0.000055914055    -0.000039207752    -0.000053701189
       5       -0.000001811014     0.000010050694    -0.000008298219
       6       -0.000066111185    -0.000005900427    -0.000018941552
       7        0.000017440361     0.000000054672     0.000021026436
       8        0.000024993864    -0.000078271279     0.000048244521
       9        0.000000424986    -0.000016265500     0.000005781896
      10        0.000633421996    -0.001654489159    -0.001832183001
      11        0.000034463484     0.000015139769     0.000005469866
      12       -0.001554017190     0.003426963649     0.002859510683
      13        0.002432762660    -0.004123691126    -0.001753947576
      14       -0.001568105022     0.002549259518     0.000642441479
      15        0.000040991830    -0.000015774254     0.000008094556
      16       -0.000060517954    -0.000059560134     0.000027417494

  **** Optimization is complete! (in 7 steps) ****
    Final optimized geometry and variables:
    Molecular point group: c1

    Geometry (in Angstrom), charge = 0, multiplicity = 1:

    H           -2.960755954131     0.196722804472    -1.553597210584
    C           -2.028731336397     0.102313806970    -1.026666506931
    C           -1.696154346011    -1.088738276151    -0.392592633069
    C           -1.146623488830     1.163305701576    -0.966969309657
    H           -2.372993125014    -1.923883614068    -0.428727393166
    C           -0.498983470862    -1.216003679883     0.281327867390
    H           -1.392029032663     2.095031253900    -1.445156688947
    C            0.059685033674     1.051668670984    -0.286704750312
    H           -0.227366136278    -2.131876012304     0.772457524872
    C            0.387096974487    -0.144492509718     0.332912006582
    H            0.721005011948     1.896014771876    -0.235656342994
    O            1.524941292501    -0.341656009271     1.034644032800
    C            2.665860095145     0.421462636744     0.749653031297
    H            2.700345444700     0.714970037385    -0.292467271269
    H            3.523901102105    -0.190102986005     0.988387675829
    H            2.689807313508     1.318230958729     1.360726612113

  Mulliken Charges: (a.u.)
   Center  Symbol    Alpha    Beta     Spin     Total
       1     H     0.40109  0.40109  0.00000  0.19782
       2     C     3.11144  3.11144  0.00000 -0.22287
       3     C     3.09249  3.09249  0.00000 -0.18499
       4     C     3.09172  3.09172  0.00000 -0.18344
       5     H     0.39875  0.39875  0.00000  0.20251
       6     C     3.12518  3.12518  0.00000 -0.25035
       7     H     0.39948  0.39948  0.00000  0.20104
       8     C     3.14036  3.14036  0.00000 -0.28072
       9     H     0.39307  0.39307  0.00000  0.21386
      10     C     2.78533  2.78533  0.00000  0.42934
      11     H     0.39746  0.39746  0.00000  0.20509
      12     O     4.32853  4.32853  0.00000 -0.65706
      13     C     3.08936  3.08936  0.00000 -0.17871
      14     H     0.41936  0.41936  0.00000  0.16128
      15     H     0.40701  0.40701  0.00000  0.18599
      16     H     0.41938  0.41938  0.00000  0.16123

   Total alpha = 29.00000, Total beta = 29.00000, Total charge =  0.00000
