                              Psi4 1.0.54 Driver

  ==> Input File <==

--------------------------------------------------------------------------
set {
	reference rhf
	basis cc-pvtz
}

set_num_threads( 4 )
memory 2 gb

molecule MOL {
0 1

H	 -3.436473	 1.252944	 -1.023892
O	 -3.458596	 0.315260	 -0.960865
C	 -3.176635	 -0.080824	 0.355601
C	 -1.763371	 0.265266	 0.799691
H	 -3.321825	 -1.153438	 0.379502
H	 -3.895468	 0.357385	 1.043382
C	 -0.673390	 -0.426948	 -0.013392
H	 -1.631049	 1.344913	 0.747560
H	 -1.664587	 -0.001624	 1.849167
C	 0.737842	 -0.043159	 0.423759
H	 -0.806103	 -0.190518	 -1.063345
H	 -0.797221	 -1.503753	 0.074146
C	 1.824000	 -0.743224	 -0.390623
H	 0.850588	 1.033777	 0.343840
H	 0.868587	 -0.286314	 1.476203
C	 1.836215	 -0.395979	 -1.880294
H	 1.720553	 -1.819727	 -0.275345
H	 2.792345	 -0.486520	 0.030127
C	 0.611977	 -0.874177	 -2.657284
H	 2.723572	 -0.833853	 -2.327104
H	 1.938917	 0.679805	 -1.996742
H	 0.480326	 -1.946623	 -2.554307
H	 0.717722	 -0.655502	 -3.713807
H	 -0.297888	 -0.395244	 -2.316148

	symmetry c1
}
set optking {
	frozen_dihedral = ("
		17 13 10 7
	")
}

ee,wfn = optimize('scf', return_wfn=True)
oeprop( wfn, 'DIPOLE', 'QUADRUPOLE', 'MULLIKEN_CHARGES')
f=open( 'psi4out.xyz', 'w' )
f.write( "24  " )
f.write( str(ee) + "\n" )
f.write( MOL.save_string_xyz() )
f.close()
--------------------------------------------------------------------------

    Molecular point group: c1
  Charge       = 0
  Multiplicity = 1
  Basis Set: CC-PVTZ
  Basis Set:
  @DF-RHF Final Energy:  -349.35791962409837
    Total Energy =                       -349.3579196240985993
    Molecular point group: c1
  Basis Set: CC-PVTZ
  Basis Set:
  Basis Set: CC-PVTZ
  Basis Set:
  @DF-RHF Final Energy:  -349.37142541190292
    Total Energy =                       -349.3714254119029192
  Basis Set: CC-PVTZ
  Basis Set:
  Basis Set: CC-PVTZ
  Basis Set:
  @DF-RHF Final Energy:  -349.37429591193683
    Total Energy =                       -349.3742959119369971
  Basis Set: CC-PVTZ
  Basis Set:
  Basis Set: CC-PVTZ
  Basis Set:
  @DF-RHF Final Energy:  -349.37522298270193
    Total Energy =                       -349.3752229827026667
  Basis Set: CC-PVTZ
  Basis Set:
  @DF-RHF Final Energy:  -349.37464541843207
    Total Energy =                       -349.3746454184323511
  @DF-RHF Final Energy:  -349.37576202867666
    Total Energy =                       -349.3757620286770589
  Basis Set: CC-PVTZ
  Basis Set:
  @DF-RHF Final Energy:  -349.37583364815146
    Total Energy =                       -349.3758336481517972
  Basis Set: CC-PVTZ
  Basis Set:
  Basis Set: CC-PVTZ
  Basis Set:
  @DF-RHF Final Energy:  -349.37584504339827
    Total Energy =                       -349.3758450433982716
  Basis Set: CC-PVTZ
  Basis Set:
  Basis Set: CC-PVTZ
  Basis Set:
  @DF-RHF Final Energy:  -349.37584783533123
    Total Energy =                       -349.3758478353311148
  Basis Set: CC-PVTZ
  Basis Set:
  Charge       = 0
  Multiplicity = 1
  Basis Set: CC-PVTZ
  Basis Set:

    Orbital Energies (a.u.)
    -----------------------

    Doubly Occupied:

       1A    -20.546807     2A    -11.265811     3A    -11.215289
       4A    -11.211168     5A    -11.210933     6A    -11.209718
       7A    -11.208735     8A    -11.202141     9A     -1.364548
      10A     -1.088513    11A     -1.046273    12A     -0.986041
      13A     -0.918863    14A     -0.847724    15A     -0.806122
      16A     -0.772725    17A     -0.683111    18A     -0.653219
      19A     -0.622145    20A     -0.616052    21A     -0.599698
      22A     -0.589285    23A     -0.555351    24A     -0.543379
      25A     -0.523021    26A     -0.502356    27A     -0.500069
      28A     -0.475405    29A     -0.471685    30A     -0.459124
      31A     -0.454920    32A     -0.442122    33A     -0.421488

  @DF-RHF Final Energy:  -349.37584873944877

   => Energetics <=

    Nuclear Repulsion Energy =            393.3295996205937399
    One-Electron Energy =               -1253.3832178119203036
    Two-Electron Energy =                 510.6777694518773956
    DFT Exchange-Correlation Energy =       0.0000000000000000
    Empirical Dispersion Energy =           0.0000000000000000
    PCM Polarization Energy =               0.0000000000000000
    EFP Energy =                            0.0000000000000000
    Total Energy =                       -349.3758487394491681
    Molecular point group: c1
  Basis Set: CC-PVTZ
  Basis Set:

  -Total Gradient:
     Atom            X                  Y                   Z
    ------   -----------------  -----------------  -----------------
       1       -0.000002436124     0.000010196190    -0.000005949042
       2       -0.000007309095     0.000016810294     0.000021388039
       3        0.000008122343    -0.000060054176     0.000000749632
       4       -0.000024058269     0.000032213637    -0.000006759803
       5        0.000001067670     0.000000130695    -0.000000045803
       6        0.000001442852     0.000007613038    -0.000010228460
       7       -0.000014395904    -0.000085797978     0.000088964356
       8        0.000015876311     0.000009665049     0.000007158109
       9       -0.000006445293     0.000003807010    -0.000022591285
      10        0.000004285284     0.000139574145    -0.000064871497
      11       -0.000035803473     0.000016205431     0.000019121360
      12        0.000004922325    -0.000020197322    -0.000016459984
      13        0.000061453340    -0.000043093876     0.000130444056
      14        0.000020483075    -0.000000673571     0.000008731994
      15        0.000009601254    -0.000002558672    -0.000029264526
      16       -0.000050609852     0.000012404359    -0.000005585573
      17       -0.000058023739    -0.000004473983    -0.000051487979
      18        0.000024385795    -0.000005821049    -0.000045092768
      19        0.000059384342    -0.000031744329    -0.000032445550
      20       -0.000006419934    -0.000012115388     0.000051384397
      21       -0.000014791559     0.000001942531     0.000001604639
      22       -0.000000092587    -0.000012997426    -0.000013152232
      23       -0.000004516581    -0.000011422838    -0.000005501921
      24        0.000013877817     0.000040388229    -0.000020110160

  **** Optimization is complete! (in 10 steps) ****
    Final optimized geometry and variables:
    Molecular point group: c1

    Geometry (in Angstrom), charge = 0, multiplicity = 1:

    H           -2.845298330307     1.924131084965    -0.023606564070
    O           -2.952854551579     0.994016337435    -0.107355612913
    C           -2.637901223064     0.366395839344     1.107801640337
    C           -1.174195673890     0.508160659794     1.497355930866
    H           -2.888032492152    -0.678509784359     0.974437278247
    H           -3.269514925099     0.750005141641     1.905060472566
    C           -0.207561124404    -0.139825796831     0.509557486620
    H           -0.937264130830     1.565924957031     1.602505867360
    H           -1.042586120920     0.068943500415     2.483174961721
    C            1.254551736642     0.064534239872     0.899628135203
    H           -0.394200645458     0.265021881065    -0.476580511863
    H           -0.422156781950    -1.204540785898     0.452164378695
    C            2.291222527399    -0.665951345864     0.040718672522
    H            1.478897383662     1.128911422323     0.888880377025
    H            1.387370566397    -0.258530719805     1.929201880073
    C            2.379227149986    -0.234191192594    -1.433203889898
    H            2.112932485625    -1.737285833948     0.092417645751
    H            3.259129857924    -0.503411546968     0.503881225532
    C            1.532197562363    -1.057309226686    -2.402507794972
    H            3.413761691633    -0.307127250344    -1.752486455344
    H            2.115497376208     0.816454024694    -1.519450322551
    H            1.826672972024    -2.101335172889    -2.376481210388
    H            1.662162708454    -0.705459692923    -3.420007369207
    H            0.476361707347    -1.008619755222    -2.171065193664

  Mulliken Charges: (a.u.)
   Center  Symbol    Alpha    Beta     Spin     Total
       1     H     0.39524  0.39524  0.00000  0.20952
       2     O     4.20314  4.20314  0.00000 -0.40629
       3     C     2.97867  2.97867  0.00000  0.04267
       4     C     3.10196  3.10196  0.00000 -0.20392
       5     H     0.45848  0.45848  0.00000  0.08303
       6     H     0.45955  0.45955  0.00000  0.08089
       7     C     3.09558  3.09558  0.00000 -0.19116
       8     H     0.45895  0.45895  0.00000  0.08210
       9     H     0.45253  0.45253  0.00000  0.09493
      10     C     3.09505  3.09505  0.00000 -0.19011
      11     H     0.44373  0.44373  0.00000  0.11255
      12     H     0.45257  0.45257  0.00000  0.09486
      13     C     3.09963  3.09963  0.00000 -0.19925
      14     H     0.45422  0.45422  0.00000  0.09156
      15     H     0.45037  0.45037  0.00000  0.09926
      16     C     3.09703  3.09703  0.00000 -0.19407
      17     H     0.45514  0.45514  0.00000  0.08973
      18     H     0.44483  0.44483  0.00000  0.11034
      19     C     3.14875  3.14875  0.00000 -0.29750
      20     H     0.44665  0.44665  0.00000  0.10670
      21     H     0.45323  0.45323  0.00000  0.09354
      22     H     0.45552  0.45552  0.00000  0.08896
      23     H     0.44876  0.44876  0.00000  0.10247
      24     H     0.45041  0.45041  0.00000  0.09917

   Total alpha = 33.00000, Total beta = 33.00000, Total charge = -0.00000

*** Psi4 exiting successfully. Buy a developer a beer!
