  ==> Input File <==

--------------------------------------------------------------------------
set {
	reference rhf
	basis 6-31G*
}

set_num_threads( 4 )
memory 2 gb

molecule MOL {
0 1

H	 -2.269199	 -1.310498	 -1.456580
C	 -1.568767	 -0.785145	 -0.837867
C	 -1.961105	 0.348966	 -0.052127
C	 -0.287999	 -1.171114	 -0.774020
H	 -2.982971	 0.683547	 -0.081977
C	 -1.067053	 0.989968	 0.714196
H	 0.085552	 -2.009510	 -1.330758
N	 0.640212	 -0.532897	 -0.000111
H	 -1.323902	 1.840828	 1.314547
C	 0.326569	 0.569740	 0.783532
C	 2.010177	 -1.032049	 0.000042
O	 1.160511	 1.118799	 1.459757
H	 2.187698	 -1.635381	 -0.882279
H	 2.677579	 -0.189247	 -0.001871
H	 2.188882	 -1.632203	 0.884288

	symmetry c1
}
set optking {
	frozen_dihedral = ("
		10 8 11 13
	")
}

ee = optimize('scf')
oeprop('DIPOLE', 'QUADRUPOLE', 'MULLIKEN_CHARGES')
f=open( 'psi4out.xyz', 'w' )
f.write( "15  " )
f.write( str(ee) + "\n" )
f.write( MOL.save_string_xyz() )
f.close()
--------------------------------------------------------------------------

    Molecular point group: c1
  Charge       = 0
  Multiplicity = 1
  Basis Set: 6-31G*
  Basis Set:
  @DF-RHF Final Energy:  -360.59593354112400
    Total Energy =                       -360.5959335411239977
    Molecular point group: c1
  Basis Set: 6-31G*
  Basis Set:
  Basis Set: 6-31G*
  Basis Set:
  @DF-RHF Final Energy:  -360.59639082486467
    Total Energy =                       -360.5963908248641019
  Basis Set: 6-31G*
  Basis Set:
  Basis Set: 6-31G*
  Basis Set:
  @DF-RHF Final Energy:  -360.59646579481608
    Total Energy =                       -360.5964657948159697
  Basis Set: 6-31G*
  Basis Set:
  Charge       = 0
  Multiplicity = 1
  Basis Set: 6-31G*
  Basis Set:

    Orbital Energies (a.u.)
    -----------------------

    Doubly Occupied:

       1A    -20.508824     2A    -15.622227     3A    -11.341903
       4A    -11.297753     5A    -11.266258     6A    -11.260381
       7A    -11.232963     8A    -11.228865     9A     -1.384984
      10A     -1.281031    11A     -1.114866    12A     -1.026188
      13A     -0.970256    14A     -0.872727    15A     -0.835677
      16A     -0.715898    17A     -0.697619    18A     -0.661245
      19A     -0.648672    20A     -0.622636    21A     -0.606509
      22A     -0.573089    23A     -0.549485    24A     -0.547158
      25A     -0.527501    26A     -0.477577    27A     -0.414118
      28A     -0.405636    29A     -0.304590

  @DF-RHF Final Energy:  -360.59646484340817

   => Energetics <=

    Nuclear Repulsion Energy =            357.9008751976008398
    One-Electron Energy =               -1199.0014065055725041
    Two-Electron Energy =                 480.5040664645637207
    DFT Exchange-Correlation Energy =       0.0000000000000000
    Empirical Dispersion Energy =           0.0000000000000000
    PCM Polarization Energy =               0.0000000000000000
    EFP Energy =                            0.0000000000000000
    Total Energy =                       -360.5964648434079436
    Molecular point group: c1
  Basis Set: 6-31G*
  Basis Set:

  -Total Gradient:
     Atom            X                  Y                   Z
    ------   -----------------  -----------------  -----------------
       1       -0.000015318928    -0.000005857237     0.000003139719
       2        0.000160780472    -0.000043442026    -0.000005961107
       3       -0.000033415064     0.000088261686     0.000109477212
       4       -0.000227761151    -0.000047838620    -0.000068872179
       5        0.000006608325     0.000006550637    -0.000043494981
       6       -0.000227598317    -0.000190069963     0.000219745038
       7        0.000026033587     0.000004082809     0.000028847429
       8       -0.000118815715    -0.000447406502     0.001031277834
       9        0.000015097131    -0.000003271850     0.000004939609
      10        0.000515387502     0.000893371561    -0.001478462324
      11       -0.000253043332    -0.000687976452     0.000248780281
      12       -0.000105713040    -0.000259514673     0.000353642459
      13        0.000271676003     0.000678961730    -0.000416027582
      14       -0.000018651250     0.000003436653     0.000005192031
      15        0.000004733770     0.000010712247     0.000007776560

  **** Optimization is complete! (in 4 steps) ****
    Final optimized geometry and variables:
    Molecular point group: c1

    Geometry (in Angstrom), charge = 0, multiplicity = 1:

    H           -2.264446325330    -1.241663952100    -1.624452138415
    C           -1.556983316811    -0.718009404879    -1.012430178954
    C           -1.938662427925     0.420550967267    -0.229219194432
    C           -0.276553923495    -1.110357249605    -0.960248097492
    H           -2.959186487381     0.759440138097    -0.255316950473
    C           -1.037402343768     1.061035838594     0.530312464172
    H            0.086311329551    -1.951150347470    -1.518992387176
    N            0.658183866585    -0.469837467365    -0.198266599967
    H           -1.286497042589     1.914441833892     1.130512478906
    C            0.350318424367     0.625787259301     0.594845183386
    C            2.035329671630    -0.946137623010    -0.166040442612
    O            1.196937322933     1.145020532691     1.279146413534
    H            2.225862472297    -1.539018664737    -1.049583719611
    H            2.702611340604    -0.100186569689    -0.150259972530
    H            2.215647633588    -1.542677724036     0.719468157222

  Mulliken Charges: (a.u.)
   Center  Symbol    Alpha    Beta     Spin     Total
       1     H     0.39305  0.39305  0.00000  0.21389
       2     C     3.16226  3.16226  0.00000 -0.32453
       3     C     3.05823  3.05823  0.00000 -0.11645
       4     C     2.92149  2.92149  0.00000  0.15702
       5     H     0.39089  0.39089  0.00000  0.21821
       6     C     3.16969  3.16969  0.00000 -0.33937
       7     H     0.38763  0.38763  0.00000  0.22475
       8     N     3.86384  3.86384  0.00000 -0.72768
       9     H     0.38645  0.38645  0.00000  0.22709
      10     C     2.59639  2.59639  0.00000  0.80722
      11     C     3.14232  3.14232  0.00000 -0.28464
      12     O     4.32163  4.32163  0.00000 -0.64325
      13     H     0.41523  0.41523  0.00000  0.16955
      14     H     0.38747  0.38747  0.00000  0.22506
      15     H     0.40343  0.40343  0.00000  0.19315

   Total alpha = 29.00000, Total beta = 29.00000, Total charge =  0.00000
