  ==> Input File <==

--------------------------------------------------------------------------
set {
	reference rhf
	basis 6-31G*
}

set_num_threads( 1 )
memory 2 gb

molecule MOL {
0 1

O	 3.897269	 -0.343646	 0.231831
C	 2.843464	 0.164689	 -0.000222
C	 1.546494	 -0.624492	 -0.000609
C	 2.732177	 1.643056	 -0.311993
C	 0.291004	 0.242674	 0.000989
H	 1.557904	 -1.283758	 -0.867573
H	 1.558622	 -1.285963	 0.864672
C	 -0.994322	 -0.586602	 0.000262
H	 0.309117	 0.896430	 -0.865270
H	 0.309661	 0.894078	 0.869017
C	 -2.259874	 0.272531	 0.000494
H	 -1.004862	 -1.240012	 -0.870939
H	 -1.005220	 -1.241071	 0.870675
C	 -3.549786	 -0.549746	 -0.000374
H	 -2.250389	 0.926680	 -0.869574
H	 -2.250838	 0.925513	 0.871430
C	 -4.809590	 0.315458	 -0.000369
H	 -3.560515	 -1.202009	 -0.871156
H	 -3.561123	 -1.202955	 0.869711
H	 -4.844746	 0.956611	 -0.876632
H	 -5.706986	 -0.295590	 -0.001609
H	 -4.845960	 0.954827	 0.877144
H	 2.082356	 2.134056	 0.406526
H	 3.712791	 2.097233	 -0.281122
H	 2.295089	 1.790836	 -1.295228

	symmetry c1
}
set optking {
	frozen_dihedral = ("
		9 5 8 12,
		15 11 8 12,
		15 11 14 18,
		9 5 3 6
	")
}

ee = energy('scf')
oeprop('DIPOLE', 'QUADRUPOLE', 'MULLIKEN_CHARGES')
f=open( 'psi4out.xyz', 'w' )
f.write( "25  " )
f.write( str(ee) + "\n" )
f.write( MOL.save_string_xyz() )
f.close()
--------------------------------------------------------------------------

    Molecular point group: c1

    Geometry (in Angstrom), charge = 0, multiplicity = 1:

       Center              X                  Y                   Z               Mass
    ------------   -----------------  -----------------  -----------------  -----------------
           O          3.939482828339    -0.413026702426     0.241297348603    15.994914619560
           C          2.885677828339     0.095308297574     0.009244348603    12.000000000000
           C          1.588707828339    -0.693872702426     0.008857348603    12.000000000000
           C          2.774390828339     1.573675297574    -0.302526651397    12.000000000000
           C          0.333217828339     0.173293297574     0.010455348603    12.000000000000
           H          1.600117828339    -1.353138702426    -0.858106651397     1.007825032070
           H          1.600835828339    -1.355343702426     0.874138348603     1.007825032070
           C         -0.952108171661    -0.655982702426     0.009728348603    12.000000000000
           H          0.351330828339     0.827049297574    -0.855803651397     1.007825032070
           H          0.351874828339     0.824697297574     0.878483348603     1.007825032070
           C         -2.217660171661     0.203150297574     0.009960348603    12.000000000000
           H         -0.962648171661    -1.309392702426    -0.861472651397     1.007825032070
           H         -0.963006171661    -1.310451702426     0.880141348603     1.007825032070
           C         -3.507572171661    -0.619126702426     0.009092348603    12.000000000000
           H         -2.208175171661     0.857299297574    -0.860107651397     1.007825032070
           H         -2.208624171661     0.856132297574     0.880896348603     1.007825032070
           C         -4.767376171661     0.246077297574     0.009097348603    12.000000000000
           H         -3.518301171661    -1.271389702426    -0.861689651397     1.007825032070
           H         -3.518909171661    -1.272335702426     0.879177348603     1.007825032070
           H         -4.802532171661     0.887230297574    -0.867165651397     1.007825032070
           H         -5.664772171661    -0.364970702426     0.007857348603     1.007825032070
           H         -4.803746171661     0.885446297574     0.886610348603     1.007825032070
           H          2.124569828339     2.064675297574     0.415992348603     1.007825032070
           H          3.755004828339     2.027852297574    -0.271655651397     1.007825032070
           H          2.337302828339     1.721455297574    -1.285761651397     1.007825032070

  Charge       = 0
  Multiplicity = 1
  Basis Set: 6-31G*
  Basis Set:

    Orbital Energies (a.u.)
    -----------------------

    Doubly Occupied:

       1A    -20.546607     2A    -11.325489     3A    -11.231058
       4A    -11.230135     5A    -11.225688     6A    -11.224719
       7A    -11.220975     8A    -11.220335     9A    -11.212927
      10A     -1.392429    11A     -1.104331    12A     -1.064413
      13A     -1.009786    14A     -0.969959    15A     -0.898718
      16A     -0.823404    17A     -0.798152    18A     -0.731318
      19A     -0.669784    20A     -0.650565    21A     -0.636242
      22A     -0.625838    23A     -0.595451    24A     -0.590713
      25A     -0.563133    26A     -0.558255    27A     -0.546713
      28A     -0.531951    29A     -0.525810    30A     -0.499112
      31A     -0.492079    32A     -0.470977    33A     -0.469982
      34A     -0.467463    35A     -0.459617    36A     -0.395323

  @DF-RHF Final Energy:  -387.12971421217298

   => Energetics <=

    Nuclear Repulsion Energy =            440.8623052030160352
    One-Electron Energy =               -1398.0251634529229250
    Two-Electron Energy =                 570.0331440377337913
    DFT Exchange-Correlation Energy =       0.0000000000000000
    Empirical Dispersion Energy =           0.0000000000000000
    PCM Polarization Energy =               0.0000000000000000
    EFP Energy =                            0.0000000000000000
    Total Energy =                       -387.1297142121730985

  Mulliken Charges: (a.u.)
   Center  Symbol    Alpha    Beta     Spin     Total
       1     O     4.26338  4.26338  0.00000 -0.52676
       2     C     2.73157  2.73157  0.00000  0.53686
       3     C     3.20667  3.20667  0.00000 -0.41335
       4     C     3.29601  3.29601  0.00000 -0.59202
       5     C     3.16568  3.16568  0.00000 -0.33135
       6     H     0.40145  0.40145  0.00000  0.19709
       7     H     0.39965  0.39965  0.00000  0.20070
       8     C     3.15145  3.15145  0.00000 -0.30291
       9     H     0.41843  0.41843  0.00000  0.16314
      10     H     0.41830  0.41830  0.00000  0.16340
      11     C     3.15097  3.15097  0.00000 -0.30194
      12     H     0.42154  0.42154  0.00000  0.15691
      13     H     0.42065  0.42065  0.00000  0.15870
      14     C     3.15200  3.15200  0.00000 -0.30400
      15     H     0.42362  0.42362  0.00000  0.15276
      16     H     0.42331  0.42331  0.00000  0.15339
      17     C     3.23956  3.23956  0.00000 -0.47913
      18     H     0.42241  0.42241  0.00000  0.15518
      19     H     0.42216  0.42216  0.00000  0.15567
      20     H     0.42155  0.42155  0.00000  0.15690
      21     H     0.41828  0.41828  0.00000  0.16343
      22     H     0.42140  0.42140  0.00000  0.15720
      23     H     0.40654  0.40654  0.00000  0.18691
      24     H     0.39572  0.39572  0.00000  0.20855
      25     H     0.40768  0.40768  0.00000  0.18465

   Total alpha = 36.00000, Total beta = 36.00000, Total charge = -0.00000
