  ==> Input File <==

--------------------------------------------------------------------------
set {
	reference rhf
	basis 6-31G*
}

set_num_threads( 4 )
memory 2 gb

molecule MOL {
0 1

O	 -2.555380	 -0.933286	 0.076658
C	 -1.921153	 0.064240	 -0.045697
C	 -2.460661	 1.372632	 -0.556958
O	 -0.632575	 0.154573	 0.251549
H	 -1.912902	 1.673644	 -1.442565
H	 -3.509745	 1.266261	 -0.789215
H	 -2.322361	 2.143490	 0.192313
C	 0.160891	 -1.019931	 0.106212
C	 1.589627	 -0.672828	 0.480843
H	 0.089836	 -1.367806	 -0.916050
H	 -0.238459	 -1.792301	 0.749618
C	 2.246377	 0.346236	 -0.452210
H	 2.163194	 -1.597435	 0.473358
H	 1.604769	 -0.303424	 1.502885
C	 3.691736	 0.652107	 -0.061850
H	 2.219579	 -0.032311	 -1.472055
H	 1.666466	 1.263317	 -0.447249
H	 4.134505	 1.377213	 -0.737283
H	 4.305508	 -0.243868	 -0.089969
H	 3.748266	 1.059562	 0.943567

	symmetry c1
}
set optking {
	frozen_dihedral = ("
		1 2 4 8
	")
}

ee = optimize('scf')
oeprop('DIPOLE', 'QUADRUPOLE', 'MULLIKEN_CHARGES')
f=open( 'psi4out.xyz', 'w' )
f.write( "20  " )
f.write( str(ee) + "\n" )
f.write( MOL.save_string_xyz() )
f.close()
--------------------------------------------------------------------------

    Molecular point group: c1
  Charge       = 0
  Multiplicity = 1
  Basis Set: 6-31G*
  Basis Set:
  @DF-RHF Final Energy:  -383.94052757395286
    Total Energy =                       -383.9405275739526360
    Molecular point group: c1
  Basis Set: 6-31G*
  Basis Set:
  Basis Set: 6-31G*
  Basis Set:
  @DF-RHF Final Energy:  -383.93739464113634
    Total Energy =                       -383.9373946411359384
  Basis Set: 6-31G*
  Basis Set:
  Basis Set: 6-31G*
  Basis Set:
  @DF-RHF Final Energy:  -383.94100560638122
    Total Energy =                       -383.9410056063811680
  Basis Set: 6-31G*
  Basis Set:
  Basis Set: 6-31G*
  Basis Set:
  @DF-RHF Final Energy:  -383.94106091352540
    Total Energy =                       -383.9410609135252344
  Basis Set: 6-31G*
  Basis Set:
  @DF-RHF Final Energy:  -383.94106558746989
    Total Energy =                       -383.9410655874695522
  @DF-RHF Final Energy:  -383.94106854079666
    Total Energy =                       -383.9410685407965502
  @DF-RHF Final Energy:  -383.94106997228266
    Total Energy =                       -383.9410699722825484
  @DF-RHF Final Energy:  -383.94106949344399
    Total Energy =                       -383.9410694934440471
  @DF-RHF Final Energy:  -383.94106894372067
    Total Energy =                       -383.9410689437205519
  @DF-RHF Final Energy:  -383.93983982911806
    Total Energy =                       -383.9398398291182275
  @DF-RHF Final Energy:  -383.94103349431703
    Total Energy =                       -383.9410334943172529
  @DF-RHF Final Energy:  -383.94106908738769
    Total Energy =                       -383.9410690873876320
  @DF-RHF Final Energy:  -383.94106856624745
    Total Energy =                       -383.9410685662472815
  @DF-RHF Final Energy:  -383.94012456907916
    Total Energy =                       -383.9401245690788755
  @DF-RHF Final Energy:  -383.94103995756905
    Total Energy =                       -383.9410399575692736
  @DF-RHF Final Energy:  -383.94106915692015
    Total Energy =                       -383.9410691569199798
  @DF-RHF Final Energy:  -383.94106945979109
    Total Energy =                       -383.9410694597912652
  @DF-RHF Final Energy:  -383.94106967042461
    Total Energy =                       -383.9410696704246675
  @DF-RHF Final Energy:  -383.94106965640242
    Total Energy =                       -383.9410696564023056
  @DF-RHF Final Energy:  -383.93883629164753
    Total Energy =                       -383.9388362916473625
  @DF-RHF Final Energy:  -383.94105448700850
    Total Energy =                       -383.9410544870087278
  @DF-RHF Final Energy:  -383.94105588159778
    Total Energy =                       -383.9410558815981176
  @DF-RHF Final Energy:  -383.94105610380063
    Total Energy =                       -383.9410561038007472
  @DF-RHF Final Energy:  -383.94105585858648
    Total Energy =                       -383.9410558585867648
  @DF-RHF Final Energy:  -383.94105575229514
    Total Energy =                       -383.9410557522953695
  @DF-RHF Final Energy:  -383.94105526283067
    Total Energy =                       -383.9410552628310143
  @DF-RHF Final Energy:  -383.94105545136097
    Total Energy =                       -383.9410554513609668
  @DF-RHF Final Energy:  -383.94105456712771
    Total Energy =                       -383.9410545671272530
  @DF-RHF Final Energy:  -383.94105556361546
    Total Energy =                       -383.9410555636154641
  @DF-RHF Final Energy:  -383.94105543123857
    Total Energy =                       -383.9410554312382828
  @DF-RHF Final Energy:  -383.94057960767412
    Total Energy =                       -383.9405796076744082
  @DF-RHF Final Energy:  -383.93590961627967
    Total Energy =                       -383.9359096162794458
  @DF-RHF Final Energy:  -383.93447521636125
    Total Energy =                       -383.9344752163616477
  @DF-RHF Final Energy:  -383.93681714395683
    Total Energy =                       -383.9368171439568869
  @DF-RHF Final Energy:  -383.93831998480681
    Total Energy =                       -383.9383199848068671
  @DF-RHF Final Energy:  -383.93956228287107
    Total Energy =                       -383.9395622828708383
  Basis Set: 6-31G*
  Basis Set:
  @DF-RHF Final Energy:  -383.93968284761587
    Total Energy =                       -383.9396828476155861
  Basis Set: 6-31G*
  Basis Set:
  Basis Set: 6-31G*
  Basis Set:
  @DF-RHF Final Energy:  -383.94007278480188
    Total Energy =                       -383.9400727848021688
  Basis Set: 6-31G*
  Basis Set:
  Basis Set: 6-31G*
  Basis Set:
  @DF-RHF Final Energy:  -383.93954109479523
    Total Energy =                       -383.9395410947948903
  Basis Set: 6-31G*
  Basis Set:
  Charge       = 0
  Multiplicity = 1
  Basis Set: 6-31G*
  Basis Set:

    Orbital Energies (a.u.)
    -----------------------

    Doubly Occupied:

       1A    -20.596569     2A    -20.548402     3A    -11.376690
       4A    -11.283233     5A    -11.235441     6A    -11.225758
       7A    -11.220645     8A    -11.213774     9A     -1.464463
      10A     -1.364042    11A     -1.084623    12A     -1.029136
      13A     -0.982123    14A     -0.879596    15A     -0.811375
      16A     -0.774750    17A     -0.693154    18A     -0.682415
      19A     -0.663021    20A     -0.632112    21A     -0.603271
      22A     -0.593240    23A     -0.571677    24A     -0.556982
      25A     -0.544179    26A     -0.524724    27A     -0.514561
      28A     -0.482837    29A     -0.474434    30A     -0.473121
      31A     -0.447207    32A     -0.438719

  @DF-RHF Final Energy:  -383.94057833322313

   => Energetics <=

    Nuclear Repulsion Energy =            385.2141961244149115
    One-Electron Energy =               -1286.3370046331724552
    Two-Electron Energy =                 517.1822301755341869
    DFT Exchange-Correlation Energy =       0.0000000000000000
    Empirical Dispersion Energy =           0.0000000000000000
    PCM Polarization Energy =               0.0000000000000000
    EFP Energy =                            0.0000000000000000
    Total Energy =                       -383.9405783332233568
    Molecular point group: c1
  Basis Set: 6-31G*
  Basis Set:

  -Total Gradient:
     Atom            X                  Y                   Z
    ------   -----------------  -----------------  -----------------
       1       -0.000324855436     0.002323857456     0.009110690544
       2       -0.002903616969     0.001704321087    -0.020173688866
       3        0.002195168081    -0.006671976060     0.002209028289
       4        0.004671661858    -0.004450177459     0.014461027534
       5       -0.000379488318    -0.000332512731     0.000881916856
       6       -0.002457045081     0.002285776169    -0.001374408582
       7        0.000132814726     0.001717139753     0.000381344632
       8       -0.004115392472     0.004575858945    -0.008078981601
       9        0.001278562052    -0.003040298229    -0.001429166777
      10        0.001556473115     0.000034973967     0.001297425661
      11        0.000980778152    -0.001453659422     0.000808636501
      12        0.000233460451    -0.002133871476     0.003099648285
      13       -0.000548166295    -0.000807656095    -0.000479494557
      14        0.000498949912     0.001906913822     0.001016079065
      15       -0.001187701280    -0.000090416694     0.001024642842
      16       -0.002098418783     0.001321214474     0.000616939199
      17        0.000521977248     0.001478105732    -0.002317659170
      18        0.001590732215     0.001365318954     0.000402606688
      19        0.000111528194    -0.000769630816    -0.000226126533
      20        0.000242578633     0.001036718624    -0.001230460011

    Molecular point group: c1

    Geometry (in Angstrom), charge = 0, multiplicity = 1:

    O           -2.535450746041    -0.958609834079     0.016269855994
    C           -1.917714449368     0.053609756886    -0.079862779621
    C           -2.480087578687     1.368220664040    -0.521946564106
    O           -0.643194323735     0.165991911759     0.289417651207
    H           -1.974412921522     1.711629113362    -1.424649788393
    H           -3.527900116123     1.309376949304    -0.721372340163
    H           -2.307666380968     2.111603442986     0.252880955542
    C            0.152507776047    -1.007602691932     0.185471153870
    C            1.578567679748    -0.667356540722     0.550769316965
    H            0.094272146888    -1.376611964302    -0.833094966232
    H           -0.241707574720    -1.770771126394     0.841084232567
    C            2.230826131372     0.360848524726    -0.390305451950
    H            2.145881213824    -1.595526279726     0.521749928423
    H            1.594528908150    -0.315309435350     1.573461550405
    C            3.682911538037     0.651766805483    -0.034353519670
    H            2.172306798907    -0.004932873653    -1.413436754328
    H            1.659552100636     1.285135073458    -0.369105588736
    H            4.131219694302     1.360911121594    -0.723451995726
    H            4.274412642407    -0.254282351431    -0.062657359941
    H            3.765312563660     1.075124082892     0.962802779196

  Mulliken Charges: (a.u.)
   Center  Symbol    Alpha    Beta     Spin     Total
       1     O     4.27542  4.27542  0.00000 -0.55084
       2     C     2.61648  2.61648  0.00000  0.76704
       3     C     3.28414  3.28414  0.00000 -0.56829
       4     O     4.31282  4.31282  0.00000 -0.62563
       5     H     0.40218  0.40218  0.00000  0.19564
       6     H     0.39688  0.39688  0.00000  0.20625
       7     H     0.39818  0.39818  0.00000  0.20364
       8     C     3.00251  3.00251  0.00000 -0.00501
       9     C     3.16433  3.16433  0.00000 -0.32866
      10     H     0.41819  0.41819  0.00000  0.16361
      11     H     0.40477  0.40477  0.00000  0.19046
      12     C     3.15471  3.15471  0.00000 -0.30942
      13     H     0.41853  0.41853  0.00000  0.16294
      14     H     0.41389  0.41389  0.00000  0.17223
      15     C     3.24047  3.24047  0.00000 -0.48094
      16     H     0.42472  0.42472  0.00000  0.15055
      17     H     0.41184  0.41184  0.00000  0.17633
      18     H     0.41803  0.41803  0.00000  0.16395
      19     H     0.42187  0.42187  0.00000  0.15626
      20     H     0.42005  0.42005  0.00000  0.15991

   Total alpha = 32.00000, Total beta = 32.00000, Total charge =  0.00000
