                              Psi4 1.0.54 Driver

  ==> Input File <==

--------------------------------------------------------------------------
set {
	reference rhf
	basis cc-pvtz
}

set_num_threads( 4 )
memory 2 gb

molecule MOL {
0 1

H	 1.043763	 0.573516	 -0.345546
C	 0.788096	 -0.429819	 0.000000
N	 -0.537714	 -0.645117	 0.000000
O	 1.623368	 -1.211168	 0.329441
C	 -1.522613	 0.412524	 0.000000
H	 -0.845894	 -1.585866	 0.000000
H	 -2.150256	 0.356137	 -0.880771
H	 -1.005621	 1.357208	 0.000000
H	 -2.150256	 0.356137	 0.880771

	symmetry c1
}
set optking {
	frozen_dihedral = ("
		1 2 3 6
	")
}

ee,wfn = optimize('scf', return_wfn=True)
oeprop( wfn, 'DIPOLE', 'QUADRUPOLE', 'MULLIKEN_CHARGES')
f=open( 'psi4out.xyz', 'w' )
f.write( "9  " )
f.write( str(ee) + "\n" )
f.write( MOL.save_string_xyz() )
f.close()
--------------------------------------------------------------------------

    Molecular point group: c1
  Charge       = 0
  Multiplicity = 1
  Basis Set: CC-PVTZ
  Basis Set:
  @DF-RHF Final Energy:  -208.03765094160403
    Total Energy =                       -208.0376509416040278
    Molecular point group: c1
  Basis Set: CC-PVTZ
  Basis Set:
  Basis Set: CC-PVTZ
  Basis Set:
  @DF-RHF Final Energy:  -208.03626510192188
    Total Energy =                       -208.0362651019218561
  Basis Set: CC-PVTZ
  Basis Set:
  Basis Set: CC-PVTZ
  Basis Set:
  @DF-RHF Final Energy:  -208.03958852666818
    Total Energy =                       -208.0395885266682967
  Basis Set: CC-PVTZ
  Basis Set:
  Basis Set: CC-PVTZ
  Basis Set:
  @DF-RHF Final Energy:  -208.04022046036414
    Total Energy =                       -208.0402204603641110
  Basis Set: CC-PVTZ
  Basis Set:
  @DF-RHF Final Energy:  -208.04039698905325
    Total Energy =                       -208.0403969890532494
  @DF-RHF Final Energy:  -208.04044278064907
    Total Energy =                       -208.0404427806491015
  Basis Set: CC-PVTZ
  Basis Set:
  @DF-RHF Final Energy:  -208.04051199911316
    Total Energy =                       -208.0405119991130221
  Basis Set: CC-PVTZ
  Basis Set:
  Basis Set: CC-PVTZ
  Basis Set:
  @DF-RHF Final Energy:  -208.04054460826418
    Total Energy =                       -208.0405446082641561
  Basis Set: CC-PVTZ
  Basis Set:
  Basis Set: CC-PVTZ
  Basis Set:
  @DF-RHF Final Energy:  -208.04055698920604
    Total Energy =                       -208.0405569892061237
  Basis Set: CC-PVTZ
  Basis Set:
  Charge       = 0
  Multiplicity = 1
  Basis Set: CC-PVTZ
  Basis Set:

    Orbital Energies (a.u.)
    -----------------------

    Doubly Occupied:

       1A    -20.520595     2A    -15.583408     3A    -11.339611
       4A    -11.273047     5A     -1.397181     6A     -1.242695
       7A     -0.964415     8A     -0.846324     9A     -0.693781
      10A     -0.679345    11A     -0.636632    12A     -0.595410
      13A     -0.569889    14A     -0.548695    15A     -0.431610
      16A     -0.397767

  @DF-RHF Final Energy:  -208.04055758462329

   => Energetics <=

    Nuclear Repulsion Energy =            120.6844043899311032
    One-Electron Energy =                -522.0091159199233743
    Two-Electron Energy =                 193.2841539453689563
    DFT Exchange-Correlation Energy =       0.0000000000000000
    Empirical Dispersion Energy =           0.0000000000000000
    PCM Polarization Energy =               0.0000000000000000
    EFP Energy =                            0.0000000000000000
    Total Energy =                       -208.0405575846233148
    Molecular point group: c1
  Basis Set: CC-PVTZ
  Basis Set:

  -Total Gradient:
     Atom            X                  Y                   Z
    ------   -----------------  -----------------  -----------------
       1       -0.000792159630    -0.001081778432    -0.004775232442
       2        0.000629410681     0.001764597617     0.004618498651
       3        0.001193126913    -0.001278522179     0.005513923699
       4        0.000127860922    -0.000122857755     0.000021498445
       5       -0.000051500599     0.000030136843    -0.000031943746
       6       -0.001143121509     0.000706162612    -0.005361953125
       7        0.000015637985     0.000009934481     0.000044878562
       8       -0.000014588961    -0.000031440821    -0.000001479249
       9        0.000035334197     0.000003767633    -0.000028190795

  **** Optimization is complete! (in 10 steps) ****
    Final optimized geometry and variables:
    Molecular point group: c1

    Geometry (in Angstrom), charge = 0, multiplicity = 1:

    H            0.959195207586     1.074553573990    -0.346496846131
    C            0.711606978052     0.047278354750    -0.070166115358
    N           -0.602217674892    -0.131912705451     0.189360806760
    O            1.534386261333    -0.808918241396    -0.036405286955
    C           -1.592382702109     0.890547126194    -0.056859912153
    H           -0.906682526407    -1.076808431757     0.134468765902
    H           -2.040046216166     0.809814381916    -1.041859063318
    H           -1.132309394667     1.864952040255     0.028641742968
    H           -2.377311546544     0.831921941638     0.684455494944

  Mulliken Charges: (a.u.)
   Center  Symbol    Alpha    Beta     Spin     Total
       1     H     0.47180  0.47180  0.00000  0.05639
       2     C     2.87819  2.87819  0.00000  0.24363
       3     N     3.59887  3.59887  0.00000 -0.19774
       4     O     4.20394  4.20394  0.00000 -0.40789
       5     C     3.07552  3.07552  0.00000 -0.15105
       6     H     0.41308  0.41308  0.00000  0.17384
       7     H     0.45682  0.45682  0.00000  0.08636
       8     H     0.45370  0.45370  0.00000  0.09260
       9     H     0.44808  0.44808  0.00000  0.10385

   Total alpha = 16.00000, Total beta = 16.00000, Total charge =  0.00000

*** Psi4 exiting successfully. Buy a developer a beer!
