  ==> Input File <==

--------------------------------------------------------------------------
set {
	reference rhf
	basis 6-31G*
}

set_num_threads( 1 )
memory 2 gb

molecule MOL {
0 1

H	 -3.534734	 -0.498565	 -1.493211
O	 -3.452007	 0.283848	 -0.965577
C	 -3.181085	 -0.079926	 0.364119
C	 -1.765924	 0.277073	 0.805136
H	 -3.327791	 -1.152017	 0.410903
H	 -3.905698	 0.375695	 1.036898
C	 -0.677594	 -0.417312	 -0.014550
H	 -1.637766	 1.358238	 0.744969
H	 -1.659588	 0.017670	 1.857098
C	 0.738335	 -0.034840	 0.421385
H	 -0.814977	 -0.178223	 -1.064632
H	 -0.802730	 -1.495410	 0.071702
C	 1.822265	 -0.738362	 -0.399735
H	 0.853533	 1.043532	 0.342250
H	 0.871597	 -0.279636	 1.474438
C	 3.258060	 -0.455774	 0.057203
H	 1.718003	 -0.459167	 -1.447053
H	 1.651028	 -1.811884	 -0.354513
C	 3.709143	 0.994797	 -0.123830
H	 3.930637	 -1.101717	 -0.501982
H	 3.365259	 -0.739518	 1.102287
H	 3.601178	 1.310569	 -1.158127
H	 4.753787	 1.110486	 0.148516
H	 3.135362	 1.678896	 0.492569

	symmetry c1
}
set optking {
	frozen_dihedral = ("
		20 16 13 17,
		17 13 10 7,
		13 10 7 11,
		11 7 4 3,
		7 4 3 2
	")
}

ee = energy('scf')
oeprop('DIPOLE', 'QUADRUPOLE', 'MULLIKEN_CHARGES')
f=open( 'psi4out.xyz', 'w' )
f.write( "24  " )
f.write( str(ee) + "\n" )
f.write( MOL.save_string_xyz() )
f.close()
--------------------------------------------------------------------------

    Molecular point group: c1

    Geometry (in Angstrom), charge = 0, multiplicity = 1:

       Center              X                  Y                   Z               Mass
    ------------   -----------------  -----------------  -----------------  -----------------
           H         -3.533744381099    -0.483585000854    -1.489314452073     1.007825032070
           O         -3.451017381099     0.298827999146    -0.961680452073    15.994914619560
           C         -3.180095381099    -0.064946000854     0.368015547927    12.000000000000
           C         -1.764934381099     0.292052999146     0.809032547927    12.000000000000
           H         -3.326801381099    -1.137037000854     0.414799547927     1.007825032070
           H         -3.904708381099     0.390674999146     1.040794547927     1.007825032070
           C         -0.676604381099    -0.402332000854    -0.010653452073    12.000000000000
           H         -1.636776381099     1.373217999146     0.748865547927     1.007825032070
           H         -1.658598381099     0.032649999146     1.860994547927     1.007825032070
           C          0.739324618901    -0.019860000854     0.425281547927    12.000000000000
           H         -0.813987381099    -0.163243000854    -1.060735452073     1.007825032070
           H         -0.801740381099    -1.480430000854     0.075598547927     1.007825032070
           C          1.823254618901    -0.723382000854    -0.395838452073    12.000000000000
           H          0.854522618901     1.058511999146     0.346146547927     1.007825032070
           H          0.872586618901    -0.264656000854     1.478334547927     1.007825032070
           C          3.259049618901    -0.440794000854     0.061099547927    12.000000000000
           H          1.718992618901    -0.444187000854    -1.443156452073     1.007825032070
           H          1.652017618901    -1.796904000854    -0.350616452073     1.007825032070
           C          3.710132618901     1.009776999146    -0.119933452073    12.000000000000
           H          3.931626618901    -1.086737000854    -0.498085452073     1.007825032070
           H          3.366248618901    -0.724538000854     1.106183547927     1.007825032070
           H          3.602167618901     1.325548999146    -1.154230452073     1.007825032070
           H          4.754776618901     1.125465999146     0.152412547927     1.007825032070
           H          3.136351618901     1.693875999146     0.496465547927     1.007825032070

  Charge       = 0
  Multiplicity = 1
  Basis Set: 6-31G*
  Basis Set:

    Orbital Energies (a.u.)
    -----------------------

    Doubly Occupied:

       1A    -20.551709     2A    -11.268423     3A    -11.214124
       4A    -11.213337     5A    -11.212590     6A    -11.212194
       7A    -11.211753     8A    -11.206764     9A     -1.359448
      10A     -1.088321    11A     -1.047552    12A     -0.985217
      13A     -0.915011    14A     -0.847846    15A     -0.792476
      16A     -0.776509    17A     -0.702370    18A     -0.644454
      19A     -0.630306    20A     -0.609415    21A     -0.597058
      22A     -0.581145    23A     -0.560721    24A     -0.537489
      25A     -0.513648    26A     -0.510174    27A     -0.494812
      28A     -0.473461    29A     -0.466074    30A     -0.459391
      31A     -0.456057    32A     -0.450382    33A     -0.417987

  @DF-RHF Final Energy:  -349.24461809121834

   => Energetics <=

    Nuclear Repulsion Energy =            384.3560680149788027
    One-Electron Energy =               -1235.1850177285045902
    Two-Electron Energy =                 501.5843316223072179
    DFT Exchange-Correlation Energy =       0.0000000000000000
    Empirical Dispersion Energy =           0.0000000000000000
    PCM Polarization Energy =               0.0000000000000000
    EFP Energy =                            0.0000000000000000
    Total Energy =                       -349.2446180912186264

  Mulliken Charges: (a.u.)
   Center  Symbol    Alpha    Beta     Spin     Total
       1     H     0.27859  0.27859  0.00000  0.44283
       2     O     4.37166  4.37166  0.00000 -0.74333
       3     C     2.99768  2.99768  0.00000  0.00464
       4     C     3.15811  3.15811  0.00000 -0.31623
       5     H     0.43458  0.43458  0.00000  0.13085
       6     H     0.41927  0.41927  0.00000  0.16146
       7     C     3.15739  3.15739  0.00000 -0.31479
       8     H     0.41628  0.41628  0.00000  0.16745
       9     H     0.42493  0.42493  0.00000  0.15015
      10     C     3.15332  3.15332  0.00000 -0.30664
      11     H     0.41471  0.41471  0.00000  0.17058
      12     H     0.42862  0.42862  0.00000  0.14275
      13     C     3.15232  3.15232  0.00000 -0.30463
      14     H     0.41994  0.41994  0.00000  0.16011
      15     H     0.42518  0.42518  0.00000  0.14964
      16     C     3.15227  3.15227  0.00000 -0.30454
      17     H     0.42388  0.42388  0.00000  0.15224
      18     H     0.42349  0.42349  0.00000  0.15302
      19     C     3.24112  3.24112  0.00000 -0.48225
      20     H     0.42144  0.42144  0.00000  0.15712
      21     H     0.42375  0.42375  0.00000  0.15249
      22     H     0.42201  0.42201  0.00000  0.15598
      23     H     0.41962  0.41962  0.00000  0.16075
      24     H     0.41982  0.41982  0.00000  0.16037

   Total alpha = 33.00000, Total beta = 33.00000, Total charge =  0.00000
