                              Psi4 1.0.54 Driver

  ==> Input File <==

--------------------------------------------------------------------------
set {
	reference rhf
	basis cc-pvtz
}

set_num_threads( 4 )
memory 2 gb

molecule MOL {
0 1

H	 -4.230259	 0.539112	 0.036360
O	 -3.515113	 -0.019339	 -0.206321
C	 -2.302264	 0.528872	 0.237390
C	 -1.175688	 -0.398187	 -0.171891
H	 -2.148018	 1.514076	 -0.197759
H	 -2.310727	 0.646384	 1.319032
C	 0.196029	 0.106276	 0.266738
H	 -1.201873	 -0.515469	 -1.250677
H	 -1.365975	 -1.378728	 0.252664
C	 1.330220	 -0.826136	 -0.155230
H	 0.359542	 1.097229	 -0.145561
H	 0.212134	 0.218135	 1.348778
C	 2.719700	 -0.407669	 0.328325
H	 1.339388	 -0.911200	 -1.239363
H	 1.119001	 -1.821953	 0.224128
C	 2.720236	 0.611219	 1.465525
H	 3.263142	 0.010958	 -0.513179
H	 3.273326	 -1.291065	 0.635807
H	 2.167351	 1.503386	 1.189088
H	 2.273824	 0.212399	 2.368491
H	 3.732147	 0.913660	 1.709940

	symmetry c1
}
set optking {
	frozen_dihedral = ("
		16 13 10 14
	")
}

ee,wfn = optimize('scf', return_wfn=True)
oeprop( wfn, 'DIPOLE', 'QUADRUPOLE', 'MULLIKEN_CHARGES')
f=open( 'psi4out.xyz', 'w' )
f.write( "21  " )
f.write( str(ee) + "\n" )
f.write( MOL.save_string_xyz() )
f.close()
--------------------------------------------------------------------------

    Molecular point group: c1
  Charge       = 0
  Multiplicity = 1
  Basis Set: CC-PVTZ
  Basis Set:
  @DF-RHF Final Energy:  -310.32452290699206
    Total Energy =                       -310.3245229069921152
    Molecular point group: c1
  Basis Set: CC-PVTZ
  Basis Set:
  Basis Set: CC-PVTZ
  Basis Set:
  @DF-RHF Final Energy:  -310.21508432420472
    Total Energy =                       -310.2150843242051792
  Basis Set: CC-PVTZ
  Basis Set:
  Basis Set: CC-PVTZ
  Basis Set:
  @DF-RHF Final Energy:  -310.30404566563152
    Total Energy =                       -310.3040456656314063
  Basis Set: CC-PVTZ
  Basis Set:
  Basis Set: CC-PVTZ
  Basis Set:
  @DF-RHF Final Energy:  -310.32563774508776
    Total Energy =                       -310.3256377450875902
  Basis Set: CC-PVTZ
  Basis Set:
  @DF-RHF Final Energy:  -310.32627012086607
    Total Energy =                       -310.3262701208657859
  Basis Set: CC-PVTZ
  Basis Set:
  @DF-RHF Final Energy:  -310.32635089858530
    Total Energy =                       -310.3263508985851900
  Basis Set: CC-PVTZ
  Basis Set:
  Basis Set: CC-PVTZ
  Basis Set:
  @DF-RHF Final Energy:  -310.32635387910688
    Total Energy =                       -310.3263538791068186
  Basis Set: CC-PVTZ
  Basis Set:
  Basis Set: CC-PVTZ
  Basis Set:
  @DF-RHF Final Energy:  -310.32635885522092
    Total Energy =                       -310.3263588552208034
  Basis Set: CC-PVTZ
  Basis Set:
  Charge       = 0
  Multiplicity = 1
  Basis Set: CC-PVTZ
  Basis Set:

    Orbital Energies (a.u.)
    -----------------------

    Doubly Occupied:

       1A    -20.545262     2A    -11.264796     3A    -11.213349
       4A    -11.212872     5A    -11.211526     6A    -11.208599
       7A    -11.206221     8A     -1.363078     9A     -1.085371
      10A     -1.032320    11A     -0.954872    12A     -0.879505
      13A     -0.809636    14A     -0.772077    15A     -0.695356
      16A     -0.664658    17A     -0.630551    18A     -0.598573
      19A     -0.584588    20A     -0.576438    21A     -0.534040
      22A     -0.527993    23A     -0.506998    24A     -0.486523
      25A     -0.485945    26A     -0.457487    27A     -0.448677
      28A     -0.444319    29A     -0.437108

  @DF-RHF Final Energy:  -310.32635895272460

   => Energetics <=

    Nuclear Repulsion Energy =            313.7426634116981177
    One-Electron Energy =               -1042.4605771486117192
    Two-Electron Energy =                 418.3915547841890543
    DFT Exchange-Correlation Energy =       0.0000000000000000
    Empirical Dispersion Energy =           0.0000000000000000
    PCM Polarization Energy =               0.0000000000000000
    EFP Energy =                            0.0000000000000000
    Total Energy =                       -310.3263589527245472
    Molecular point group: c1
  Basis Set: CC-PVTZ
  Basis Set:

  -Total Gradient:
     Atom            X                  Y                   Z
    ------   -----------------  -----------------  -----------------
       1       -0.000011396884    -0.000004600651    -0.000010995183
       2       -0.000016054697     0.000021830660     0.000017681901
       3        0.000007781904    -0.000035828612    -0.000023575178
       4        0.000012726454    -0.000000415879     0.000040481185
       5        0.000002302505    -0.000006925734     0.000003677205
       6        0.000003277557     0.000002610937    -0.000010511803
       7        0.000020369586     0.000023608546    -0.000021506687
       8       -0.000008329068     0.000010976900     0.000020754567
       9       -0.000007627802     0.000000469924    -0.000005850612
      10        0.001785469160    -0.004866837956    -0.001281377566
      11       -0.000008362833    -0.000000072835    -0.000015982561
      12        0.000007946946     0.000004691070     0.000016874121
      13       -0.001680961613    -0.003978956321     0.002691186617
      14       -0.001049536348     0.005291952967     0.000417886577
      15        0.000012672886     0.000000216007     0.000000741214
      16        0.000958959340     0.003565419621    -0.001821752653
      17       -0.000022693227    -0.000001545710    -0.000015937054
      18        0.000002412737    -0.000019400453    -0.000011729531
      19        0.000020495915    -0.000005506461     0.000025611371
      20       -0.000017917541     0.000011385079    -0.000011225141
      21       -0.000011534979    -0.000013071095    -0.000004450792

  **** Optimization is complete! (in 9 steps) ****
    Final optimized geometry and variables:
    Molecular point group: c1

    Geometry (in Angstrom), charge = 0, multiplicity = 1:

    H           -3.747474782213     1.125265063941    -1.608006500382
    O           -3.011364329933     0.547994264748    -1.691805052327
    C           -2.061728590697     0.828526056055    -0.697809889845
    C           -0.893063224669    -0.121513533053    -0.865002564157
    H           -1.717444551599     1.857370742641    -0.779965365739
    H           -2.498947842659     0.707669004290     0.291090673958
    C            0.203718648307     0.100440719723     0.172524849411
    H           -0.491642738886     0.000856831425    -1.865922862388
    H           -1.265812494421    -1.138971609935    -0.801553783465
    C            1.374140444878    -0.868630340585    -0.010646137763
    H            0.562576897503     1.123894333845     0.099492565409
    H           -0.218929625375    -0.005999879146     1.166445706409
    C            2.563924232183    -0.701725735390     0.964079263781
    H            1.739856764358    -0.719133156257    -1.021144801851
    H            0.992322921104    -1.882548886036     0.044901936971
    C            2.291284562744     0.040280410280     2.271763968447
    H            3.357632090210    -0.168508678047     0.449857752344
    H            2.970044574043    -1.681091286735     1.191561261188
    H            1.972077130444     1.060031990715     2.098464946215
    H            1.528258767721    -0.449586274592     2.867287829817
    H            3.194782786287     0.077826545992     2.869711588612

  Mulliken Charges: (a.u.)
   Center  Symbol    Alpha    Beta     Spin     Total
       1     H     0.39768  0.39768  0.00000  0.20464
       2     O     4.19406  4.19406  0.00000 -0.38812
       3     C     2.96325  2.96325  0.00000  0.07351
       4     C     3.08479  3.08479  0.00000 -0.16959
       5     H     0.47512  0.47512  0.00000  0.04975
       6     H     0.47497  0.47497  0.00000  0.05006
       7     C     3.10436  3.10436  0.00000 -0.20873
       8     H     0.45077  0.45077  0.00000  0.09847
       9     H     0.45118  0.45118  0.00000  0.09764
      10     C     3.09558  3.09558  0.00000 -0.19117
      11     H     0.45436  0.45436  0.00000  0.09127
      12     H     0.45227  0.45227  0.00000  0.09546
      13     C     3.08766  3.08766  0.00000 -0.17532
      14     H     0.45121  0.45121  0.00000  0.09759
      15     H     0.45103  0.45103  0.00000  0.09795
      16     C     3.15713  3.15713  0.00000 -0.31427
      17     H     0.45362  0.45362  0.00000  0.09276
      18     H     0.45000  0.45000  0.00000  0.10000
      19     H     0.45237  0.45237  0.00000  0.09527
      20     H     0.45386  0.45386  0.00000  0.09227
      21     H     0.44472  0.44472  0.00000  0.11056

   Total alpha = 29.00000, Total beta = 29.00000, Total charge = -0.00000

*** Psi4 exiting successfully. Buy a developer a beer!
