  ==> Input File <==

--------------------------------------------------------------------------
set {
	reference rhf
	basis 6-31G*
}

set_num_threads( 1 )
memory 2 gb

molecule MOL {
0 1

O	 2.862325	 1.357334	 0.000267
C	 2.843464	 0.164689	 -0.000222
C	 1.546494	 -0.624492	 -0.000609
C	 4.124123	 -0.644674	 -0.000428
C	 0.291004	 0.242674	 0.000989
H	 1.557904	 -1.283758	 -0.867573
H	 1.558622	 -1.285963	 0.864672
C	 -0.994322	 -0.586602	 0.000262
H	 0.309117	 0.896430	 -0.865270
H	 0.309661	 0.894078	 0.869017
C	 -2.259874	 0.272531	 0.000494
H	 -1.004862	 -1.240012	 -0.870939
H	 -1.005220	 -1.241071	 0.870675
C	 -3.204372	 -0.040618	 -1.161347
H	 -1.980520	 1.323988	 -0.037154
H	 -2.789182	 0.132483	 0.941353
C	 -4.466097	 0.821755	 -1.154421
H	 -2.676741	 0.100173	 -2.102414
H	 -3.485522	 -1.091052	 -1.123906
H	 -4.219707	 1.877423	 -1.225171
H	 -5.114972	 0.577017	 -1.989745
H	 -5.034834	 0.676906	 -0.240255
H	 4.165367	 -1.288615	 -0.874074
H	 4.976217	 0.020734	 -0.001915
H	 4.166763	 -1.286207	 0.874930

	symmetry c1
}
set optking {
	frozen_dihedral = ("
		9 5 8 12,
		15 11 14 18,
		1 2 3 6,
		9 5 3 6
	")
}

ee = energy('scf')
oeprop('DIPOLE', 'QUADRUPOLE', 'MULLIKEN_CHARGES')
f=open( 'psi4out.xyz', 'w' )
f.write( "25  " )
f.write( str(ee) + "\n" )
f.write( MOL.save_string_xyz() )
f.close()
--------------------------------------------------------------------------

    Molecular point group: c1

    Geometry (in Angstrom), charge = 0, multiplicity = 1:

       Center              X                  Y                   Z               Mass
    ------------   -----------------  -----------------  -----------------  -----------------
           O          2.784277706171     1.242295078603     0.262537241880    15.994914619560
           C          2.765416706171     0.049650078603     0.262048241880    12.000000000000
           C          1.468446706171    -0.739530921397     0.261661241880    12.000000000000
           C          4.046075706171    -0.759712921397     0.261842241880    12.000000000000
           C          0.212956706171     0.127635078603     0.263259241880    12.000000000000
           H          1.479856706171    -1.398796921397    -0.605302758120     1.007825032070
           H          1.480574706171    -1.401001921397     1.126942241880     1.007825032070
           C         -1.072369293829    -0.701640921397     0.262532241880    12.000000000000
           H          0.231069706171     0.781391078603    -0.602999758120     1.007825032070
           H          0.231613706171     0.779039078603     1.131287241880     1.007825032070
           C         -2.337921293829     0.157492078603     0.262764241880    12.000000000000
           H         -1.082909293829    -1.355050921397    -0.608668758120     1.007825032070
           H         -1.083267293829    -1.356109921397     1.132945241880     1.007825032070
           C         -3.282419293829    -0.155656921397    -0.899076758120    12.000000000000
           H         -2.058567293829     1.208949078603     0.225116241880     1.007825032070
           H         -2.867229293829     0.017444078603     1.203623241880     1.007825032070
           C         -4.544144293829     0.706716078603    -0.892150758120    12.000000000000
           H         -2.754788293829    -0.014865921397    -1.840143758120     1.007825032070
           H         -3.563569293829    -1.206090921397    -0.861635758120     1.007825032070
           H         -4.297754293829     1.762384078603    -0.962900758120     1.007825032070
           H         -5.193019293829     0.461978078603    -1.727474758120     1.007825032070
           H         -5.112881293829     0.561867078603     0.022015241880     1.007825032070
           H          4.087319706171    -1.403653921397    -0.611803758120     1.007825032070
           H          4.898169706171    -0.094304921397     0.260355241880     1.007825032070
           H          4.088715706171    -1.401245921397     1.137200241880     1.007825032070

  Charge       = 0
  Multiplicity = 1
  Basis Set: 6-31G*
  Basis Set:

    Orbital Energies (a.u.)
    -----------------------

    Doubly Occupied:

       1A    -20.550400     2A    -11.326224     3A    -11.231412
       4A    -11.228255     5A    -11.217201     6A    -11.215475
       7A    -11.215160     8A    -11.211849     9A    -11.207559
      10A     -1.395720    11A     -1.093761    12A     -1.055795
      13A     -1.014097    14A     -0.968998    15A     -0.889971
      16A     -0.817383    17A     -0.789126    18A     -0.730189
      19A     -0.655218    20A     -0.651949    21A     -0.634482
      22A     -0.620665    23A     -0.601077    24A     -0.582016
      25A     -0.565686    26A     -0.563859    27A     -0.539805
      28A     -0.528776    29A     -0.508268    30A     -0.489386
      31A     -0.486218    32A     -0.479732    33A     -0.465009
      34A     -0.454211    35A     -0.448319    36A     -0.399307

  @DF-RHF Final Energy:  -387.13100980733657

   => Energetics <=

    Nuclear Repulsion Energy =            440.3666050215626910
    One-Electron Energy =               -1397.3302689907561671
    Two-Electron Energy =                 569.8326541618561123
    DFT Exchange-Correlation Energy =       0.0000000000000000
    Empirical Dispersion Energy =           0.0000000000000000
    PCM Polarization Energy =               0.0000000000000000
    EFP Energy =                            0.0000000000000000
    Total Energy =                       -387.1310098073373638

  Mulliken Charges: (a.u.)
   Center  Symbol    Alpha    Beta     Spin     Total
       1     O     4.26130  4.26130  0.00000 -0.52261
       2     C     2.73570  2.73570  0.00000  0.52860
       3     C     3.21130  3.21130  0.00000 -0.42259
       4     C     3.28666  3.28666  0.00000 -0.57332
       5     C     3.15085  3.15085  0.00000 -0.30170
       6     H     0.40993  0.40993  0.00000  0.18014
       7     H     0.41003  0.41003  0.00000  0.17994
       8     C     3.15633  3.15633  0.00000 -0.31267
       9     H     0.41204  0.41204  0.00000  0.17592
      10     H     0.41150  0.41150  0.00000  0.17701
      11     C     3.15381  3.15381  0.00000 -0.30762
      12     H     0.42217  0.42217  0.00000  0.15566
      13     H     0.42251  0.42251  0.00000  0.15498
      14     C     3.15389  3.15389  0.00000 -0.30778
      15     H     0.41819  0.41819  0.00000  0.16361
      16     H     0.42139  0.42139  0.00000  0.15722
      17     C     3.24005  3.24005  0.00000 -0.48011
      18     H     0.42293  0.42293  0.00000  0.15414
      19     H     0.42313  0.42313  0.00000  0.15374
      20     H     0.42081  0.42081  0.00000  0.15838
      21     H     0.41966  0.41966  0.00000  0.16067
      22     H     0.42184  0.42184  0.00000  0.15633
      23     H     0.40876  0.40876  0.00000  0.18249
      24     H     0.39651  0.39651  0.00000  0.20698
      25     H     0.40871  0.40871  0.00000  0.18258

   Total alpha = 36.00000, Total beta = 36.00000, Total charge =  0.00000
