                              Psi4 1.0.54 Driver

  ==> Input File <==

--------------------------------------------------------------------------
set {
	reference rhf
	basis cc-pvtz
}

set_num_threads( 4 )
memory 2 gb

molecule MOL {
0 1

O	 -0.694516	 1.313191	 -0.204838
C	 -0.862554	 0.151968	 -0.046814
C	 -2.171463	 -0.477012	 0.339072
O	 0.085484	 -0.757047	 -0.192261
H	 -2.468032	 -1.191631	 -0.417711
H	 -2.923414	 0.288006	 0.444074
H	 -2.053889	 -1.015084	 1.270878
C	 1.392001	 -0.330792	 -0.560772
C	 2.205692	 0.087737	 0.646141
H	 1.315037	 0.473392	 -1.275741
H	 1.833918	 -1.189509	 -1.043541
H	 3.212825	 0.341293	 0.334943
H	 1.769788	 0.953977	 1.124679
H	 2.264923	 -0.719411	 1.366278

	symmetry c1
}
ee,wfn = energy('scf', return_wfn=True)
oeprop( wfn, 'DIPOLE', 'QUADRUPOLE', 'MULLIKEN_CHARGES')
oeprop( wfn, 'GRID_ESP')
f=open( 'psi4out.xyz', 'w' )
f.write( "14  " )
f.write( str(ee) + "\n" )
f.write( MOL.save_string_xyz() )
f.close()
--------------------------------------------------------------------------

    Molecular point group: c1

    Geometry (in Angstrom), charge = 0, multiplicity = 1:

       Center              X                  Y                   Z               Mass
    ------------   -----------------  -----------------  -----------------  -----------------
           O         -0.694481316684     1.313154552245    -0.204814532777    15.994914619560
           C         -0.862519316684     0.151931552245    -0.046790532777    12.000000000000
           C         -2.171428316684    -0.477048447755     0.339095467223    12.000000000000
           O          0.085518683316    -0.757083447755    -0.192237532777    15.994914619560
           H         -2.467997316684    -1.191667447755    -0.417687532777     1.007825032070
           H         -2.923379316684     0.287969552245     0.444097467223     1.007825032070
           H         -2.053854316684    -1.015120447755     1.270901467223     1.007825032070
           C          1.392035683316    -0.330828447755    -0.560748532777    12.000000000000
           C          2.205726683316     0.087700552245     0.646164467223    12.000000000000
           H          1.315071683316     0.473355552245    -1.275717532777     1.007825032070
           H          1.833952683316    -1.189545447755    -1.043517532777     1.007825032070
           H          3.212859683316     0.341256552245     0.334966467223     1.007825032070
           H          1.769822683316     0.953940552245     1.124702467223     1.007825032070
           H          2.264957683316    -0.719447447755     1.366301467223     1.007825032070

  Charge       = 0
  Multiplicity = 1
  Basis Set: CC-PVTZ
  Basis Set:

    Orbital Energies (a.u.)
    -----------------------

    Doubly Occupied:

       1A    -20.594409     2A    -20.533093     3A    -11.368023
       4A    -11.283120     5A    -11.231632     6A    -11.216985
       7A     -1.470610     8A     -1.365795     9A     -1.056060
      10A     -0.999458    11A     -0.883725    12A     -0.767192
      13A     -0.701283    14A     -0.685701    15A     -0.660707
      16A     -0.611827    17A     -0.587377    18A     -0.571141
      19A     -0.560202    20A     -0.529762    21A     -0.519018
      22A     -0.494824    23A     -0.454501    24A     -0.442307

  @DF-RHF Final Energy:  -305.99117144769025

   => Energetics <=

    Nuclear Repulsion Energy =            249.1666155014031574
    One-Electron Energy =                -911.1379315382894220
    Two-Electron Energy =                 355.9801445891963567
    DFT Exchange-Correlation Energy =       0.0000000000000000
    Empirical Dispersion Energy =           0.0000000000000000
    PCM Polarization Energy =               0.0000000000000000
    EFP Energy =                            0.0000000000000000
    Total Energy =                       -305.9911714476899078

  Mulliken Charges: (a.u.)
   Center  Symbol    Alpha    Beta     Spin     Total
       1     O     4.19919  4.19919  0.00000 -0.39839
       2     C     2.80178  2.80178  0.00000  0.39645
       3     C     3.13846  3.13846  0.00000 -0.27692
       4     O     4.15734  4.15734  0.00000 -0.31468
       5     H     0.44560  0.44560  0.00000  0.10880
       6     H     0.43828  0.43828  0.00000  0.12344
       7     H     0.44599  0.44599  0.00000  0.10802
       8     C     2.98548  2.98548  0.00000  0.02904
       9     C     3.14822  3.14822  0.00000 -0.29644
      10     H     0.44884  0.44884  0.00000  0.10232
      11     H     0.44471  0.44471  0.00000  0.11058
      12     H     0.45147  0.45147  0.00000  0.09706
      13     H     0.44226  0.44226  0.00000  0.11547
      14     H     0.45238  0.45238  0.00000  0.09524

   Total alpha = 24.00000, Total beta = 24.00000, Total charge =  0.00000

*** Psi4 exiting successfully. Buy a developer a beer!
