  ==> Input File <==

--------------------------------------------------------------------------
set {
	reference rhf
	basis 6-31G*
}

set_num_threads( 4 )
memory 2 gb

molecule MOL {
0 1

H	 -3.420663	 1.227371	 -1.044276
O	 -3.452007	 0.283848	 -0.965577
C	 -3.181085	 -0.079926	 0.364119
C	 -1.765924	 0.277073	 0.805136
H	 -3.327791	 -1.152017	 0.410903
H	 -3.905698	 0.375695	 1.036898
C	 -1.651131	 0.584005	 2.298834
H	 -1.096059	 -0.543357	 0.546028
H	 -1.432559	 1.135179	 0.223979
C	 -0.223245	 0.918889	 2.734924
H	 -2.018072	 -0.265528	 2.866600
H	 -2.307195	 1.418635	 2.540425
C	 -0.117311	 1.230736	 4.230121
H	 0.428280	 0.085817	 2.482088
H	 0.138605	 1.773477	 2.164531
C	 1.278079	 1.658815	 4.698941
H	 -0.436444	 0.361011	 4.802334
H	 -0.820602	 2.025398	 4.470353
C	 2.346234	 0.568608	 4.594545
H	 1.209315	 1.980519	 5.735314
H	 1.596035	 2.531377	 4.131717
H	 2.049485	 -0.321831	 5.142447
H	 3.289071	 0.911703	 5.009494
H	 2.531097	 0.277784	 3.565755

	symmetry c1
}
set optking {
	frozen_dihedral = ("
		7 4 3 2
	")
}

ee = optimize('scf')
oeprop('DIPOLE', 'QUADRUPOLE', 'MULLIKEN_CHARGES')
f=open( 'psi4out.xyz', 'w' )
f.write( "24  " )
f.write( str(ee) + "\n" )
f.write( MOL.save_string_xyz() )
f.close()
--------------------------------------------------------------------------

    Molecular point group: c1
  Charge       = 0
  Multiplicity = 1
  Basis Set: 6-31G*
  Basis Set:
  @DF-RHF Final Energy:  -349.24383870054220
    Total Energy =                       -349.2438387005421419
    Molecular point group: c1
  Basis Set: 6-31G*
  Basis Set:
  Basis Set: 6-31G*
  Basis Set:
  @DF-RHF Final Energy:  -349.24408094643582
    Total Energy =                       -349.2440809464358722
  Basis Set: 6-31G*
  Basis Set:
  Basis Set: 6-31G*
  Basis Set:
  @DF-RHF Final Energy:  -349.24411105679502
    Total Energy =                       -349.2441110567949067
  Basis Set: 6-31G*
  Basis Set:
  Basis Set: 6-31G*
  Basis Set:
  @DF-RHF Final Energy:  -349.24410956915057
    Total Energy =                       -349.2441095691506803
  Basis Set: 6-31G*
  Basis Set:
  Basis Set: 6-31G*
  Basis Set:
  @DF-RHF Final Energy:  -349.24411517106455
    Total Energy =                       -349.2441151710645499
  Basis Set: 6-31G*
  Basis Set:
  Basis Set: 6-31G*
  Basis Set:
  @DF-RHF Final Energy:  -349.24411244016613
    Total Energy =                       -349.2441124401660772
  Basis Set: 6-31G*
  Basis Set:
  Basis Set: 6-31G*
  Basis Set:
  @DF-RHF Final Energy:  -349.24411569578433
    Total Energy =                       -349.2441156957842168
  Basis Set: 6-31G*
  Basis Set:
  Charge       = 0
  Multiplicity = 1
  Basis Set: 6-31G*
  Basis Set:

    Orbital Energies (a.u.)
    -----------------------

    Doubly Occupied:

       1A    -20.551388     2A    -11.267123     3A    -11.220247
       4A    -11.217072     5A    -11.216902     6A    -11.216621
       7A    -11.215524     8A    -11.209359     9A     -1.358644
      10A     -1.093094    11A     -1.051189    12A     -0.986147
      13A     -0.914937    14A     -0.852064    15A     -0.805427
      16A     -0.779937    17A     -0.688934    18A     -0.655366
      19A     -0.623689    20A     -0.612002    21A     -0.600619
      22A     -0.586233    23A     -0.556972    24A     -0.541473
      25A     -0.530135    26A     -0.510438    27A     -0.491237
      28A     -0.484369    29A     -0.473587    30A     -0.462169
      31A     -0.456662    32A     -0.447202    33A     -0.421031

  @DF-RHF Final Energy:  -349.24411568855561

   => Energetics <=

    Nuclear Repulsion Energy =            379.8728011016160622
    One-Electron Energy =               -1226.0382450012216395
    Two-Electron Energy =                 496.9213282110501950
    DFT Exchange-Correlation Energy =       0.0000000000000000
    Empirical Dispersion Energy =           0.0000000000000000
    PCM Polarization Energy =               0.0000000000000000
    EFP Energy =                            0.0000000000000000
    Total Energy =                       -349.2441156885554392
    Molecular point group: c1
  Basis Set: 6-31G*
  Basis Set:

  -Total Gradient:
     Atom            X                  Y                   Z
    ------   -----------------  -----------------  -----------------
       1       -0.000000990121    -0.000003654906     0.000001838603
       2       -0.001269800992     0.003468507671     0.001203696609
       3        0.001451527454    -0.003358394049    -0.001912744276
       4        0.000524312521    -0.003542698614     0.001332250970
       5        0.000002821129     0.000004159557     0.000004527844
       6        0.000004010628    -0.000005051251     0.000010255556
       7       -0.000704009539     0.003440390143    -0.000645810642
       8       -0.000002607909     0.000005472888     0.000001773878
       9       -0.000004945218     0.000000390819    -0.000004599391
      10       -0.000001059996    -0.000005443939     0.000002200350
      11       -0.000002994387    -0.000003495252     0.000007699235
      12        0.000003973160     0.000000962690     0.000002877010
      13       -0.000001561444    -0.000000310686    -0.000003209164
      14       -0.000006004972    -0.000000158990     0.000002183746
      15        0.000003872158    -0.000001471659     0.000001464112
      16        0.000000905642     0.000005196467    -0.000004371139
      17        0.000003314804    -0.000002124378    -0.000001677670
      18       -0.000004079701    -0.000002333162    -0.000001158665
      19        0.000000995429    -0.000001011679     0.000000191465
      20       -0.000001699079    -0.000000008172    -0.000001231795
      21        0.000002230044     0.000001075918     0.000000796863
      22        0.000000831479    -0.000000244144     0.000000849643
      23       -0.000000404822     0.000000344627    -0.000000737531
      24        0.000001363736    -0.000000099900     0.000002934388

  **** Optimization is complete! (in 8 steps) ****
    Final optimized geometry and variables:
    Molecular point group: c1

    Geometry (in Angstrom), charge = 0, multiplicity = 1:

    H           -2.539181487910     0.542843133844    -3.329608095313
    O           -2.585204162404    -0.399322758113    -3.249021672302
    C           -2.299038537055    -0.762557836081    -1.923436451763
    C           -0.875960354854    -0.391370985906    -1.490312645560
    H           -2.453577451251    -1.831780046215    -1.865442209193
    H           -3.020382883827    -0.299453185686    -1.251040105365
    C           -0.761436596345    -0.088173363918     0.005071537173
    H           -0.183063549452    -1.177322112985    -1.777122306594
    H           -0.572015808189     0.494237240929    -2.046456905712
    C            0.665534956026     0.242580601555     0.446158155414
    H           -1.124985003956    -0.938763534305     0.580660874817
    H           -1.418012210745     0.744876253075     0.249169761750
    C            0.767863083600     0.560955163256     1.940165061954
    H            1.313866034451    -0.593560855545     0.197905406185
    H            1.030258418473     1.093363580558    -0.127788879950
    C            2.163547193622     0.986738362602     2.410191428839
    H            0.445184571816    -0.305263107259     2.515784434458
    H            0.066497161709     1.359049782698     2.175265337943
    C            3.228038018122    -0.107730081448     2.313958767597
    H            2.092968496398     1.314048550755     3.444589708312
    H            2.485600154219     1.855265772699     1.839187810192
    H            2.927180135456    -0.994157205160     2.866040880911
    H            4.170905162920     0.234600700487     2.729269835970
    H            3.414380993605    -0.404708788099     1.287267096514

  Mulliken Charges: (a.u.)
   Center  Symbol    Alpha    Beta     Spin     Total
       1     H     0.28354  0.28354  0.00000  0.43292
       2     O     4.37093  4.37093  0.00000 -0.74187
       3     C     2.99097  2.99097  0.00000  0.01806
       4     C     3.16843  3.16843  0.00000 -0.33687
       5     H     0.41464  0.41464  0.00000  0.17073
       6     H     0.43061  0.43061  0.00000  0.13878
       7     C     3.15972  3.15972  0.00000 -0.31945
       8     H     0.41494  0.41494  0.00000  0.17012
       9     H     0.42525  0.42525  0.00000  0.14950
      10     C     3.15341  3.15341  0.00000 -0.30682
      11     H     0.42210  0.42210  0.00000  0.15581
      12     H     0.42344  0.42344  0.00000  0.15312
      13     C     3.15254  3.15254  0.00000 -0.30508
      14     H     0.42013  0.42013  0.00000  0.15973
      15     H     0.42398  0.42398  0.00000  0.15205
      16     C     3.15241  3.15241  0.00000 -0.30482
      17     H     0.42390  0.42390  0.00000  0.15220
      18     H     0.42261  0.42261  0.00000  0.15478
      19     C     3.24133  3.24133  0.00000 -0.48266
      20     H     0.42077  0.42077  0.00000  0.15847
      21     H     0.42335  0.42335  0.00000  0.15329
      22     H     0.42215  0.42215  0.00000  0.15571
      23     H     0.41898  0.41898  0.00000  0.16204
      24     H     0.41988  0.41988  0.00000  0.16024

   Total alpha = 33.00000, Total beta = 33.00000, Total charge =  0.00000
