  ==> Input File <==

--------------------------------------------------------------------------
set {
	reference rhf
	basis 6-31G*
}

set_num_threads( 4 )
memory 2 gb

molecule MOL {
0 1

O	 -2.821601	 1.309235	 -0.001213
C	 -2.668563	 0.129746	 -0.000350
C	 -3.801572	 -0.864014	 -0.000442
O	 -1.481751	 -0.454642	 0.000584
H	 -4.417280	 -0.689587	 -0.874708
H	 -3.443784	 -1.883046	 -0.000565
H	 -4.417179	 -0.689832	 0.873954
C	 -0.334255	 0.388708	 0.000906
C	 0.891947	 -0.504646	 0.000751
H	 -0.365390	 1.025305	 -0.873475
H	 -0.365484	 1.024911	 0.875569
C	 0.803982	 -1.603563	 1.061465
H	 1.772762	 0.108036	 0.171702
H	 1.003947	 -0.947077	 -0.985236
C	 2.032124	 -2.515550	 1.077974
H	 0.680724	 -1.151638	 2.044144
H	 -0.086400	 -2.205580	 0.888610
C	 1.944808	 -3.612309	 2.138333
H	 2.922759	 -1.915615	 1.250953
H	 2.155461	 -2.969792	 0.097402
H	 1.854714	 -3.188543	 3.134485
H	 2.829085	 -4.241697	 2.125590
H	 1.081873	 -4.250833	 1.972079

	symmetry c1
}
set optking {
	frozen_dihedral = ("
		13 9 8 10
	")
}

ee = optimize('scf')
oeprop('DIPOLE', 'QUADRUPOLE', 'MULLIKEN_CHARGES')
f=open( 'psi4out.xyz', 'w' )
f.write( "23  " )
f.write( str(ee) + "\n" )
f.write( MOL.save_string_xyz() )
f.close()
--------------------------------------------------------------------------

    Molecular point group: c1
  Charge       = 0
  Multiplicity = 1
  Basis Set: 6-31G*
  Basis Set:
  @DF-RHF Final Energy:  -422.97773656477841
    Total Energy =                       -422.9777365647780698
    Molecular point group: c1
  Basis Set: 6-31G*
  Basis Set:
  Basis Set: 6-31G*
  Basis Set:
  @DF-RHF Final Energy:  -422.97819872423145
    Total Energy =                       -422.9781987242324703
  Basis Set: 6-31G*
  Basis Set:
  Basis Set: 6-31G*
  Basis Set:
  @DF-RHF Final Energy:  -422.97847846700199
    Total Energy =                       -422.9784784670019917
  Basis Set: 6-31G*
  Basis Set:
  Basis Set: 6-31G*
  Basis Set:
  @DF-RHF Final Energy:  -422.97797104592991
    Total Energy =                       -422.9779710459300759
  Basis Set: 6-31G*
  Basis Set:
  Basis Set: 6-31G*
  Basis Set:
  @DF-RHF Final Energy:  -422.97852969066179
    Total Energy =                       -422.9785296906622989
  Basis Set: 6-31G*
  Basis Set:
  Charge       = 0
  Multiplicity = 1
  Basis Set: 6-31G*
  Basis Set:

    Orbital Energies (a.u.)
    -----------------------

    Doubly Occupied:

       1A    -20.603031     2A    -20.540922     3A    -11.374528
       4A    -11.282676     5A    -11.232908     6A    -11.225801
       7A    -11.218903     8A    -11.217319     9A    -11.211138
      10A     -1.468114    11A     -1.360972    12A     -1.091226
      13A     -1.041014    14A     -1.002572    15A     -0.930635
      16A     -0.842762    17A     -0.803540    18A     -0.770515
      19A     -0.688227    20A     -0.686185    21A     -0.666069
      22A     -0.643636    23A     -0.607018    24A     -0.586490
      25A     -0.578939    26A     -0.570420    27A     -0.559193
      28A     -0.530635    29A     -0.528098    30A     -0.511353
      31A     -0.493636    32A     -0.473291    33A     -0.467482
      34A     -0.458694    35A     -0.447989    36A     -0.437413

  @DF-RHF Final Energy:  -422.97853044535054

   => Energetics <=

    Nuclear Repulsion Energy =            459.3840167591915815
    One-Electron Energy =               -1486.4184052875295947
    Two-Electron Energy =                 604.0558580829875837
    DFT Exchange-Correlation Energy =       0.0000000000000000
    Empirical Dispersion Energy =           0.0000000000000000
    PCM Polarization Energy =               0.0000000000000000
    EFP Energy =                            0.0000000000000000
    Total Energy =                       -422.9785304453504295
    Molecular point group: c1
  Basis Set: 6-31G*
  Basis Set:

  -Total Gradient:
     Atom            X                  Y                   Z
    ------   -----------------  -----------------  -----------------
       1        0.000009644542    -0.000042898282    -0.000038005486
       2       -0.000057376695     0.000062120231    -0.000023372043
       3        0.000018108102    -0.000004484368     0.000049041440
       4        0.000162681705     0.000005760292    -0.000070002456
       5        0.000013182228     0.000001029166    -0.000005005877
       6        0.000004839361     0.000002931545    -0.000002106558
       7       -0.000010182299     0.000003071698    -0.000003644960
       8        0.002429598293     0.003176641117     0.003640229492
       9       -0.000138754810     0.000002260979    -0.005031342477
      10       -0.002061285203    -0.002654139629    -0.002063083027
      11        0.000071732966    -0.000050227582    -0.000079413992
      12       -0.000060451027     0.000033419087    -0.000041189688
      13       -0.000310594520    -0.000468376236     0.003708953180
      14        0.000000654061    -0.000030277588     0.000060866250
      15       -0.000005855907    -0.000012927687    -0.000074715739
      16       -0.000031432509    -0.000037513096    -0.000003203019
      17       -0.000043306828    -0.000016899650    -0.000045097576
      18        0.000017290045     0.000046095525     0.000049626903
      19       -0.000014180675     0.000014044806    -0.000057164652
      20       -0.000009566664    -0.000048594160     0.000007493998
      21       -0.000009944034    -0.000008107466     0.000019917163
      22        0.000010188775     0.000012539653     0.000015818181
      23        0.000015011096     0.000014531638    -0.000014599056

  **** Optimization is complete! (in 6 steps) ****
    Final optimized geometry and variables:
    Molecular point group: c1

    Geometry (in Angstrom), charge = 0, multiplicity = 1:

    O           -2.182690912837     2.215143223203    -0.467034325633
    C           -2.075014571689     1.030897719970    -0.492818353253
    C           -3.245907883649     0.082812733114    -0.532564072989
    O           -0.911937808948     0.401020671491    -0.489694710493
    H           -3.842774987864     0.303603252076    -1.409388733797
    H           -2.928618927281    -0.949341571213    -0.554782056404
    H           -3.865676869919     0.258754005917     0.338539203312
    C            0.268845667969     1.201308411072    -0.452014738829
    C            1.474060787316     0.276342609904    -0.475525507582
    H            0.254564293742     1.846239377418    -1.319998082165
    H            0.248530111959     1.813267791378     0.439179356652
    C            1.439765409691    -0.819796951171     0.593107615281
    H            2.351699670625     0.895553342490    -0.301201285423
    H            1.575105272597    -0.168592232742    -1.461016102856
    C            2.716444858065    -1.662467452325     0.612818513036
    H            1.295336310329    -0.362982421724     1.571143470868
    H            0.583056422501    -1.464087881971     0.425730849793
    C            2.692906625188    -2.751592318865     1.684585046169
    H            3.575981152806    -1.015489557534     0.775419496436
    H            2.860464181359    -2.120865671121    -0.363402090867
    H            2.582420767478    -2.323014969267     2.676693241262
    H            3.610121332541    -3.332175648297     1.675593814443
    H            1.865356861860    -3.437549108577     1.527767336073

  Mulliken Charges: (a.u.)
   Center  Symbol    Alpha    Beta     Spin     Total
       1     O     4.28402  4.28402  0.00000 -0.56804
       2     C     2.61443  2.61443  0.00000  0.77115
       3     C     3.28760  3.28760  0.00000 -0.57521
       4     O     4.31086  4.31086  0.00000 -0.62172
       5     H     0.39741  0.39741  0.00000  0.20519
       6     H     0.40038  0.40038  0.00000  0.19924
       7     H     0.39737  0.39737  0.00000  0.20526
       8     C     3.00235  3.00235  0.00000 -0.00470
       9     C     3.16811  3.16811  0.00000 -0.33621
      10     H     0.40745  0.40745  0.00000  0.18511
      11     H     0.40966  0.40966  0.00000  0.18068
      12     C     3.15274  3.15274  0.00000 -0.30548
      13     H     0.41798  0.41798  0.00000  0.16403
      14     H     0.41486  0.41486  0.00000  0.17028
      15     C     3.15257  3.15257  0.00000 -0.30514
      16     H     0.42415  0.42415  0.00000  0.15170
      17     H     0.41163  0.41163  0.00000  0.17674
      18     C     3.23918  3.23918  0.00000 -0.47835
      19     H     0.42346  0.42346  0.00000  0.15308
      20     H     0.42241  0.42241  0.00000  0.15518
      21     H     0.42135  0.42135  0.00000  0.15730
      22     H     0.41882  0.41882  0.00000  0.16236
      23     H     0.42122  0.42122  0.00000  0.15756

   Total alpha = 36.00000, Total beta = 36.00000, Total charge =  0.00000
