  ==> Input File <==

--------------------------------------------------------------------------
set {
	reference rhf
	basis cc-pvtz
}

set_num_threads( 4 )
memory 2 gb

molecule MOL {
0 1

H	 -3.162190	 0.493205	 -0.000107
C	 -2.363908	 -0.234727	 0.000005
O	 -1.158738	 0.454634	 -0.000087
H	 -2.464314	 -0.863616	 -0.882153
H	 -2.464327	 -0.863359	 0.882345
C	 -0.028611	 -0.359694	 0.000037
C	 1.212847	 0.509314	 -0.000053
H	 -0.034155	 -1.007047	 -0.877198
H	 -0.034195	 -1.006836	 0.877430
C	 0.946930	 1.904576	 -0.554022
H	 1.588066	 0.575729	 1.015193
H	 1.980366	 0.015079	 -0.585372
H	 0.198290	 2.426769	 0.032442
H	 1.849403	 2.503265	 -0.542373
H	 0.593503	 1.862392	 -1.578901

	symmetry c1
}
set optking {
	frozen_dihedral = ("
		11 7 6 8
	")
}

ee = optimize('scf')
oeprop('DIPOLE', 'QUADRUPOLE', 'MULLIKEN_CHARGES')
f=open( 'psi4out.xyz', 'w' )
f.write( "15  " )
f.write( str(ee) + "\n" )
f.write( MOL.save_string_xyz() )
f.close()
--------------------------------------------------------------------------

    Molecular point group: c1
  Charge       = 0
  Multiplicity = 1
  Basis Set: CC-PVTZ
  Basis Set:
  @DF-RHF Final Energy:  -232.22102291562825
    Total Energy =                       -232.2210229156282821
    Molecular point group: c1
  Basis Set: CC-PVTZ
  Basis Set:
  Basis Set: CC-PVTZ
  Basis Set:
  @DF-RHF Final Energy:  -232.22200359474985
    Total Energy =                       -232.2220035947499355
  Basis Set: CC-PVTZ
  Basis Set:
  Basis Set: CC-PVTZ
  Basis Set:
  @DF-RHF Final Energy:  -232.22277953072441
    Total Energy =                       -232.2227795307246083
  Basis Set: CC-PVTZ
  Basis Set:
  Basis Set: CC-PVTZ
  Basis Set:
  @DF-RHF Final Energy:  -232.22282083379343
    Total Energy =                       -232.2228208337934348
  Basis Set: CC-PVTZ
  Basis Set:
  Basis Set: CC-PVTZ
  Basis Set:
  @DF-RHF Final Energy:  -232.22282317780792
    Total Energy =                       -232.2228231778081522
  Basis Set: CC-PVTZ
  Basis Set:
  Charge       = 0
  Multiplicity = 1
  Basis Set: CC-PVTZ
  Basis Set:

    Orbital Energies (a.u.)
    -----------------------

    Doubly Occupied:

       1A    -20.548907     2A    -11.265206     3A    -11.262719
       4A    -11.214033     5A    -11.200342     6A     -1.383624
       7A     -1.051415     8A     -0.950641     9A     -0.890973
      10A     -0.795033    11A     -0.673622    12A     -0.660295
      13A     -0.636589    14A     -0.600407    15A     -0.556230
      16A     -0.542292    17A     -0.506960    18A     -0.484639
      19A     -0.473180    20A     -0.461268    21A     -0.412649

  @DF-RHF Final Energy:  -232.22282335350766

   => Energetics <=

    Nuclear Repulsion Energy =            193.3461744081643303
    One-Electron Energy =                -697.9959496422242182
    Two-Electron Energy =                 272.4269518805521102
    DFT Exchange-Correlation Energy =       0.0000000000000000
    Empirical Dispersion Energy =           0.0000000000000000
    PCM Polarization Energy =               0.0000000000000000
    EFP Energy =                            0.0000000000000000
    Total Energy =                       -232.2228233535078061
    Molecular point group: c1
  Basis Set: CC-PVTZ
  Basis Set:

  -Total Gradient:
     Atom            X                  Y                   Z
    ------   -----------------  -----------------  -----------------
       1        0.000003281063     0.000003376726     0.000000026978
       2        0.000017352306     0.000004098649     0.000001277239
       3       -0.000053133601     0.000034950067     0.000009626116
       4        0.000003438264     0.000000176341    -0.000001595441
       5        0.000002471634     0.000000157205     0.000000889276
       6       -0.002846547765     0.004290360681    -0.004179289804
       7       -0.003641773703     0.005079366824     0.002037090667
       8        0.002987747120    -0.004430384511     0.003148864432
       9        0.000007320678     0.000005900788    -0.000001795379
      10       -0.000002941836     0.000004564508    -0.000011236940
      11        0.003532940597    -0.004995133275    -0.001006185523
      12       -0.000005313098    -0.000004676777    -0.000001670538
      13       -0.000004108986     0.000002247699    -0.000005825037
      14       -0.000002672350    -0.000000839947     0.000005411958
      15        0.000001939675     0.000005835021     0.000004411994

  **** Optimization is complete! (in 6 steps) ****
    Final optimized geometry and variables:
    Molecular point group: c1

    Geometry (in Angstrom), charge = 0, multiplicity = 1:

    H           -2.897617428200    -0.054396105960     0.174142807230
    C           -2.070595070212    -0.748386023377     0.132631704311
    O           -0.894589310977    -0.011127980805     0.138378112016
    H           -2.161062004862    -1.346985414887    -0.771405094013
    H           -2.128543320503    -1.413902570962     0.991408499461
    C            0.263005514748    -0.780408046919     0.080984806256
    C            1.517328400579     0.095674534291     0.128216302241
    H            0.272861331237    -1.407798961650    -0.809967338712
    H            0.282031422211    -1.473300380561     0.922167800565
    C            1.356106060904     1.486927691852    -0.472163813535
    H            1.887030522168     0.150210896079     1.146359489078
    H            2.294374917740    -0.434486717969    -0.415691297199
    H            0.632252827976     2.072084895893     0.076843786476
    H            2.304193956507     2.012288962507    -0.456240437634
    H            1.021426629050     1.432210034810    -1.501950373637

  Mulliken Charges: (a.u.)
   Center  Symbol    Alpha    Beta     Spin     Total
       1     H     0.44748  0.44748  0.00000  0.10503
       2     C     3.03115  3.03115  0.00000 -0.06230
       3     O     4.17062  4.17062  0.00000 -0.34124
       4     H     0.47165  0.47165  0.00000  0.05670
       5     H     0.47163  0.47163  0.00000  0.05674
       6     C     2.96790  2.96790  0.00000  0.06420
       7     C     3.08976  3.08976  0.00000 -0.17953
       8     H     0.47356  0.47356  0.00000  0.05287
       9     H     0.47034  0.47034  0.00000  0.05933
      10     C     3.14099  3.14099  0.00000 -0.28198
      11     H     0.45269  0.45269  0.00000  0.09463
      12     H     0.45683  0.45683  0.00000  0.08633
      13     H     0.44662  0.44662  0.00000  0.10675
      14     H     0.45282  0.45282  0.00000  0.09436
      15     H     0.45595  0.45595  0.00000  0.08810

   Total alpha = 21.00000, Total beta = 21.00000, Total charge =  0.00000
