  ==> Input File <==

--------------------------------------------------------------------------
set {
	reference rhf
	basis 6-31G*
}

set_num_threads( 1 )
memory 2 gb

molecule MOL {
0 1

H	 -2.556224	 2.073025	 -1.841479
C	 -2.838661	 1.023983	 -1.688626
C	 -1.856608	 0.014712	 -2.226728
O	 -3.854489	 0.753599	 -1.134788
C	 -0.425299	 0.264139	 -1.731354
H	 -2.203819	 -0.976610	 -1.959456
H	 -1.878652	 0.094639	 -3.312905
C	 -0.252658	 0.041456	 -0.226725
H	 0.245951	 -0.395631	 -2.273029
H	 -0.125466	 1.278741	 -1.989113
C	 1.180775	 0.282413	 0.250794
H	 -0.551282	 -0.975520	 0.019101
H	 -0.928096	 0.694337	 0.322883
C	 2.148627	 -0.814315	 -0.201312
H	 1.516199	 1.249228	 -0.115937
H	 1.192670	 0.346017	 1.338083
C	 3.580890	 -0.659131	 0.322722
H	 2.166869	 -0.852443	 -1.289387
H	 1.762857	 -1.776509	 0.128956
C	 4.324889	 0.564933	 -0.213704
H	 4.142010	 -1.551473	 0.056605
H	 3.564836	 -0.624694	 1.410140
H	 4.342616	 0.565491	 -1.300421
H	 3.866655	 1.493402	 0.110242
H	 5.353900	 0.572371	 0.132816

	symmetry c1
}
set optking {
	frozen_dihedral = ("
		6 3 5 8,
		6 3 2 4,
		3 5 8 12,
		8 11 14 18,
		20 17 14 18
	")
}

ee = energy('scf')
oeprop('DIPOLE', 'QUADRUPOLE', 'MULLIKEN_CHARGES')
f=open( 'psi4out.xyz', 'w' )
f.write( "25  " )
f.write( str(ee) + "\n" )
f.write( MOL.save_string_xyz() )
f.close()
--------------------------------------------------------------------------

    Molecular point group: c1

    Geometry (in Angstrom), charge = 0, multiplicity = 1:

       Center              X                  Y                   Z               Mass
    ------------   -----------------  -----------------  -----------------  -----------------
           H         -2.780685755397     1.902123614751    -1.081445424402     1.007825032070
           C         -3.063122755397     0.853081614751    -0.928592424402    12.000000000000
           C         -2.081069755397    -0.156189385249    -1.466694424402    12.000000000000
           O         -4.078950755397     0.582697614751    -0.374754424402    15.994914619560
           C         -0.649760755397     0.093237614751    -0.971320424402    12.000000000000
           H         -2.428280755397    -1.147511385249    -1.199422424402     1.007825032070
           H         -2.103113755397    -0.076262385249    -2.552871424402     1.007825032070
           C         -0.477119755397    -0.129445385249     0.533308575598    12.000000000000
           H          0.021489244603    -0.566532385249    -1.512995424402     1.007825032070
           H         -0.349927755397     1.107839614751    -1.229079424402     1.007825032070
           C          0.956313244603     0.111511614751     1.010827575598    12.000000000000
           H         -0.775743755397    -1.146421385249     0.779134575598     1.007825032070
           H         -1.152557755397     0.523435614751     1.082916575598     1.007825032070
           C          1.924165244603    -0.985216385249     0.558721575598    12.000000000000
           H          1.291737244603     1.078326614751     0.644096575598     1.007825032070
           H          0.968208244603     0.175115614751     2.098116575598     1.007825032070
           C          3.356428244603    -0.830032385249     1.082755575598    12.000000000000
           H          1.942407244603    -1.023344385249    -0.529353424402     1.007825032070
           H          1.538395244603    -1.947410385249     0.888989575598     1.007825032070
           C          4.100427244603     0.394031614751     0.546329575598    12.000000000000
           H          3.917548244603    -1.722374385249     0.816638575598     1.007825032070
           H          3.340374244603    -0.795595385249     2.170173575598     1.007825032070
           H          4.118154244603     0.394589614751    -0.540387424402     1.007825032070
           H          3.642193244603     1.322500614751     0.870275575598     1.007825032070
           H          5.129438244603     0.401469614751     0.892849575598     1.007825032070

  Charge       = 0
  Multiplicity = 1
  Basis Set: 6-31G*
  Basis Set:

    Orbital Energies (a.u.)
    -----------------------

    Doubly Occupied:

       1A    -20.561864     2A    -11.325941     3A    -11.234897
       4A    -11.234312     5A    -11.223751     6A    -11.219810
       7A    -11.219174     8A    -11.218227     9A    -11.211780
      10A     -1.401840    11A     -1.105750    12A     -1.068902
      13A     -1.013700    14A     -0.940511    15A     -0.880900
      16A     -0.823120    17A     -0.790013    18A     -0.776480
      19A     -0.665677    20A     -0.653003    21A     -0.635302
      22A     -0.622886    23A     -0.607370    24A     -0.598927
      25A     -0.579035    26A     -0.548852    27A     -0.534823
      28A     -0.523637    29A     -0.518181    30A     -0.501128
      31A     -0.485576    32A     -0.477792    33A     -0.461349
      34A     -0.453562    35A     -0.447444    36A     -0.408983

  @DF-RHF Final Energy:  -387.11986972468389

   => Energetics <=

    Nuclear Repulsion Energy =            443.8347459616555852
    One-Electron Energy =               -1403.9598316395658912
    Two-Electron Energy =                 573.0052159532259566
    DFT Exchange-Correlation Energy =       0.0000000000000000
    Empirical Dispersion Energy =           0.0000000000000000
    PCM Polarization Energy =               0.0000000000000000
    EFP Energy =                            0.0000000000000000
    Total Energy =                       -387.1198697246843494

  Mulliken Charges: (a.u.)
   Center  Symbol    Alpha    Beta     Spin     Total
       1     H     0.43265  0.43265  0.00000  0.13469
       2     C     2.83088  2.83088  0.00000  0.33825
       3     C     3.20752  3.20752  0.00000 -0.41504
       4     O     4.23781  4.23781  0.00000 -0.47562
       5     C     3.16880  3.16880  0.00000 -0.33761
       6     H     0.39970  0.39970  0.00000  0.20060
       7     H     0.40690  0.40690  0.00000  0.18621
       8     C     3.15700  3.15700  0.00000 -0.31399
       9     H     0.41068  0.41068  0.00000  0.17864
      10     H     0.41980  0.41980  0.00000  0.16040
      11     C     3.15637  3.15637  0.00000 -0.31275
      12     H     0.41812  0.41812  0.00000  0.16376
      13     H     0.41604  0.41604  0.00000  0.16792
      14     C     3.15536  3.15536  0.00000 -0.31072
      15     H     0.42141  0.42141  0.00000  0.15719
      16     H     0.41872  0.41872  0.00000  0.16255
      17     C     3.15192  3.15192  0.00000 -0.30384
      18     H     0.42381  0.42381  0.00000  0.15238
      19     H     0.42111  0.42111  0.00000  0.15777
      20     C     3.24140  3.24140  0.00000 -0.48279
      21     H     0.42045  0.42045  0.00000  0.15909
      22     H     0.42239  0.42239  0.00000  0.15521
      23     H     0.42274  0.42274  0.00000  0.15453
      24     H     0.42005  0.42005  0.00000  0.15990
      25     H     0.41837  0.41837  0.00000  0.16327

   Total alpha = 36.00000, Total beta = 36.00000, Total charge =  0.00000
