  ==> Input File <==

--------------------------------------------------------------------------
set {
	reference rhf
	basis cc-pvtz
}

set_num_threads( 4 )
memory 2 gb

molecule MOL {
0 1

O	 0.008362	 0.483942	 -1.885090
C	 0.159077	 -0.285791	 -0.998161
C	 1.328314	 -1.226968	 -0.853484
O	 -0.695554	 -0.422406	 0.000602
C	 2.342756	 -1.108491	 -1.979469
H	 0.925436	 -2.231699	 -0.789007
H	 1.783261	 -1.027814	 0.110516
H	 1.888488	 -1.324082	 -2.937268
H	 3.156386	 -1.805997	 -1.821862
H	 2.754121	 -0.109244	 -2.029587
C	 -1.852370	 0.402254	 0.000718
C	 -3.063338	 -0.501097	 -0.000437
H	 -1.831732	 1.039442	 -0.872158
H	 -1.832493	 1.038301	 0.874430
H	 -3.071944	 -1.133732	 -0.879113
H	 -3.966302	 0.097976	 -0.000483
H	 -3.072764	 -1.134834	 0.877435

	symmetry c1
}
set optking {
	frozen_dihedral = ("
		2 4 11 13
	")
}

ee = optimize('scf')
oeprop('DIPOLE', 'QUADRUPOLE', 'MULLIKEN_CHARGES')
f=open( 'psi4out.xyz', 'w' )
f.write( "17  " )
f.write( str(ee) + "\n" )
f.write( MOL.save_string_xyz() )
f.close()
--------------------------------------------------------------------------

    Molecular point group: c1
  Charge       = 0
  Multiplicity = 1
  Basis Set: CC-PVTZ
  Basis Set:
  @DF-RHF Final Energy:  -345.03763045316185
    Total Energy =                       -345.0376304531616825
    Molecular point group: c1
  Basis Set: CC-PVTZ
  Basis Set:
  Basis Set: CC-PVTZ
  Basis Set:
  @DF-RHF Final Energy:  -345.03805295424849
    Total Energy =                       -345.0380529542483146
  Basis Set: CC-PVTZ
  Basis Set:
  Basis Set: CC-PVTZ
  Basis Set:
  @DF-RHF Final Energy:  -345.03831009388324
    Total Energy =                       -345.0383100938832399
  Basis Set: CC-PVTZ
  Basis Set:
  Basis Set: CC-PVTZ
  Basis Set:
  @DF-RHF Final Energy:  -345.03847446966182
    Total Energy =                       -345.0384744696618213
  Basis Set: CC-PVTZ
  Basis Set:
  Basis Set: CC-PVTZ
  Basis Set:
  @DF-RHF Final Energy:  -345.03856178677654
    Total Energy =                       -345.0385617867764267
  Basis Set: CC-PVTZ
  Basis Set:
  Charge       = 0
  Multiplicity = 1
  Basis Set: CC-PVTZ
  Basis Set:

    Orbital Energies (a.u.)
    -----------------------

    Doubly Occupied:

       1A    -20.592216     2A    -20.532296     3A    -11.365047
       4A    -11.281088     5A    -11.235352     6A    -11.219876
       7A    -11.213394     8A     -1.467767     9A     -1.365342
      10A     -1.070207    11A     -1.031247    12A     -0.914297
      13A     -0.850659    14A     -0.769518    15A     -0.703479
      16A     -0.684851    17A     -0.663572    18A     -0.627485
      19A     -0.598309    20A     -0.569949    21A     -0.555539
      22A     -0.531786    23A     -0.521097    24A     -0.515877
      25A     -0.496646    26A     -0.495421    27A     -0.451025
      28A     -0.439672

  @DF-RHF Final Energy:  -345.03857016427128

   => Energetics <=

    Nuclear Repulsion Energy =            315.9325293661609066
    One-Electron Energy =               -1096.4161649682419011
    Two-Electron Energy =                 435.4450654378103991
    DFT Exchange-Correlation Energy =       0.0000000000000000
    Empirical Dispersion Energy =           0.0000000000000000
    PCM Polarization Energy =               0.0000000000000000
    EFP Energy =                            0.0000000000000000
    Total Energy =                       -345.0385701642705953
    Molecular point group: c1
  Basis Set: CC-PVTZ
  Basis Set:

  -Total Gradient:
     Atom            X                  Y                   Z
    ------   -----------------  -----------------  -----------------
       1       -0.000046630479     0.000025784605     0.000003643861
       2        0.000070531318    -0.000043540643     0.000077322098
       3        0.000036721792     0.000028945898    -0.000013881636
       4        0.000118536624    -0.000063163920    -0.000131258106
       5        0.000007477703    -0.000028809757    -0.000002528326
       6       -0.000002300069    -0.000005238298    -0.000010863376
       7       -0.000007523505    -0.000001995403    -0.000008497688
       8        0.000003485500     0.000001584080    -0.000001339031
       9        0.000010661677     0.000000723801    -0.000007509053
      10       -0.000003971229     0.000000648154     0.000005919013
      11        0.000050556641    -0.000011027962     0.000197070823
      12       -0.000097636925     0.000063423271    -0.000037488691
      13       -0.000019679199    -0.000038616882    -0.000022535088
      14       -0.000071387608     0.000050682780    -0.000047606523
      15       -0.000000836740     0.000007678391     0.000014668489
      16       -0.000083723505    -0.000025714096     0.000001653077
      17        0.000035718007     0.000038635982    -0.000016769843

  **** Optimization is complete! (in 6 steps) ****
    Final optimized geometry and variables:
    Molecular point group: c1

    Geometry (in Angstrom), charge = 0, multiplicity = 1:

    O            0.309687507624     0.858228393080    -1.098658537256
    C            0.434005553666     0.098543704919    -0.199510514298
    C            1.596297636522    -0.846879784077    -0.023757318418
    O           -0.434666021248    -0.034238797909     0.789456158723
    C            2.632630914272    -0.745630881489    -1.131292880076
    H            1.187108209927    -1.848769258228     0.044048405651
    H            2.033611213537    -0.639465572086     0.946572008917
    H            2.195973788121    -0.969657980026    -2.095323863896
    H            3.439609182942    -1.445256256828    -0.950336773092
    H            3.049921219188     0.250975597580    -1.184382071620
    C           -1.609677011565     0.767362988094     0.822717667725
    C           -2.829520424449    -0.127682272858     0.856609952737
    H           -1.622753741877     1.420296378169    -0.033114248424
    H           -1.548153169428     1.369387113876     1.719126668559
    H           -2.898732044244    -0.717671067290    -0.049076429770
    H           -3.726204268661     0.475949612266     0.939348542689
    H           -2.790874865059    -0.801261426368     1.703459959193

  Mulliken Charges: (a.u.)
   Center  Symbol    Alpha    Beta     Spin     Total
       1     O     4.19826  4.19826  0.00000 -0.39652
       2     C     2.80056  2.80056  0.00000  0.39887
       3     C     3.09542  3.09542  0.00000 -0.19083
       4     O     4.15717  4.15717  0.00000 -0.31434
       5     C     3.14032  3.14032  0.00000 -0.28064
       6     H     0.44207  0.44207  0.00000  0.11585
       7     H     0.44170  0.44170  0.00000  0.11661
       8     H     0.44860  0.44860  0.00000  0.10280
       9     H     0.45065  0.45065  0.00000  0.09870
      10     H     0.44843  0.44843  0.00000  0.10314
      11     C     2.99140  2.99140  0.00000  0.01719
      12     C     3.13636  3.13636  0.00000 -0.27273
      13     H     0.44113  0.44113  0.00000  0.11775
      14     H     0.45165  0.45165  0.00000  0.09669
      15     H     0.45112  0.45112  0.00000  0.09776
      16     H     0.45360  0.45360  0.00000  0.09280
      17     H     0.45155  0.45155  0.00000  0.09690

   Total alpha = 28.00000, Total beta = 28.00000, Total charge = -0.00000
