                              Psi4 1.0.54 Driver

  ==> Input File <==

--------------------------------------------------------------------------
set {
	reference rhf
	basis cc-pvtz
}

set_num_threads( 4 )
memory 2 gb

molecule MOL {
0 1

O	 -2.817697	 1.304178	 0.001046
C	 -2.664672	 0.129869	 0.003507
C	 -3.797908	 -0.860100	 -0.001145
O	 -1.481217	 -0.452708	 0.001092
H	 -4.408836	 -0.679689	 -0.875387
H	 -3.443486	 -1.878443	 -0.002770
H	 -4.412123	 -0.683688	 0.871605
C	 -0.332055	 0.384012	 -0.000250
C	 0.892252	 -0.506059	 -0.000295
H	 -0.360822	 1.020205	 -0.874146
H	 -0.359817	 1.021310	 0.872861
C	 2.129831	 0.219161	 0.520105
H	 1.068461	 -0.861968	 -1.010220
H	 0.691362	 -1.380874	 0.609629
C	 3.377644	 -0.659472	 0.529723
H	 2.317616	 1.099294	 -0.089878
H	 1.940748	 0.581755	 1.527452
C	 4.614313	 0.064500	 1.050799
H	 3.568641	 -1.020999	 -0.476694
H	 3.191243	 -1.539243	 1.139103
H	 4.846903	 0.930786	 0.440638
H	 5.481046	 -0.586071	 1.044767
H	 4.466452	 0.408813	 2.068856

	symmetry c1
}
set optking {
	frozen_dihedral = ("
		13 9 8 10
	")
}

ee,wfn = optimize('scf', return_wfn=True)
oeprop( wfn, 'DIPOLE', 'QUADRUPOLE', 'MULLIKEN_CHARGES')
f=open( 'psi4out.xyz', 'w' )
f.write( "23  " )
f.write( str(ee) + "\n" )
f.write( MOL.save_string_xyz() )
f.close()
--------------------------------------------------------------------------

    Molecular point group: c1
  Charge       = 0
  Multiplicity = 1
  Basis Set: CC-PVTZ
  Basis Set:
  @DF-RHF Final Energy:  -423.13303584673747
    Total Energy =                       -423.1330358467376982
    Molecular point group: c1
  Basis Set: CC-PVTZ
  Basis Set:
  Basis Set: CC-PVTZ
  Basis Set:
  @DF-RHF Final Energy:  -423.13295202954163
    Total Energy =                       -423.1329520295421389
  Basis Set: CC-PVTZ
  Basis Set:
  Basis Set: CC-PVTZ
  Basis Set:
  @DF-RHF Final Energy:  -423.13234751708461
    Total Energy =                       -423.1323475170842130
  Basis Set: CC-PVTZ
  Basis Set:
  Basis Set: CC-PVTZ
  Basis Set:
  @DF-RHF Final Energy:  -423.13324829428836
    Total Energy =                       -423.1332482942883644
  Basis Set: CC-PVTZ
  Basis Set:
  Basis Set: CC-PVTZ
  Basis Set:
  @DF-RHF Final Energy:  -423.13328596270895
    Total Energy =                       -423.1332859627091239
  Basis Set: CC-PVTZ
  Basis Set:
  Basis Set: CC-PVTZ
  Basis Set:
  @DF-RHF Final Energy:  -423.13328859950019
    Total Energy =                       -423.1332885995003608
  Basis Set: CC-PVTZ
  Basis Set:
  Charge       = 0
  Multiplicity = 1
  Basis Set: CC-PVTZ
  Basis Set:

    Orbital Energies (a.u.)
    -----------------------

    Doubly Occupied:

       1A    -20.595218     2A    -20.529118     3A    -11.365921
       4A    -11.279856     5A    -11.230414     6A    -11.222428
       7A    -11.221160     8A    -11.219322     9A    -11.210878
      10A     -1.470408    11A     -1.363303    12A     -1.094927
      13A     -1.042822    14A     -1.003917    15A     -0.931489
      16A     -0.842467    17A     -0.802496    18A     -0.776072
      19A     -0.694426    20A     -0.687467    21A     -0.670415
      22A     -0.648203    23A     -0.607812    24A     -0.588046
      25A     -0.583819    26A     -0.568400    27A     -0.559390
      28A     -0.537482    29A     -0.524818    30A     -0.504954
      31A     -0.493982    32A     -0.476895    33A     -0.471672
      34A     -0.466504    35A     -0.454281    36A     -0.438409

  @DF-RHF Final Energy:  -423.13328919855712

   => Energetics <=

    Nuclear Repulsion Energy =            450.4949444354263051
    One-Electron Energy =               -1468.8980940635242405
    Two-Electron Energy =                 595.2698604295406994
    DFT Exchange-Correlation Energy =       0.0000000000000000
    Empirical Dispersion Energy =           0.0000000000000000
    PCM Polarization Energy =               0.0000000000000000
    EFP Energy =                            0.0000000000000000
    Total Energy =                       -423.1332891985572360
    Molecular point group: c1
  Basis Set: CC-PVTZ
  Basis Set:

  -Total Gradient:
     Atom            X                  Y                   Z
    ------   -----------------  -----------------  -----------------
       1        0.000024846003    -0.000116792402     0.000015897215
       2       -0.000055875099     0.000071778012    -0.000026530428
       3       -0.000014845963     0.000007559559     0.000018661932
       4        0.000049878316     0.000038857448     0.000002650518
       5        0.000015996633    -0.000013662818     0.000031171080
       6       -0.000008955858     0.000041197330    -0.000002258533
       7        0.000012867205    -0.000009182952    -0.000038562009
       8        0.003064912010     0.004212473622     0.002230403161
       9       -0.003339352130    -0.004484993176     0.000439722005
      10       -0.002028781675    -0.002773283328    -0.001914211926
      11        0.000008263968    -0.000008668575    -0.000009164000
      12        0.000007855950    -0.000006468020     0.000002052237
      13        0.002267980946     0.003049490905    -0.000727002888
      14        0.000000474803    -0.000018852617     0.000001990238
      15       -0.000008938215     0.000013486333    -0.000030665300
      16        0.000007613076    -0.000020190138     0.000006516853
      17        0.000009006619    -0.000003360528    -0.000018314568
      18        0.000008054387     0.000002354950     0.000022371166
      19       -0.000007553925     0.000003462274     0.000003101371
      20       -0.000009585356     0.000010749551    -0.000012103072
      21        0.000001960178    -0.000010167126     0.000002060447
      22       -0.000013142047     0.000009260963     0.000007718357
      23        0.000007320173     0.000004950733    -0.000005503856

  **** Optimization is complete! (in 7 steps) ****
    Final optimized geometry and variables:
    Molecular point group: c1

    Geometry (in Angstrom), charge = 0, multiplicity = 1:

    O           -2.786008445167     1.346947603988    -0.284785211361
    C           -2.643328101172     0.171413412888    -0.259325789294
    C           -3.785160760643    -0.808624316834    -0.285411752766
    O           -1.466351103507    -0.420468168050    -0.203734863922
    H           -4.364573145807    -0.637898544287    -1.182747671992
    H           -3.440441526810    -1.829909518768    -0.257873622144
    H           -4.426800471484    -0.611912122254     0.562955405007
    C           -0.308586316441     0.409205097379    -0.177781161266
    C            0.909563205651    -0.495534182005    -0.155482260937
    H           -0.326343552215     1.029641751889    -1.062286045341
    H           -0.354787508690     1.046632388757     0.693718694205
    C            2.158585008739     0.244321502015     0.320690947182
    H            1.091884858969    -0.874021943181    -1.155855815962
    H            0.711195808099    -1.343264415078     0.489687226110
    C            3.417430859005    -0.616703900447     0.276622223945
    H            2.311336964410     1.130806455675    -0.290868931491
    H            2.002094927685     0.599013097843     1.336141640618
    C            4.660894054839     0.116597245636     0.767780620041
    H            3.580631670222    -0.961731704637    -0.740490592215
    H            3.262455702587    -1.507580549051     0.878957324995
    H            4.861891853247     0.994679508801     0.163175161289
    H            5.535439178340    -0.521982990455     0.723812461838
    H            4.542101151566     0.444284290749     1.795112027087

  Mulliken Charges: (a.u.)
   Center  Symbol    Alpha    Beta     Spin     Total
       1     O     4.20284  4.20284  0.00000 -0.40568
       2     C     2.81329  2.81329  0.00000  0.37343
       3     C     3.13972  3.13972  0.00000 -0.27944
       4     O     4.14596  4.14596  0.00000 -0.29193
       5     H     0.44217  0.44217  0.00000  0.11566
       6     H     0.44197  0.44197  0.00000  0.11606
       7     H     0.44224  0.44224  0.00000  0.11551
       8     C     2.98014  2.98014  0.00000  0.03972
       9     C     3.08320  3.08320  0.00000 -0.16640
      10     H     0.45194  0.45194  0.00000  0.09613
      11     H     0.45457  0.45457  0.00000  0.09086
      12     C     3.09710  3.09710  0.00000 -0.19419
      13     H     0.45185  0.45185  0.00000  0.09630
      14     H     0.44845  0.44845  0.00000  0.10309
      15     C     3.08539  3.08539  0.00000 -0.17078
      16     H     0.45309  0.45309  0.00000  0.09382
      17     H     0.45273  0.45273  0.00000  0.09454
      18     C     3.14944  3.14944  0.00000 -0.29887
      19     H     0.45348  0.45348  0.00000  0.09304
      20     H     0.45355  0.45355  0.00000  0.09290
      21     H     0.45459  0.45459  0.00000  0.09082
      22     H     0.44774  0.44774  0.00000  0.10452
      23     H     0.45455  0.45455  0.00000  0.09091

   Total alpha = 36.00000, Total beta = 36.00000, Total charge = -0.00000

*** Psi4 exiting successfully. Buy a developer a beer!
