                              Psi4 1.0.54 Driver

  ==> Input File <==

--------------------------------------------------------------------------
set {
	reference rhf
	basis cc-pvtz
}

set_num_threads( 4 )
memory 2 gb

molecule MOL {
0 1

H	 -3.537645	 0.227676	 -0.592740
O	 -3.098730	 -0.280646	 0.065529
C	 -1.770861	 -0.098045	 0.018427
C	 -1.174672	 0.748208	 -0.908315
C	 -0.996815	 -0.789002	 0.935823
H	 -1.781862	 1.280856	 -1.616858
C	 0.191680	 0.899054	 -0.912883
H	 -1.476501	 -1.436537	 1.641952
C	 0.370091	 -0.626903	 0.917992
H	 0.663756	 1.548929	 -1.622754
C	 0.981121	 0.213562	 0.000000
H	 0.971577	 -1.162466	 1.629262
C	 2.447402	 0.371303	 0.000000
O	 3.227427	 -0.521847	 0.000000
H	 2.796538	 1.409525	 0.000000

	symmetry c1
}
set optking {
	frozen_dihedral = ("
		7 11 13 14
	")
}

ee,wfn = optimize('scf', return_wfn=True)
oeprop( wfn, 'DIPOLE', 'QUADRUPOLE', 'MULLIKEN_CHARGES')
f=open( 'psi4out.xyz', 'w' )
f.write( "15  " )
f.write( str(ee) + "\n" )
f.write( MOL.save_string_xyz() )
f.close()
--------------------------------------------------------------------------

    Molecular point group: c1
  Charge       = 0
  Multiplicity = 1
  Basis Set: CC-PVTZ
  Basis Set:
  @DF-RHF Final Energy:  -418.43325947008066
    Total Energy =                       -418.4332594700809977
    Molecular point group: c1
  Basis Set: CC-PVTZ
  Basis Set:
  Basis Set: CC-PVTZ
  Basis Set:
  @DF-RHF Final Energy:  -418.43233513657191
    Total Energy =                       -418.4323351365719645
  Basis Set: CC-PVTZ
  Basis Set:
  Basis Set: CC-PVTZ
  Basis Set:
  @DF-RHF Final Energy:  -418.43405034548226
    Total Energy =                       -418.4340503454825466
  Basis Set: CC-PVTZ
  Basis Set:
  Basis Set: CC-PVTZ
  Basis Set:
  @DF-RHF Final Energy:  -418.43449959355581
    Total Energy =                       -418.4344995935558700
  Basis Set: CC-PVTZ
  Basis Set:
  Basis Set: CC-PVTZ
  Basis Set:
  @DF-RHF Final Energy:  -418.43452681205451
    Total Energy =                       -418.4345268120545143
  Basis Set: CC-PVTZ
  Basis Set:
  Charge       = 0
  Multiplicity = 1
  Basis Set: CC-PVTZ
  Basis Set:

    Orbital Energies (a.u.)
    -----------------------

    Doubly Occupied:

       1A    -20.600710     2A    -20.553476     3A    -11.326632
       4A    -11.317130     5A    -11.257535     6A    -11.251058
       7A    -11.241477     8A    -11.239314     9A    -11.234837
      10A     -1.433209    11A     -1.408611    12A     -1.173787
      13A     -1.044288    14A     -1.038971    15A     -0.894493
      16A     -0.861031    17A     -0.805931    18A     -0.759284
      19A     -0.702051    20A     -0.688918    21A     -0.648271
      22A     -0.631130    23A     -0.611410    24A     -0.609636
      25A     -0.592637    26A     -0.563092    27A     -0.543431
      28A     -0.507563    29A     -0.493518    30A     -0.423958
      31A     -0.359649    32A     -0.329965

  @DF-RHF Final Energy:  -418.43452907038272

   => Energetics <=

    Nuclear Repulsion Energy =            402.1359144886254171
    One-Electron Energy =               -1366.8468792820758608
    Two-Electron Energy =                 546.2764357230678343
    DFT Exchange-Correlation Energy =       0.0000000000000000
    Empirical Dispersion Energy =           0.0000000000000000
    PCM Polarization Energy =               0.0000000000000000
    EFP Energy =                            0.0000000000000000
    Total Energy =                       -418.4345290703826095
    Molecular point group: c1
  Basis Set: CC-PVTZ
  Basis Set:

  -Total Gradient:
     Atom            X                  Y                   Z
    ------   -----------------  -----------------  -----------------
       1        0.000006395108     0.000001359191     0.000007561137
       2       -0.000025608211     0.000044960169    -0.000024845040
       3        0.000066283288    -0.000297212631     0.000223434346
       4        0.000247008689     0.000172265116    -0.000084865799
       5       -0.000305876639     0.000089473896    -0.000123113082
       6       -0.000023024770    -0.000008778251     0.000010029211
       7       -0.000108038409    -0.005549375533    -0.004329950648
       8        0.000028846025    -0.000005526362     0.000011757040
       9        0.000257043242     0.000188127417    -0.000124186836
      10        0.000007293475    -0.000004092874     0.000019480106
      11       -0.000400448187     0.007689823816     0.002491419128
      12       -0.000015999186    -0.000010232364     0.000007977268
      13        0.000699996936    -0.001789249793     0.010505078319
      14       -0.000431666198    -0.000534717424    -0.008566522067
      15       -0.000002205169     0.000013175626    -0.000023253084

  **** Optimization is complete! (in 6 steps) ****
    Final optimized geometry and variables:
    Molecular point group: c1

    Geometry (in Angstrom), charge = 0, multiplicity = 1:

    H           -3.531490810077     0.208303639473    -0.651278327834
    O           -3.095472753046    -0.291359562899     0.015416594777
    C           -1.768439566994    -0.082994061467    -0.009240186120
    C           -1.169064438374     0.772039167389    -0.916088021429
    C           -0.996822668983    -0.767812416699     0.919407866346
    H           -1.764126332220     1.290203771383    -1.645260500038
    C            0.199664960540     0.954181544186    -0.878585403760
    H           -1.479255972722    -1.432268642232     1.608214181945
    C            0.366192045882    -0.597653617535     0.926429660825
    H            0.658272924042     1.624764453910    -1.582063641583
    C            0.978146492879     0.287386370279     0.047101493166
    H            0.970165852350    -1.151288194140     1.618706215147
    C            2.458320340771     0.386459966992    -0.029223025377
    O            3.188799435293    -0.544453326315    -0.007197710877
    H            2.855641562637     1.394621092588    -0.190814316464

  Mulliken Charges: (a.u.)
   Center  Symbol    Alpha    Beta     Spin     Total
       1     H     0.38620  0.38620  0.00000  0.22760
       2     O     4.16805  4.16805  0.00000 -0.33611
       3     C     2.85023  2.85023  0.00000  0.29955
       4     C     3.13103  3.13103  0.00000 -0.26206
       5     C     3.10024  3.10024  0.00000 -0.20048
       6     H     0.43221  0.43221  0.00000  0.13558
       7     C     3.07971  3.07971  0.00000 -0.15941
       8     H     0.41647  0.41647  0.00000  0.16706
       9     C     3.06804  3.06804  0.00000 -0.13607
      10     H     0.42229  0.42229  0.00000  0.15542
      11     C     2.97970  2.97970  0.00000  0.04059
      12     H     0.41413  0.41413  0.00000  0.17173
      13     C     2.92834  2.92834  0.00000  0.14333
      14     O     4.16537  4.16537  0.00000 -0.33074
      15     H     0.45800  0.45800  0.00000  0.08401

   Total alpha = 32.00000, Total beta = 32.00000, Total charge =  0.00000

*** Psi4 exiting successfully. Buy a developer a beer!
