  ==> Input File <==

--------------------------------------------------------------------------
set {
	reference rhf
	basis 6-31G*
}

set_num_threads( 1 )
memory 2 gb

molecule MOL {
0 1

H	 -3.420663	 1.227371	 -1.044276
O	 -3.452007	 0.283848	 -0.965577
C	 -3.181085	 -0.079926	 0.364119
C	 -1.765924	 0.277073	 0.805136
H	 -3.327791	 -1.152017	 0.410903
H	 -3.905698	 0.375695	 1.036898
C	 -0.677594	 -0.417312	 -0.014550
H	 -1.637766	 1.358238	 0.744969
H	 -1.659588	 0.017670	 1.857098
C	 0.738335	 -0.034840	 0.421385
H	 -0.814977	 -0.178223	 -1.064632
H	 -0.802730	 -1.495410	 0.071702
C	 1.785399	 -1.075695	 0.015970
H	 0.990921	 0.932396	 -0.006486
H	 0.761900	 0.094168	 1.502776
C	 3.207136	 -0.780757	 0.507732
H	 1.794340	 -1.173223	 -1.068514
H	 1.480470	 -2.045276	 0.404233
C	 3.845490	 0.467632	 -0.104178
H	 3.834756	 -1.639242	 0.281045
H	 3.200707	 -0.688516	 1.592008
H	 3.854302	 0.409099	 -1.189367
H	 4.873304	 0.577327	 0.228092
H	 3.316089	 1.372890	 0.174041

	symmetry c1
}
set optking {
	frozen_dihedral = ("
		20 16 13 17,
		17 13 10 7,
		11 7 4 3,
		1 2 3 5,
		7 4 3 2
	")
}

ee = energy('scf')
oeprop('DIPOLE', 'QUADRUPOLE', 'MULLIKEN_CHARGES')
f=open( 'psi4out.xyz', 'w' )
f.write( "24  " )
f.write( str(ee) + "\n" )
f.write( MOL.save_string_xyz() )
f.close()
--------------------------------------------------------------------------

    Molecular point group: c1

    Geometry (in Angstrom), charge = 0, multiplicity = 1:

       Center              X                  Y                   Z               Mass
    ------------   -----------------  -----------------  -----------------  -----------------
           H         -3.427646368678     1.375566975430    -1.151615650176     1.007825032070
           O         -3.458990368678     0.432043975430    -1.072916650176    15.994914619560
           C         -3.188068368678     0.068269975430     0.256779349824    12.000000000000
           C         -1.772907368678     0.425268975430     0.697796349824    12.000000000000
           H         -3.334774368678    -1.003821024570     0.303563349824     1.007825032070
           H         -3.912681368678     0.523890975430     0.929558349824     1.007825032070
           C         -0.684577368678    -0.269116024570    -0.121889650176    12.000000000000
           H         -1.644749368678     1.506433975430     0.637629349824     1.007825032070
           H         -1.666571368678     0.165865975430     1.749758349824     1.007825032070
           C          0.731351631322     0.113355975430     0.314045349824    12.000000000000
           H         -0.821960368678    -0.030027024570    -1.171971650176     1.007825032070
           H         -0.809713368678    -1.347214024570    -0.035637650176     1.007825032070
           C          1.778415631322    -0.927499024570    -0.091369650176    12.000000000000
           H          0.983937631322     1.080591975430    -0.113825650176     1.007825032070
           H          0.754916631322     0.242363975430     1.395436349824     1.007825032070
           C          3.200152631322    -0.632561024570     0.400392349824    12.000000000000
           H          1.787356631322    -1.025027024570    -1.175853650176     1.007825032070
           H          1.473486631322    -1.897080024570     0.296893349824     1.007825032070
           C          3.838506631322     0.615827975430    -0.211517650176    12.000000000000
           H          3.827772631322    -1.491046024570     0.173705349824     1.007825032070
           H          3.193723631322    -0.540320024570     1.484668349824     1.007825032070
           H          3.847318631322     0.557294975430    -1.296706650176     1.007825032070
           H          4.866320631322     0.725522975430     0.120752349824     1.007825032070
           H          3.309105631322     1.521085975430     0.066701349824     1.007825032070

  Charge       = 0
  Multiplicity = 1
  Basis Set: 6-31G*
  Basis Set:

    Orbital Energies (a.u.)
    -----------------------

    Doubly Occupied:

       1A    -20.553491     2A    -11.267571     3A    -11.217592
       4A    -11.214037     5A    -11.212197     6A    -11.211626
       7A    -11.210584     8A    -11.207279     9A     -1.360087
      10A     -1.088623    11A     -1.048223    12A     -0.985527
      13A     -0.914975    14A     -0.850525    15A     -0.800694
      16A     -0.776487    17A     -0.678920    18A     -0.654585
      19A     -0.623640    20A     -0.620986    21A     -0.595480
      22A     -0.581117    23A     -0.564213    24A     -0.535817
      25A     -0.518468    26A     -0.511358    27A     -0.495236
      28A     -0.476028    29A     -0.466930    30A     -0.459977
      31A     -0.453832    32A     -0.448527    33A     -0.419281

  @DF-RHF Final Energy:  -349.24594400019942

   => Energetics <=

    Nuclear Repulsion Energy =            384.2559984713385575
    One-Electron Energy =               -1234.9559668807385151
    Two-Electron Energy =                 501.4540244091997465
    DFT Exchange-Correlation Energy =       0.0000000000000000
    Empirical Dispersion Energy =           0.0000000000000000
    PCM Polarization Energy =               0.0000000000000000
    EFP Energy =                            0.0000000000000000
    Total Energy =                       -349.2459440002002111

  Mulliken Charges: (a.u.)
   Center  Symbol    Alpha    Beta     Spin     Total
       1     H     0.28340  0.28340  0.00000  0.43320
       2     O     4.36834  4.36834  0.00000 -0.73669
       3     C     2.99627  2.99627  0.00000  0.00746
       4     C     3.16973  3.16973  0.00000 -0.33946
       5     H     0.41629  0.41629  0.00000  0.16743
       6     H     0.42826  0.42826  0.00000  0.14348
       7     C     3.15238  3.15238  0.00000 -0.30476
       8     H     0.42820  0.42820  0.00000  0.14361
       9     H     0.42220  0.42220  0.00000  0.15559
      10     C     3.15428  3.15428  0.00000 -0.30856
      11     H     0.41103  0.41103  0.00000  0.17793
      12     H     0.42346  0.42346  0.00000  0.15309
      13     C     3.15302  3.15302  0.00000 -0.30603
      14     H     0.42129  0.42129  0.00000  0.15742
      15     H     0.42556  0.42556  0.00000  0.14887
      16     C     3.15240  3.15240  0.00000 -0.30481
      17     H     0.42332  0.42332  0.00000  0.15336
      18     H     0.42224  0.42224  0.00000  0.15551
      19     C     3.24104  3.24104  0.00000 -0.48208
      20     H     0.42116  0.42116  0.00000  0.15769
      21     H     0.42384  0.42384  0.00000  0.15231
      22     H     0.42212  0.42212  0.00000  0.15577
      23     H     0.41960  0.41960  0.00000  0.16080
      24     H     0.42057  0.42057  0.00000  0.15886

   Total alpha = 33.00000, Total beta = 33.00000, Total charge =  0.00000
