  ==> Input File <==

--------------------------------------------------------------------------
set {
	reference rhf
	basis 6-31G*
}

set_num_threads( 4 )
memory 2 gb

molecule MOL {
0 1

H	 -0.000158	 1.970498	 0.756846
O	 -0.000074	 1.880206	 -0.189275
C	 -0.000015	 0.544847	 -0.545111
C	 0.562491	 0.383066	 -1.953443
C	 -1.396872	 -0.040281	 -0.365065
H	 0.660864	 0.023225	 0.131093
F	 1.796075	 0.839494	 -1.991994
F	 0.580998	 -0.874370	 -2.341867
F	 -0.151431	 1.074517	 -2.827404
F	 -1.763821	 0.070594	 0.893740
F	 -1.450708	 -1.313445	 -0.694512
F	 -2.279741	 0.614461	 -1.102243

	symmetry c1
}
set optking {
	frozen_dihedral = ("
		6 3 2 1
	")
}

ee = optimize('scf')
oeprop('DIPOLE', 'QUADRUPOLE', 'MULLIKEN_CHARGES')
f=open( 'psi4out.xyz', 'w' )
f.write( "12  " )
f.write( str(ee) + "\n" )
f.write( MOL.save_string_xyz() )
f.close()
--------------------------------------------------------------------------

    Molecular point group: c1
  Charge       = 0
  Multiplicity = 1
  Basis Set: 6-31G*
  Basis Set:
  @DF-RHF Final Energy:  -786.27403104658970
    Total Energy =                       -786.2740310465896982
    Molecular point group: c1
  Basis Set: 6-31G*
  Basis Set:
  Basis Set: 6-31G*
  Basis Set:
  @DF-RHF Final Energy:  -786.27594313350278
    Total Energy =                       -786.2759431335030058
  Basis Set: 6-31G*
  Basis Set:
  Basis Set: 6-31G*
  Basis Set:
  @DF-RHF Final Energy:  -786.27635958823294
    Total Energy =                       -786.2763595882331629
  Basis Set: 6-31G*
  Basis Set:
  Basis Set: 6-31G*
  Basis Set:
  @DF-RHF Final Energy:  -786.27640329807525
    Total Energy =                       -786.2764032980758202
  Basis Set: 6-31G*
  Basis Set:
  Basis Set: 6-31G*
  Basis Set:
  @DF-RHF Final Energy:  -786.27641055630761
    Total Energy =                       -786.2764105563073826
  Basis Set: 6-31G*
  Basis Set:
  Basis Set: 6-31G*
  Basis Set:
  @DF-RHF Final Energy:  -786.27641181429851
    Total Energy =                       -786.2764118142985126
  Basis Set: 6-31G*
  Basis Set:
  Charge       = 0
  Multiplicity = 1
  Basis Set: 6-31G*
  Basis Set:

    Orbital Energies (a.u.)
    -----------------------

    Doubly Occupied:

       1A    -26.359798     2A    -26.358033     3A    -26.355686
       4A    -26.355385     5A    -26.352195     6A    -26.351145
       7A    -20.616875     8A    -11.522150     9A    -11.521499
      10A    -11.349371    11A     -1.759949    12A     -1.753132
      13A     -1.656112    14A     -1.655078    15A     -1.650382
      16A     -1.649162    17A     -1.435068    18A     -1.102046
      19A     -0.992908    20A     -0.932317    21A     -0.862828
      22A     -0.854816    23A     -0.850457    24A     -0.838672
      25A     -0.828023    26A     -0.779894    27A     -0.761442
      28A     -0.726425    29A     -0.719856    30A     -0.715812
      31A     -0.712346    32A     -0.679777    33A     -0.675975
      34A     -0.665894    35A     -0.665129    36A     -0.657438
      37A     -0.650749    38A     -0.627890    39A     -0.617077
      40A     -0.553015    41A     -0.505410

  @DF-RHF Final Energy:  -786.27641205101588

   => Energetics <=

    Nuclear Repulsion Energy =            670.0554845984066787
    One-Electron Energy =               -2427.3093557486363352
    Two-Electron Energy =                 970.9774590992138883
    DFT Exchange-Correlation Energy =       0.0000000000000000
    Empirical Dispersion Energy =           0.0000000000000000
    PCM Polarization Energy =               0.0000000000000000
    EFP Energy =                            0.0000000000000000
    Total Energy =                       -786.2764120510158818
    Molecular point group: c1
  Basis Set: 6-31G*
  Basis Set:

  -Total Gradient:
     Atom            X                  Y                   Z
    ------   -----------------  -----------------  -----------------
       1        0.000755431584    -0.000007645457    -0.000007548761
       2       -0.001093821439    -0.000026501821     0.000130763414
       3        0.000830909542     0.000111226246    -0.000580604421
       4       -0.000005605583     0.000000321442     0.000040066004
       5        0.000046665506     0.000000626752     0.000007282632
       6       -0.000503790404    -0.000105333905     0.000431524905
       7       -0.000000899462     0.000006976629    -0.000018132357
       8       -0.000003625160     0.000018547440     0.000004163828
       9        0.000015381343    -0.000002056312    -0.000013116279
      10       -0.000023795533     0.000019454424    -0.000006792385
      11       -0.000019403337     0.000005716553    -0.000018084328
      12        0.000002552941    -0.000021331996     0.000030477748

  **** Optimization is complete! (in 7 steps) ****
    Final optimized geometry and variables:
    Molecular point group: c1

    Geometry (in Angstrom), charge = 0, multiplicity = 1:

    H            0.448337357779     1.659513317774     1.870324020215
    O            0.434863124148     1.553649928707     0.928829663217
    C            0.433515712502     0.212609187956     0.590390994151
    C            0.977400609189     0.117072539756    -0.828214366536
    C           -0.970660183279    -0.358454796283     0.753735294019
    H            1.086732180796    -0.381000438106     1.220199222703
    F            2.231767812902     0.519450550936    -0.845772273781
    F            0.946780600595    -1.132476624373    -1.254087732980
    F            0.296445780553     0.855917799426    -1.672792046177
    F           -1.372073625677    -0.123228924418     1.995064577527
    F           -0.987090717209    -1.663556366087     0.569177999185
    F           -1.841456818194     0.186214284036    -0.063392191545

  Mulliken Charges: (a.u.)
   Center  Symbol    Alpha    Beta     Spin     Total
       1     H     0.26419  0.26419  0.00000  0.47162
       2     O     4.36232  4.36232  0.00000 -0.72464
       3     C     3.05470  3.05470  0.00000 -0.10939
       4     C     2.43296  2.43296  0.00000  1.13408
       5     C     2.43998  2.43998  0.00000  1.12004
       6     H     0.38741  0.38741  0.00000  0.22519
       7     F     4.67764  4.67764  0.00000 -0.35529
       8     F     4.67854  4.67854  0.00000 -0.35709
       9     F     4.67037  4.67037  0.00000 -0.34073
      10     F     4.68631  4.68631  0.00000 -0.37263
      11     F     4.67562  4.67562  0.00000 -0.35123
      12     F     4.66997  4.66997  0.00000 -0.33993

   Total alpha = 41.00000, Total beta = 41.00000, Total charge =  0.00000
