                              Psi4 1.0.54 Driver

  ==> Input File <==

--------------------------------------------------------------------------
set {
	reference rhf
	basis cc-pvtz
}

set_num_threads( 4 )
memory 2 gb

molecule MOL {
0 1

O	 -2.918499	 1.096766	 0.638413
C	 -2.664672	 0.129869	 0.003507
C	 -3.652834	 -0.561683	 -0.896257
O	 -1.481217	 -0.452708	 0.001092
H	 -4.002688	 0.148508	 -1.633354
H	 -3.220144	 -1.419006	 -1.386581
H	 -4.504216	 -0.865900	 -0.302394
C	 -0.332055	 0.384012	 -0.000250
C	 0.892252	 -0.506059	 -0.000295
H	 -0.360822	 1.020205	 -0.874146
H	 -0.359817	 1.021310	 0.872861
C	 2.188199	 0.299473	 -0.001416
H	 0.857046	 -1.152781	 -0.871031
H	 0.857910	 -1.151798	 0.871202
C	 3.437151	 -0.577593	 -0.000991
H	 2.209565	 0.950707	 -0.871712
H	 2.210062	 0.952234	 0.867721
C	 4.732399	 0.226982	 -0.000914
H	 3.417321	 -1.229122	 -0.869998
H	 3.416993	 -1.228707	 0.868337
H	 4.797903	 0.863451	 -0.876963
H	 5.598517	 -0.424436	 -0.000420
H	 4.797415	 0.864118	 0.874691

	symmetry c1
}
set optking {
	frozen_dihedral = ("
		1 2 4 8
	")
}

ee,wfn = optimize('scf', return_wfn=True)
oeprop( wfn, 'DIPOLE', 'QUADRUPOLE', 'MULLIKEN_CHARGES')
f=open( 'psi4out.xyz', 'w' )
f.write( "23  " )
f.write( str(ee) + "\n" )
f.write( MOL.save_string_xyz() )
f.close()
--------------------------------------------------------------------------

    Molecular point group: c1
  Charge       = 0
  Multiplicity = 1
  Basis Set: CC-PVTZ
  Basis Set:
  @DF-RHF Final Energy:  -423.12586304590820
    Total Energy =                       -423.1258630459078631
    Molecular point group: c1
  Basis Set: CC-PVTZ
  Basis Set:
  Basis Set: CC-PVTZ
  Basis Set:
  @DF-RHF Final Energy:  -422.97518778206336
    Total Energy =                       -422.9751877820630170
  Basis Set: CC-PVTZ
  Basis Set:
  Basis Set: CC-PVTZ
  Basis Set:
  @DF-RHF Final Energy:  -423.08866156629023
    Total Energy =                       -423.0886615662902841
  Basis Set: CC-PVTZ
  Basis Set:
  Basis Set: CC-PVTZ
  Basis Set:
  @DF-RHF Final Energy:  -423.12363621298482
    Total Energy =                       -423.1236362129849340
  Basis Set: CC-PVTZ
  Basis Set:
  @DF-RHF Final Energy:  -423.10402641552730
    Total Energy =                       -423.1040264155273007
  @DF-RHF Final Energy:  -423.12169521135701
    Total Energy =                       -423.1216952113568368
  @DF-RHF Final Energy:  -423.12653539724431
    Total Energy =                       -423.1265353972445382
  @DF-RHF Final Energy:  -423.12668953726654
    Total Energy =                       -423.1266895372665431
  @DF-RHF Final Energy:  -423.12673852453287
    Total Energy =                       -423.1267385245330388
  @DF-RHF Final Energy:  -423.12678473384977
    Total Energy =                       -423.1267847338494903
  @DF-RHF Final Energy:  -423.11867544983721
    Total Energy =                       -423.1186754498376104
  @DF-RHF Final Energy:  -422.85454211129604
    Total Energy =                       -422.8545421112957001
  @DF-RHF Final Energy:  -422.70212604558333
    Total Energy =                       -422.7021260455835545
  @DF-RHF Final Energy:  -422.12078168272694
    Total Energy =                       -422.1207816827269426
  @DF-RHF Final Energy:  -422.37698794048868
    Total Energy =                       -422.3769879404891299
  @DF-RHF Final Energy:  -422.71776462167821
    Total Energy =                       -422.7177646216783842
  @DF-RHF Final Energy:  -422.96336402507586
    Total Energy =                       -422.9633640250759754
  @DF-RHF Final Energy:  -422.95044290135155
    Total Energy =                       -422.9504429013513800
  @DF-RHF Final Energy:  -422.94988655207425
    Total Energy =                       -422.9498865520744175
  @DF-RHF Final Energy:  -423.07782018508686
    Total Energy =                       -423.0778201850865798
  @DF-RHF Final Energy:  -423.12501041730633
    Total Energy =                       -423.1250104173058162
  @DF-RHF Final Energy:  -423.12673164103802
    Total Energy =                       -423.1267316410383046
  @DF-RHF Final Energy:  -423.12735819334358
    Total Energy =                       -423.1273581933431842
  @DF-RHF Final Energy:  -423.12690115867053
    Total Energy =                       -423.1269011586698525
  @DF-RHF Final Energy:  -423.11841101266594
    Total Energy =                       -423.1184110126662290
  @DF-RHF Final Energy:  -423.12759730504746
    Total Energy =                       -423.1275973050476296
  @DF-RHF Final Energy:  -423.12813728570887
    Total Energy =                       -423.1281372857085898
  @DF-RHF Final Energy:  -423.12820045621066
    Total Energy =                       -423.1282004562103793
  @DF-RHF Final Energy:  -423.12822096535433
    Total Energy =                       -423.1282209653543305
  @DF-RHF Final Energy:  -423.12823095607905
    Total Energy =                       -423.1282309560796193
  @DF-RHF Final Energy:  -423.12823365566845
    Total Energy =                       -423.1282336556681685
  @DF-RHF Final Energy:  -423.12823490229505
    Total Energy =                       -423.1282349022951621
  @DF-RHF Final Energy:  -423.12823499363503
    Total Energy =                       -423.1282349936351466
  @DF-RHF Final Energy:  -423.12823439242737
    Total Energy =                       -423.1282343924273164
  @DF-RHF Final Energy:  -423.12823516409560
    Total Energy =                       -423.1282351640951447
  @DF-RHF Final Energy:  -423.12823519882693
    Total Energy =                       -423.1282351988263599
  Basis Set: CC-PVTZ
  Basis Set:
  @DF-RHF Final Energy:  -423.12823497000807
    Total Energy =                       -423.1282349700084069
  Basis Set: CC-PVTZ
  Basis Set:
  Basis Set: CC-PVTZ
  Basis Set:
  @DF-RHF Final Energy:  -423.12823520844893
    Total Energy =                       -423.1282352084488139
  Basis Set: CC-PVTZ
  Basis Set:
  Basis Set: CC-PVTZ
  Basis Set:
  @DF-RHF Final Energy:  -423.12823523583785
    Total Energy =                       -423.1282352358377921
  Basis Set: CC-PVTZ
  Basis Set:
  Charge       = 0
  Multiplicity = 1
  Basis Set: CC-PVTZ
  Basis Set:

    Orbital Energies (a.u.)
    -----------------------

    Doubly Occupied:

       1A    -20.586054     2A    -20.536253     3A    -11.367407
       4A    -11.282408     5A    -11.231895     6A    -11.222729
       7A    -11.221921     8A    -11.219860     9A    -11.211277
      10A     -1.465430    11A     -1.365772    12A     -1.095284
      13A     -1.042234    14A     -1.005669    15A     -0.931648
      16A     -0.841792    17A     -0.803366    18A     -0.774989
      19A     -0.697109    20A     -0.687121    21A     -0.665771
      22A     -0.648860    23A     -0.610759    24A     -0.589576
      25A     -0.585246    26A     -0.568566    27A     -0.558624
      28A     -0.544694    29A     -0.519482    30A     -0.504999
      31A     -0.495157    32A     -0.478778    33A     -0.471993
      34A     -0.469288    35A     -0.452914    36A     -0.437350

  @DF-RHF Final Energy:  -423.12823522956393

   => Energetics <=

    Nuclear Repulsion Energy =            449.9474010433268063
    One-Electron Energy =               -1467.7667205859440855
    Two-Electron Energy =                 594.6910843130531248
    DFT Exchange-Correlation Energy =       0.0000000000000000
    Empirical Dispersion Energy =           0.0000000000000000
    PCM Polarization Energy =               0.0000000000000000
    EFP Energy =                            0.0000000000000000
    Total Energy =                       -423.1282352295640976
    Molecular point group: c1
  Basis Set: CC-PVTZ
  Basis Set:

  -Total Gradient:
     Atom            X                  Y                   Z
    ------   -----------------  -----------------  -----------------
       1        0.003979376494     0.004902648135     0.006340565641
       2       -0.006040889487    -0.010558526435    -0.010215333698
       3       -0.000121694297    -0.000147698868    -0.000252116603
       4        0.002746282285     0.012794876335     0.006262724614
       5       -0.000004482412     0.000001829496    -0.000000164306
       6        0.000017574609     0.000001309475     0.000010633306
       7        0.000000070124     0.000001974512     0.000011990655
       8       -0.000573920571    -0.007001835148    -0.002150470187
       9       -0.000004888396     0.000002514085    -0.000007392822
      10       -0.000001797245    -0.000000780209    -0.000002991083
      11       -0.000000973018     0.000003970089     0.000000175534
      12        0.000007147787     0.000001985095     0.000005864637
      13        0.000000619172    -0.000002664301     0.000000368444
      14        0.000001628416     0.000002698496     0.000002719939
      15       -0.000005640345    -0.000004623832    -0.000008898235
      16        0.000000794643    -0.000001716598    -0.000001575313
      17       -0.000003506026     0.000004098475    -0.000000327802
      18        0.000000246047    -0.000001221924     0.000007348170
      19        0.000003056106    -0.000004202902     0.000000326096
      20       -0.000001003955     0.000001368894     0.000000649223
      21        0.000000568075    -0.000001279643    -0.000000079029
      22        0.000003751446     0.000000685755    -0.000002747770
      23       -0.000002319456     0.000004591017    -0.000001269419

  **** Optimization is complete! (in 42 steps) ****
    Final optimized geometry and variables:
    Molecular point group: c1

    Geometry (in Angstrom), charge = 0, multiplicity = 1:

    O           -2.248906718386     0.215850799233     2.267293383503
    C           -1.329838448764    -0.526053200813     2.268286582581
    C           -1.173066734871    -1.689857129492     3.203991949819
    O           -0.264756710389    -0.372547258996     1.484908525079
    H           -1.185505585608    -2.609837690643     2.631703194530
    H           -0.214824434587    -1.629359952725     3.702826570886
    H           -1.974667336155    -1.693774267354     3.924709387632
    C           -0.482260451481     0.057557896279     0.147602673253
    C            0.857667680183     0.108608299783    -0.554012930410
    H           -1.150137941419    -0.644836844998    -0.338024599657
    H           -0.960524776724     1.026697622471     0.152858209048
    C            0.730798757753     0.556858133132    -2.007038197862
    H            1.318396120000    -0.872745002818    -0.506327666645
    H            1.507733896170     0.787030121008    -0.011279526235
    C            2.071868437613     0.616198995006    -2.733011900969
    H            0.066825980875    -0.120061190783    -2.539514582861
    H            0.260790146274     1.536406553653    -2.044295903872
    C            1.945928739749     1.064593424256    -4.184913113174
    H            2.542242598204    -0.362430114913    -2.697156079742
    H            2.735944782055     1.292922293394    -2.202828482417
    H            1.314500164431     0.387555355860    -4.750577386532
    H            2.914306415859     1.096381425673    -4.670511405442
    H            1.509618092663     2.055568690951    -4.252166637585

  Mulliken Charges: (a.u.)
   Center  Symbol    Alpha    Beta     Spin     Total
       1     O     4.18785  4.18785  0.00000 -0.37570
       2     C     2.81045  2.81045  0.00000  0.37910
       3     C     3.13770  3.13770  0.00000 -0.27539
       4     O     4.15853  4.15853  0.00000 -0.31705
       5     H     0.44958  0.44958  0.00000  0.10083
       6     H     0.44388  0.44388  0.00000  0.11223
       7     H     0.43831  0.43831  0.00000  0.12339
       8     C     2.97696  2.97696  0.00000  0.04609
       9     C     3.08310  3.08310  0.00000 -0.16619
      10     H     0.46333  0.46333  0.00000  0.07334
      11     H     0.44757  0.44757  0.00000  0.10486
      12     C     3.09882  3.09882  0.00000 -0.19765
      13     H     0.45135  0.45135  0.00000  0.09730
      14     H     0.44847  0.44847  0.00000  0.10307
      15     C     3.08504  3.08504  0.00000 -0.17008
      16     H     0.45391  0.45391  0.00000  0.09219
      17     H     0.45220  0.45220  0.00000  0.09560
      18     C     3.14952  3.14952  0.00000 -0.29904
      19     H     0.45366  0.45366  0.00000  0.09268
      20     H     0.45298  0.45298  0.00000  0.09405
      21     H     0.45491  0.45491  0.00000  0.09019
      22     H     0.44759  0.44759  0.00000  0.10482
      23     H     0.45431  0.45431  0.00000  0.09139

   Total alpha = 36.00000, Total beta = 36.00000, Total charge = -0.00000

*** Psi4 exiting successfully. Buy a developer a beer!
