                              Psi4 1.0.54 Driver

  ==> Input File <==

--------------------------------------------------------------------------
set {
	reference rhf
	basis cc-pvtz
}

set_num_threads( 4 )
memory 2 gb

molecule MOL {
0 1

H	 -3.294565	 0.569785	 0.000000
C	 -2.246225	 0.343737	 0.000000
C	 -1.809462	 -0.973484	 0.000000
C	 -1.312577	 1.353775	 0.000000
H	 -2.523539	 -1.775124	 0.000000
C	 -0.467257	 -1.267606	 0.000000
H	 -1.631287	 2.379013	 0.000000
C	 0.046966	 1.074396	 0.000000
H	 -0.119372	 -2.281828	 0.000000
C	 0.471772	 -0.241514	 0.000000
H	 0.748162	 1.882966	 0.000000
O	 1.760432	 -0.625184	 0.000000
C	 2.752755	 0.264985	 -0.413586
H	 2.611093	 0.567275	 -1.445216
H	 3.689927	 -0.261892	 -0.327125
H	 2.783671	 1.146924	 0.216443

	symmetry c1
}
set optking {
	frozen_dihedral = ("
		13 12 10 8
	")
}

ee,wfn = optimize('scf', return_wfn=True)
oeprop( wfn, 'DIPOLE', 'QUADRUPOLE', 'MULLIKEN_CHARGES')
f=open( 'psi4out.xyz', 'w' )
f.write( "16  " )
f.write( str(ee) + "\n" )
f.write( MOL.save_string_xyz() )
f.close()
--------------------------------------------------------------------------

    Molecular point group: c1
  Charge       = 0
  Multiplicity = 1
  Basis Set: CC-PVTZ
  Basis Set:
  @DF-RHF Final Energy:  -344.70269657030792
    Total Energy =                       -344.7026965703081487
    Molecular point group: c1
  Basis Set: CC-PVTZ
  Basis Set:
  Basis Set: CC-PVTZ
  Basis Set:
  @DF-RHF Final Energy:  -344.70247433818560
    Total Energy =                       -344.7024743381854250
  Basis Set: CC-PVTZ
  Basis Set:
  Basis Set: CC-PVTZ
  Basis Set:
  @DF-RHF Final Energy:  -344.70315608536549
    Total Energy =                       -344.7031560853655492
  Basis Set: CC-PVTZ
  Basis Set:
  Basis Set: CC-PVTZ
  Basis Set:
  @DF-RHF Final Energy:  -344.70316973713818
    Total Energy =                       -344.7031697371382961
  Basis Set: CC-PVTZ
  Basis Set:
  Charge       = 0
  Multiplicity = 1
  Basis Set: CC-PVTZ
  Basis Set:

    Orbital Energies (a.u.)
    -----------------------

    Doubly Occupied:

       1A    -20.578833     2A    -11.292864     3A    -11.278161
       4A    -11.231378     5A    -11.230098     6A    -11.222232
       7A    -11.218348     8A    -11.217587     9A     -1.418096
      10A     -1.151144    11A     -1.025253    12A     -1.016850
      13A     -0.943439    14A     -0.834944    15A     -0.808523
      16A     -0.725265    17A     -0.667770    18A     -0.666985
      19A     -0.658855    20A     -0.618920    21A     -0.590889
      22A     -0.580627    23A     -0.529310    24A     -0.521710
      25A     -0.511640    26A     -0.481431    27A     -0.463571
      28A     -0.339766    29A     -0.311306

  @DF-RHF Final Energy:  -344.70317055237501

   => Energetics <=

    Nuclear Repulsion Energy =            348.8303766232057797
    One-Electron Energy =               -1158.7955001643269952
    Two-Electron Energy =                 465.2619529887462022
    DFT Exchange-Correlation Energy =       0.0000000000000000
    Empirical Dispersion Energy =           0.0000000000000000
    PCM Polarization Energy =               0.0000000000000000
    EFP Energy =                            0.0000000000000000
    Total Energy =                       -344.7031705523750134
    Molecular point group: c1
  Basis Set: CC-PVTZ
  Basis Set:

  -Total Gradient:
     Atom            X                  Y                   Z
    ------   -----------------  -----------------  -----------------
       1        0.000002202901    -0.000004078352     0.000002576069
       2        0.000037549459     0.000171503357    -0.000009356633
       3        0.000131156310    -0.000107422561    -0.000018375097
       4       -0.000176252878    -0.000045964180     0.000010793925
       5       -0.000001000578     0.000007974110     0.000002209488
       6       -0.000157543040    -0.000038473165     0.000002899253
       7        0.000000648992     0.000004069801    -0.000002647178
       8        0.000053356692    -0.000060114205     0.001434641920
       9        0.000015296776    -0.000000473602    -0.000000259955
      10        0.000041343677    -0.000126725927    -0.002885482773
      11       -0.000041740464    -0.000004208567     0.000013913921
      12        0.000155088538     0.000707604336     0.002761051792
      13       -0.000098839502    -0.000516199772    -0.001334611782
      14        0.000029423749    -0.000010813642    -0.000001088088
      15        0.000016689916    -0.000007043688    -0.000009701359
      16       -0.000007380550     0.000030366058     0.000033436497

  **** Optimization is complete! (in 5 steps) ****
    Final optimized geometry and variables:
    Molecular point group: c1

    Geometry (in Angstrom), charge = 0, multiplicity = 1:

    H           -3.293209236631     0.568453119810     0.067658147496
    C           -2.244281722716     0.344983190687     0.062053851705
    C           -1.804987687984    -0.970425088441     0.081707419783
    C           -1.313285691074     1.358225581855     0.036197139584
    H           -2.517329021903    -1.773319476319     0.102463367875
    C           -0.461157362995    -1.261545930980     0.071485293706
    H           -1.634981678745     2.382443571287     0.024050069449
    C            0.045814680672     1.081105045469     0.030086994958
    H           -0.110615368072    -2.274752435355     0.086530377367
    C            0.473821936309    -0.233816853927     0.042638308503
    H            0.747674951414     1.889495809020     0.015779617784
    O            1.766992101348    -0.607224343242     0.068447764255
    C            2.756894292868     0.294322856653    -0.330771761961
    H            2.534442782819     0.718788864807    -1.303252423453
    H            3.676403619652    -0.266887290727    -0.389374781292
    H            2.883021429197     1.095783130296     0.388447792143

  Mulliken Charges: (a.u.)
   Center  Symbol    Alpha    Beta     Spin     Total
       1     H     0.42433  0.42433  0.00000  0.15134
       2     C     3.09969  3.09969  0.00000 -0.19938
       3     C     3.05888  3.05888  0.00000 -0.11777
       4     C     3.06146  3.06146  0.00000 -0.12292
       5     H     0.42291  0.42291  0.00000  0.15419
       6     C     3.11099  3.11099  0.00000 -0.22198
       7     H     0.42339  0.42339  0.00000  0.15322
       8     C     3.13867  3.13867  0.00000 -0.27734
       9     H     0.42043  0.42043  0.00000  0.15913
      10     C     2.85411  2.85411  0.00000  0.29178
      11     H     0.42262  0.42262  0.00000  0.15476
      12     O     4.15394  4.15394  0.00000 -0.30788
      13     C     3.04536  3.04536  0.00000 -0.09072
      14     H     0.46147  0.46147  0.00000  0.07706
      15     H     0.43963  0.43963  0.00000  0.12074
      16     H     0.46212  0.46212  0.00000  0.07575

   Total alpha = 29.00000, Total beta = 29.00000, Total charge = -0.00000

*** Psi4 exiting successfully. Buy a developer a beer!
