  ==> Input File <==

--------------------------------------------------------------------------
set {
	reference rhf
	basis 6-31G*
}

set_num_threads( 4 )
memory 2 gb

molecule MOL {
0 1

H	 2.728765	 -0.379463	 0.861319
N	 2.332695	 -0.069570	 0.000000
C	 0.936681	 -0.007078	 0.000000
H	 2.780011	 0.765315	 -0.312495
C	 0.227108	 -0.002120	 -1.198267
C	 0.227108	 -0.002120	 1.198267
H	 0.761569	 -0.014657	 -2.132680
C	 -1.156334	 0.010459	 -1.192360
H	 0.761569	 -0.014657	 2.132680
C	 -1.156334	 0.010459	 1.192360
H	 -1.684791	 0.014915	 -2.129421
C	 -1.862085	 0.017996	 0.000000
H	 -1.684791	 0.014915	 2.129421
H	 -2.936703	 0.028387	 0.000000

	symmetry c1
}
set optking {
	frozen_dihedral = ("
		1 2 3 5
	")
}

ee = optimize('scf')
oeprop('DIPOLE', 'QUADRUPOLE', 'MULLIKEN_CHARGES')
f=open( 'psi4out.xyz', 'w' )
f.write( "14  " )
f.write( str(ee) + "\n" )
f.write( MOL.save_string_xyz() )
f.close()
--------------------------------------------------------------------------

    Molecular point group: c1
  Charge       = 0
  Multiplicity = 1
  Basis Set: 6-31G*
  Basis Set:
  @DF-RHF Final Energy:  -285.72662406149141
    Total Energy =                       -285.7266240614913499
    Molecular point group: c1
  Basis Set: 6-31G*
  Basis Set:
  Basis Set: 6-31G*
  Basis Set:
  @DF-RHF Final Energy:  -285.72705798675764
    Total Energy =                       -285.7270579867575861
  Basis Set: 6-31G*
  Basis Set:
  Basis Set: 6-31G*
  Basis Set:
  @DF-RHF Final Energy:  -285.72711772433757
    Total Energy =                       -285.7271177243377451
  Basis Set: 6-31G*
  Basis Set:
  Basis Set: 6-31G*
  Basis Set:
  @DF-RHF Final Energy:  -285.72713034768242
    Total Energy =                       -285.7271303476821913
  Basis Set: 6-31G*
  Basis Set:
  Basis Set: 6-31G*
  Basis Set:
  @DF-RHF Final Energy:  -285.72713437711514
    Total Energy =                       -285.7271343771153624
  Basis Set: 6-31G*
  Basis Set:
  Charge       = 0
  Multiplicity = 1
  Basis Set: 6-31G*
  Basis Set:

    Orbital Energies (a.u.)
    -----------------------

    Doubly Occupied:

       1A    -15.551869     2A    -11.264269     3A    -11.228613
       4A    -11.227536     5A    -11.221622     6A    -11.219686
       7A    -11.218148     8A     -1.211629     9A     -1.125292
      10A     -1.009833    11A     -0.984292    12A     -0.826641
      13A     -0.807306    14A     -0.701447    15A     -0.674921
      16A     -0.647975    17A     -0.610690    18A     -0.590888
      19A     -0.580273    20A     -0.509735    21A     -0.500567
      22A     -0.487548    23A     -0.425651    24A     -0.330313
      25A     -0.303811

  @DF-RHF Final Energy:  -285.72713466116187

   => Energetics <=

    Nuclear Repulsion Energy =            272.6807707251396664
    One-Electron Energy =                -926.2946999400344339
    Two-Electron Energy =                 367.8867945537330115
    DFT Exchange-Correlation Energy =       0.0000000000000000
    Empirical Dispersion Energy =           0.0000000000000000
    PCM Polarization Energy =               0.0000000000000000
    EFP Energy =                            0.0000000000000000
    Total Energy =                       -285.7271346611618128
    Molecular point group: c1
  Basis Set: 6-31G*
  Basis Set:

  -Total Gradient:
     Atom            X                  Y                   Z
    ------   -----------------  -----------------  -----------------
       1       -0.000195712500    -0.003682108375    -0.001223460967
       2        0.000180204376     0.003318479229     0.001614159753
       3        0.000147261523     0.003278828150    -0.000382388403
       4        0.000002616312    -0.000006346451    -0.000007825383
       5       -0.000237498427    -0.002910876282     0.000026581028
       6        0.000083654591     0.000019497857    -0.000016391428
       7        0.000005808611     0.000000771381     0.000010346924
       8        0.000088883366    -0.000002900315    -0.000045493609
       9       -0.000004795277    -0.000001697777    -0.000003662259
      10       -0.000058622829    -0.000019650141    -0.000040165223
      11       -0.000011023164    -0.000001720081    -0.000000101875
      12       -0.000000805701     0.000000410654     0.000071396823
      13       -0.000002391761     0.000002901178     0.000001700457
      14        0.000002420878     0.000004410974    -0.000004695836

  **** Optimization is complete! (in 6 steps) ****
    Final optimized geometry and variables:
    Molecular point group: c1

    Geometry (in Angstrom), charge = 0, multiplicity = 1:

    H            2.742891412951    -0.373552236908     0.834224266573
    N            2.344271394339    -0.067341937443    -0.028105756406
    C            0.932063407808    -0.002668863011     0.004614310406
    H            2.779478914867     0.779179205909    -0.332084049397
    C            0.229013935031    -0.007402658392    -1.196495573088
    C            0.220971625544    -0.002238809109     1.197629618361
    H            0.777832365806    -0.044586227453    -2.120288611933
    C           -1.153180542449     0.025414784755    -1.199334879332
    H            0.752545896173    -0.004916391301     2.133998629034
    C           -1.165756892100     0.003262701965     1.190544454449
    H           -1.681309736103     0.029626885299    -2.136513965049
    C           -1.860518053637     0.026630070388    -0.005581316205
    H           -1.699798645894    -0.000796111744     2.124358610547
    H           -2.935527894832     0.038756731821    -0.010506482991

  Mulliken Charges: (a.u.)
   Center  Symbol    Alpha    Beta     Spin     Total
       1     H     0.32254  0.32254  0.00000  0.35492
       2     N     3.94812  3.94812  0.00000 -0.89624
       3     C     2.87515  2.87515  0.00000  0.24970
       4     H     0.31999  0.31999  0.00000  0.36002
       5     C     3.10933  3.10933  0.00000 -0.21866
       6     C     3.12151  3.12151  0.00000 -0.24302
       7     H     0.39735  0.39735  0.00000  0.20531
       8     C     3.09551  3.09551  0.00000 -0.19102
       9     H     0.40458  0.40458  0.00000  0.19085
      10     C     3.09485  3.09485  0.00000 -0.18969
      11     H     0.40033  0.40033  0.00000  0.19934
      12     C     3.10856  3.10856  0.00000 -0.21712
      13     H     0.40058  0.40058  0.00000  0.19885
      14     H     0.40161  0.40161  0.00000  0.19678

   Total alpha = 25.00000, Total beta = 25.00000, Total charge = -0.00000
