  ==> Input File <==

--------------------------------------------------------------------------
set {
	reference rhf
	basis cc-pvtz
}

set_num_threads( 4 )
memory 2 gb

molecule MOL {
0 1

H	 -4.022343	 -0.470315	 -0.170854
C	 -2.960393	 -0.314141	 -0.177720
C	 -2.450623	 0.952359	 -0.400772
C	 -2.106213	 -1.379282	 0.036373
H	 -3.114234	 1.778635	 -0.566873
C	 -1.085903	 1.152257	 -0.409447
H	 -2.502541	 -2.361069	 0.209258
C	 -0.739464	 -1.180725	 0.027987
H	 -0.674254	 2.126079	 -0.580547
C	 -0.225338	 0.086712	 -0.195148
H	 -0.075197	 -2.003466	 0.193449
C	 1.241174	 0.354841	 -0.214307
O	 1.968286	 -0.725612	 -0.000027
O	 1.713317	 1.425818	 -0.402108
C	 3.373556	 -0.568203	 0.000011
H	 3.695416	 -0.031588	 -0.879663
H	 3.782700	 -1.565294	 -0.000152
H	 3.695405	 -0.031851	 0.879862

	symmetry c1
}
set optking {
	frozen_dihedral = ("
		12 13 15 16
	")
}

ee = optimize('scf')
oeprop('DIPOLE', 'QUADRUPOLE', 'MULLIKEN_CHARGES')
f=open( 'psi4out.xyz', 'w' )
f.write( "18  " )
f.write( str(ee) + "\n" )
f.write( MOL.save_string_xyz() )
f.close()
--------------------------------------------------------------------------

    Molecular point group: c1
  Charge       = 0
  Multiplicity = 1
  Basis Set: CC-PVTZ
  Basis Set:
  @DF-RHF Final Energy:  -457.51004674038791
    Total Energy =                       -457.5100467403874518
    Molecular point group: c1
  Basis Set: CC-PVTZ
  Basis Set:
  Basis Set: CC-PVTZ
  Basis Set:
  @DF-RHF Final Energy:  -457.51005847129505
    Total Energy =                       -457.5100584712953378
  Basis Set: CC-PVTZ
  Basis Set:
  Basis Set: CC-PVTZ
  Basis Set:
  @DF-RHF Final Energy:  -457.50996936421876
    Total Energy =                       -457.5099693642189322
  Basis Set: CC-PVTZ
  Basis Set:
  Basis Set: CC-PVTZ
  Basis Set:
  @DF-RHF Final Energy:  -457.51006874919972
    Total Energy =                       -457.5100687491998315
  Basis Set: CC-PVTZ
  Basis Set:
  Charge       = 0
  Multiplicity = 1
  Basis Set: CC-PVTZ
  Basis Set:

    Orbital Energies (a.u.)
    -----------------------

    Doubly Occupied:

       1A    -20.600938     2A    -20.534449     3A    -11.371890
       4A    -11.281168     5A    -11.244992     6A    -11.243505
       7A    -11.242703     8A    -11.240058     9A    -11.236071
      10A    -11.235312    11A     -1.476900    12A     -1.368546
      13A     -1.170798    14A     -1.051864    15A     -1.029064
      16A     -0.980619    17A     -0.863222    18A     -0.838480
      19A     -0.781302    20A     -0.745117    21A     -0.687967
      22A     -0.681452    23A     -0.676418    24A     -0.634152
      25A     -0.630102    26A     -0.601321    27A     -0.587846
      28A     -0.565091    29A     -0.531782    30A     -0.520366
      31A     -0.509496    32A     -0.502246    33A     -0.463891
      34A     -0.449486    35A     -0.350227    36A     -0.346263

  @DF-RHF Final Energy:  -457.51006973789504

   => Energetics <=

    Nuclear Repulsion Energy =            494.0116852425014713
    One-Electron Energy =               -1602.4932975987876489
    Two-Electron Energy =                 650.9715426183906857
    DFT Exchange-Correlation Energy =       0.0000000000000000
    Empirical Dispersion Energy =           0.0000000000000000
    PCM Polarization Energy =               0.0000000000000000
    EFP Energy =                            0.0000000000000000
    Total Energy =                       -457.5100697378954919
    Molecular point group: c1
  Basis Set: CC-PVTZ
  Basis Set:

  -Total Gradient:
     Atom            X                  Y                   Z
    ------   -----------------  -----------------  -----------------
       1       -0.000000121665    -0.000000518300     0.000000384778
       2       -0.000002117376     0.000014798459    -0.000004037227
       3       -0.000009968579    -0.000007545243     0.000004585229
       4        0.000017141781    -0.000005658634    -0.000000068611
       5        0.000000907408     0.000000576021    -0.000001665741
       6        0.000013655475    -0.000006094946    -0.000003387172
       7       -0.000000480660     0.000000669577     0.000001276529
       8       -0.000012472711    -0.000009778411     0.000004893694
       9       -0.000000157366     0.000002228027     0.000001395933
      10        0.000008259954     0.000009602371     0.000001552950
      11        0.000003312776    -0.000000288890    -0.000001402663
      12        0.000009336811    -0.000130405961    -0.000822732300
      13       -0.000049119927     0.000420006577     0.001283026649
      14       -0.000009934722    -0.000003600731     0.000003735197
      15        0.000125622114    -0.001112137142    -0.000929611567
      16       -0.000090349726     0.000832976977     0.000466535785
      17       -0.000005220570    -0.000003271924    -0.000001649711
      18        0.000001706982    -0.000001557827    -0.000002831752

  **** Optimization is complete! (in 5 steps) ****
    Final optimized geometry and variables:
    Molecular point group: c1

    Geometry (in Angstrom), charge = 0, multiplicity = 1:

    H           -4.023787546158    -0.457672968271    -0.006729716251
    C           -2.961926599461    -0.300562104485    -0.011151160445
    C           -2.452810302990     0.966785933293    -0.231393904021
    C           -2.107149817402    -1.365109187863     0.203343017077
    H           -3.116839772862     1.792742474518    -0.397760205337
    C           -1.088279355169     1.167963410609    -0.236839427333
    H           -2.502753872252    -2.347586306793     0.374146170624
    C           -0.740451209991    -1.165260089548     0.198083937491
    H           -0.677296275969     2.142533137534    -0.405584215944
    C           -0.227123636488     0.102875894638    -0.022279101040
    H           -0.075889039595    -1.987742193226     0.363951954906
    C            1.239452249132     0.372873903032    -0.038268849238
    O            1.966588150218    -0.706715377606     0.179475271759
    O            1.710149668529     1.444561084027    -0.225359339465
    C            3.372502395219    -0.557157553746     0.164193153802
    H            3.691347504644    -0.031984578485    -0.722359264699
    H            3.779004506453    -1.555107590146     0.182387488333
    H            3.700483651203    -0.006700313296     1.034302598257

  Mulliken Charges: (a.u.)
   Center  Symbol    Alpha    Beta     Spin     Total
       1     H     0.42029  0.42029  0.00000  0.15942
       2     C     3.06975  3.06975  0.00000 -0.13950
       3     C     3.07550  3.07550  0.00000 -0.15101
       4     C     3.07493  3.07493  0.00000 -0.14987
       5     H     0.42038  0.42038  0.00000  0.15923
       6     C     3.07590  3.07590  0.00000 -0.15179
       7     H     0.42189  0.42189  0.00000  0.15623
       8     C     3.08211  3.08211  0.00000 -0.16421
       9     H     0.40665  0.40665  0.00000  0.18670
      10     C     3.01296  3.01296  0.00000 -0.02593
      11     H     0.41105  0.41105  0.00000  0.17790
      12     C     2.78162  2.78162  0.00000  0.43675
      13     O     4.14850  4.14850  0.00000 -0.29699
      14     O     4.21140  4.21140  0.00000 -0.42280
      15     C     3.03687  3.03687  0.00000 -0.07374
      16     H     0.45034  0.45034  0.00000  0.09931
      17     H     0.44545  0.44545  0.00000  0.10910
      18     H     0.45441  0.45441  0.00000  0.09118

   Total alpha = 36.00000, Total beta = 36.00000, Total charge = -0.00000
