                              Psi4 1.0.54 Driver

  ==> Input File <==

--------------------------------------------------------------------------
set {
	reference rhf
	basis cc-pvtz
}

set_num_threads( 4 )
memory 2 gb

molecule MOL {
0 1

O	 2.868453	 1.353349	 -0.000734
C	 2.841259	 0.166180	 -0.000295
C	 1.542794	 -0.614730	 -0.000853
C	 4.113372	 -0.651103	 0.000743
C	 0.288398	 0.247429	 0.000314
H	 1.557171	 -1.273139	 -0.866508
H	 1.557484	 -1.274998	 0.863344
C	 -0.641995	 -0.068964	 -1.167324
H	 0.575234	 1.292385	 -0.029798
H	 -0.237218	 0.108984	 0.938235
C	 -1.903765	 0.789029	 -1.177930
H	 -0.107443	 0.069691	 -2.104503
H	 -0.923923	 -1.118972	 -1.131825
C	 -2.839287	 0.478862	 -2.342976
H	 -1.622981	 1.838790	 -1.213649
H	 -2.439205	 0.650515	 -0.241850
C	 -4.097778	 1.340242	 -2.346835
H	 -2.305265	 0.618197	 -3.279109
H	 -3.121491	 -0.569951	 -2.307338
H	 -3.850223	 2.394221	 -2.416728
H	 -4.739333	 1.095229	 -3.185523
H	 -4.672602	 1.197104	 -1.437917
H	 4.145311	 -1.294584	 -0.871587
H	 4.970080	 0.004978	 -0.000091
H	 4.145223	 -1.291980	 0.874988

	symmetry c1
}
set optking {
	frozen_dihedral = ("
		9 5 3 6
	")
}

ee,wfn = optimize('scf', return_wfn=True)
oeprop( wfn, 'DIPOLE', 'QUADRUPOLE', 'MULLIKEN_CHARGES')
f=open( 'psi4out.xyz', 'w' )
f.write( "25  " )
f.write( str(ee) + "\n" )
f.write( MOL.save_string_xyz() )
f.close()
--------------------------------------------------------------------------

    Molecular point group: c1
  Charge       = 0
  Multiplicity = 1
  Basis Set: CC-PVTZ
  Basis Set:
  @DF-RHF Final Energy:  -387.26986803917328
    Total Energy =                       -387.2698680391730477
    Molecular point group: c1
  Basis Set: CC-PVTZ
  Basis Set:
  Basis Set: CC-PVTZ
  Basis Set:
  @DF-RHF Final Energy:  -387.27015270178674
    Total Energy =                       -387.2701527017870831
  Basis Set: CC-PVTZ
  Basis Set:
  Basis Set: CC-PVTZ
  Basis Set:
  @DF-RHF Final Energy:  -387.27003362913757
    Total Energy =                       -387.2700336291371741
  Basis Set: CC-PVTZ
  Basis Set:
  Basis Set: CC-PVTZ
  Basis Set:
  @DF-RHF Final Energy:  -387.27025525148497
    Total Energy =                       -387.2702552514845138
  Basis Set: CC-PVTZ
  Basis Set:
  @DF-RHF Final Energy:  -387.27025993212806
    Total Energy =                       -387.2702599321283969
  @DF-RHF Final Energy:  -387.27026224096164
    Total Energy =                       -387.2702622409618698
  @DF-RHF Final Energy:  -387.27026521691488
    Total Energy =                       -387.2702652169148223
  @DF-RHF Final Energy:  -387.27026981214675
    Total Energy =                       -387.2702698121469211
  @DF-RHF Final Energy:  -387.27027717758801
    Total Energy =                       -387.2702771775882411
  @DF-RHF Final Energy:  -387.27027991271251
    Total Energy =                       -387.2702799127125672
  @DF-RHF Final Energy:  -387.27028207631599
    Total Energy =                       -387.2702820763154250
  Basis Set: CC-PVTZ
  Basis Set:
  @DF-RHF Final Energy:  -387.27028484743761
    Total Energy =                       -387.2702848474374377
  Basis Set: CC-PVTZ
  Basis Set:
  Basis Set: CC-PVTZ
  Basis Set:
  @DF-RHF Final Energy:  -387.27027428483467
    Total Energy =                       -387.2702742848346134
  Basis Set: CC-PVTZ
  Basis Set:
  Basis Set: CC-PVTZ
  Basis Set:
  @DF-RHF Final Energy:  -387.27028697229656
    Total Energy =                       -387.2702869722969581
  Basis Set: CC-PVTZ
  Basis Set:
  Charge       = 0
  Multiplicity = 1
  Basis Set: CC-PVTZ
  Basis Set:

    Orbital Energies (a.u.)
    -----------------------

    Doubly Occupied:

       1A    -20.539694     2A    -11.321902     3A    -11.230423
       4A    -11.227094     5A    -11.213804     6A    -11.213040
       7A    -11.212317     8A    -11.210064     9A    -11.205471
      10A     -1.400048    11A     -1.093005    12A     -1.056369
      13A     -1.015531    14A     -0.968862    15A     -0.891416
      16A     -0.815344    17A     -0.790382    18A     -0.730728
      19A     -0.668432    20A     -0.644446    21A     -0.634611
      22A     -0.623977    23A     -0.595938    24A     -0.584072
      25A     -0.573611    26A     -0.560027    27A     -0.535211
      28A     -0.526891    29A     -0.516303    30A     -0.497758
      31A     -0.483891    32A     -0.472023    33A     -0.463066
      34A     -0.460586    35A     -0.446964    36A     -0.403380

  @DF-RHF Final Energy:  -387.27028719400840

   => Energetics <=

    Nuclear Repulsion Energy =            441.0973254955967491
    One-Electron Energy =               -1399.0818618636112660
    Two-Electron Energy =                 570.7142491740056585
    DFT Exchange-Correlation Energy =       0.0000000000000000
    Empirical Dispersion Energy =           0.0000000000000000
    PCM Polarization Energy =               0.0000000000000000
    EFP Energy =                            0.0000000000000000
    Total Energy =                       -387.2702871940088016
    Molecular point group: c1
  Basis Set: CC-PVTZ
  Basis Set:

  -Total Gradient:
     Atom            X                  Y                   Z
    ------   -----------------  -----------------  -----------------
       1       -0.000011692008     0.000121642063    -0.000001508802
       2       -0.000029091137    -0.000123604642     0.000003376345
       3        0.000228357841     0.000348699052    -0.000145564264
       4        0.000011864493     0.000012801727    -0.000017964129
       5       -0.000062207419    -0.000062900833    -0.000391117480
       6       -0.000162123944    -0.000260337507     0.000166914947
       7       -0.000003089467    -0.000006682537     0.000008082232
       8        0.000007537470    -0.000005979451     0.000006928983
       9        0.000011586364     0.000002952917     0.000346424127
      10        0.000004609945     0.000001288638     0.000006954579
      11        0.000005105042     0.000000438307     0.000002155764
      12       -0.000002825783    -0.000000910645    -0.000001497000
      13       -0.000000029465    -0.000000958760     0.000000080627
      14        0.000000675395     0.000000957293    -0.000005507919
      15       -0.000001672536     0.000001915343    -0.000000125603
      16        0.000000880550     0.000000345024     0.000000947232
      17       -0.000000262526    -0.000000176088     0.000001653190
      18       -0.000000471350     0.000000637585    -0.000000053409
      19        0.000000866852    -0.000000078912     0.000001105912
      20        0.000000040300     0.000000356397    -0.000000400513
      21        0.000000119207    -0.000001134921    -0.000000594159
      22       -0.000000169278     0.000000187159     0.000000279022
      23       -0.000003045184    -0.000022151240    -0.000016496980
      24        0.000000928681     0.000003841381     0.000002033771
      25        0.000004107961    -0.000011147351     0.000033893527

  **** Optimization is complete! (in 15 steps) ****
    Final optimized geometry and variables:
    Molecular point group: c1

    Geometry (in Angstrom), charge = 0, multiplicity = 1:

    O            2.674625345722     0.990542564073     0.661619688226
    C            2.626330151928    -0.191605749899     0.758290111113
    C            1.322772567908    -0.970056944778     0.753054555164
    C            3.884875448957    -1.019368559798     0.891943116425
    C            0.043476365079    -0.123205043585     0.780283758153
    H            1.352740971658    -1.598794418104    -0.133740775271
    H            1.358184098756    -1.664407428134     1.586924584250
    C           -0.889780318981    -0.398108054003    -0.396999484501
    H            0.316561371695     0.922706504437     0.786807462609
    H           -0.489575384319    -0.309275778116     1.706686812314
    C           -2.163273080244     0.440357046603    -0.360913421241
    H           -0.357135577176    -0.202339460892    -1.324675365958
    H           -1.154779617242    -1.453152697281    -0.413477608874
    C           -3.096696994240     0.177899738825    -1.539372697666
    H           -1.896956210060     1.494165411490    -0.342180143958
    H           -2.695578712156     0.245212055843     0.567272383430
    C           -4.367779802781     1.019464726954    -1.496215309993
    H           -2.566579757953     0.374690001917    -2.467219388200
    H           -3.363306600312    -0.875482374730    -1.558909141657
    H           -4.135769710725     2.079154356298    -1.510676556176
    H           -5.007304018011     0.809613415320    -2.345954233161
    H           -4.938831568460     0.820024409713    -0.595449471359
    H            3.881332565691    -1.844927262454     0.189728082862
    H            4.751633492716    -0.397996091056     0.727276288722
    H            3.932048115390    -1.443538190285     1.889527040762

  Mulliken Charges: (a.u.)
   Center  Symbol    Alpha    Beta     Spin     Total
       1     O     4.17079  4.17079  0.00000 -0.34158
       2     C     2.85822  2.85822  0.00000  0.28356
       3     C     3.12253  3.12253  0.00000 -0.24506
       4     C     3.15092  3.15092  0.00000 -0.30184
       5     C     3.09676  3.09676  0.00000 -0.19352
       6     H     0.44283  0.44283  0.00000  0.11433
       7     H     0.43854  0.43854  0.00000  0.12291
       8     C     3.09209  3.09209  0.00000 -0.18417
       9     H     0.43537  0.43537  0.00000  0.12925
      10     H     0.45070  0.45070  0.00000  0.09860
      11     C     3.08779  3.08779  0.00000 -0.17558
      12     H     0.45277  0.45277  0.00000  0.09446
      13     H     0.45526  0.45526  0.00000  0.08949
      14     C     3.08369  3.08369  0.00000 -0.16738
      15     H     0.45172  0.45172  0.00000  0.09656
      16     H     0.45578  0.45578  0.00000  0.08845
      17     C     3.15056  3.15056  0.00000 -0.30112
      18     H     0.45446  0.45446  0.00000  0.09108
      19     H     0.45572  0.45572  0.00000  0.08857
      20     H     0.45437  0.45437  0.00000  0.09126
      21     H     0.44868  0.44868  0.00000  0.10263
      22     H     0.45550  0.45550  0.00000  0.08900
      23     H     0.45055  0.45055  0.00000  0.09891
      24     H     0.43544  0.43544  0.00000  0.12913
      25     H     0.44897  0.44897  0.00000  0.10206

   Total alpha = 36.00000, Total beta = 36.00000, Total charge = -0.00000

*** Psi4 exiting successfully. Buy a developer a beer!
