  ==> Input File <==

--------------------------------------------------------------------------
set {
	reference rhf
	basis cc-pvtz
}

set_num_threads( 4 )
memory 2 gb

molecule MOL {
0 1

H	 -2.266619	 1.169943	 0.000098
O	 -1.438073	 1.611259	 0.000041
C	 -0.408657	 0.734701	 0.000005
C	 -0.333038	 -0.139774	 -1.068164
C	 0.536658	 0.702293	 1.018553
H	 -1.081587	 -0.083170	 -1.833932
C	 0.690897	 -1.060815	 -1.133043
C	 1.554373	 -0.233376	 0.927401
C	 0.452748	 1.657271	 2.183533
H	 0.743182	 -1.736523	 -1.965308
C	 1.642670	 -1.112872	 -0.133120
H	 2.292843	 -0.271181	 1.706632
H	 -0.473121	 1.535454	 2.738733
H	 1.266143	 1.488751	 2.874496
H	 0.512423	 2.692959	 1.860864
H	 2.441996	 -1.826686	 -0.176914

	symmetry c1
}
set optking {
	frozen_dihedral = ("
		4 3 2 1
	")
}

ee = optimize('scf')
oeprop('DIPOLE', 'QUADRUPOLE', 'MULLIKEN_CHARGES')
f=open( 'psi4out.xyz', 'w' )
f.write( "16  " )
f.write( str(ee) + "\n" )
f.write( MOL.save_string_xyz() )
f.close()
--------------------------------------------------------------------------

    Molecular point group: c1
  Charge       = 0
  Multiplicity = 1
  Basis Set: CC-PVTZ
  Basis Set:
  @DF-RHF Final Energy:  -344.71546225835766
    Total Energy =                       -344.7154622583578885
    Molecular point group: c1
  Basis Set: CC-PVTZ
  Basis Set:
  Basis Set: CC-PVTZ
  Basis Set:
  @DF-RHF Final Energy:  -344.71700936516964
    Total Energy =                       -344.7170093651694742
  Basis Set: CC-PVTZ
  Basis Set:
  Basis Set: CC-PVTZ
  Basis Set:
  @DF-RHF Final Energy:  -344.71710611640265
    Total Energy =                       -344.7171061164021353
  Basis Set: CC-PVTZ
  Basis Set:
  Basis Set: CC-PVTZ
  Basis Set:
  @DF-RHF Final Energy:  -344.71711338081695
    Total Energy =                       -344.7171133808168406
  Basis Set: CC-PVTZ
  Basis Set:
  Charge       = 0
  Multiplicity = 1
  Basis Set: CC-PVTZ
  Basis Set:

    Orbital Energies (a.u.)
    -----------------------

    Doubly Occupied:

       1A    -20.573035     2A    -11.284843     3A    -11.231578
       4A    -11.227778     5A    -11.225791     6A    -11.223684
       7A    -11.221235     8A    -11.214723     9A     -1.400279
      10A     -1.153274    11A     -1.047433    12A     -1.006614
      13A     -0.933166    14A     -0.839057    15A     -0.804738
      16A     -0.732197    17A     -0.670990    18A     -0.658172
      19A     -0.622863    20A     -0.594965    21A     -0.574363
      22A     -0.564426    23A     -0.544014    24A     -0.527567
      25A     -0.502391    26A     -0.486880    27A     -0.469834
      28A     -0.333388    29A     -0.318205

  @DF-RHF Final Energy:  -344.71711488836161

   => Energetics <=

    Nuclear Repulsion Energy =            350.5587114139101459
    One-Electron Energy =               -1162.5766880573287381
    Two-Electron Energy =                 467.3008617550568147
    DFT Exchange-Correlation Energy =       0.0000000000000000
    Empirical Dispersion Energy =           0.0000000000000000
    PCM Polarization Energy =               0.0000000000000000
    EFP Energy =                            0.0000000000000000
    Total Energy =                       -344.7171148883617775
    Molecular point group: c1
  Basis Set: CC-PVTZ
  Basis Set:

  -Total Gradient:
     Atom            X                  Y                   Z
    ------   -----------------  -----------------  -----------------
       1        0.000044530141    -0.000114160295     0.002132926188
       2        0.000333614324     0.000734301778    -0.003009689695
       3       -0.001081661399    -0.001684385735     0.001724922419
       4        0.000875380202     0.001052428965    -0.000737308094
       5       -0.000217967734     0.000146631134    -0.000075394714
       6        0.000034281766    -0.000015598429     0.000016917040
       7       -0.000056483972    -0.000022978035    -0.000024811441
       8        0.000049599664    -0.000157262666    -0.000066065626
       9        0.000036785804     0.000020157968     0.000058703577
      10        0.000037666291    -0.000020091356     0.000000467189
      11        0.000035910698     0.000071161959     0.000077167051
      12       -0.000019327250     0.000012789997    -0.000008428895
      13       -0.000019885848     0.000003907909     0.000013941158
      14       -0.000032055414    -0.000016770653    -0.000047659604
      15       -0.000008773453     0.000012815218    -0.000004898346
      16       -0.000011613819    -0.000022947762    -0.000050788203

  **** Optimization is complete! (in 5 steps) ****
    Final optimized geometry and variables:
    Molecular point group: c1

    Geometry (in Angstrom), charge = 0, multiplicity = 1:

    H           -2.536152941594     0.914358769949    -0.204791732455
    O           -1.689095956644     1.322962114555    -0.194212298556
    C           -0.698513333034     0.383625345656    -0.249136067957
    C           -0.612609905775    -0.478980736787    -1.323022658044
    C            0.250610721712     0.366411264275     0.764523161584
    H           -1.347985226340    -0.418705927015    -2.103163222393
    C            0.414973458867    -1.400699986076    -1.391221532745
    C            1.277593862624    -0.557569520688     0.668703733381
    C            0.156207315493     1.328907707352     1.919574414446
    H            0.474633337482    -2.073243729365    -2.225365644082
    C            1.364935740881    -1.440335561741    -0.392405800438
    H            2.021821435370    -0.588682542008     1.442393961792
    H           -0.777242053576     1.206991826984     2.455806977397
    H            0.970120787002     1.170950748187     2.614156354632
    H            0.193484631272     2.355405955629     1.576591627835
    H            2.170740558793    -2.147327849172    -0.437799304044

  Mulliken Charges: (a.u.)
   Center  Symbol    Alpha    Beta     Spin     Total
       1     H     0.38542  0.38542  0.00000  0.22915
       2     O     4.18825  4.18825  0.00000 -0.37649
       3     C     2.88319  2.88319  0.00000  0.23362
       4     C     3.11775  3.11775  0.00000 -0.23550
       5     C     2.99241  2.99241  0.00000  0.01518
       6     H     0.42382  0.42382  0.00000  0.15236
       7     C     3.07550  3.07550  0.00000 -0.15100
       8     C     3.09124  3.09124  0.00000 -0.18249
       9     C     3.13918  3.13918  0.00000 -0.27836
      10     H     0.42241  0.42241  0.00000  0.15518
      11     C     3.08207  3.08207  0.00000 -0.16415
      12     H     0.42458  0.42458  0.00000  0.15083
      13     H     0.45176  0.45176  0.00000  0.09648
      14     H     0.45361  0.45361  0.00000  0.09278
      15     H     0.44451  0.44451  0.00000  0.11098
      16     H     0.42430  0.42430  0.00000  0.15140

   Total alpha = 29.00000, Total beta = 29.00000, Total charge =  0.00000
