  ==> Input File <==

--------------------------------------------------------------------------
set {
	reference rhf
	basis 6-31G*
}

set_num_threads( 1 )
memory 2 gb

molecule MOL {
0 1

H	 -2.499100	 -0.730091	 -0.745082
O	 -2.347518	 -0.290803	 0.079804
C	 -1.184022	 0.487508	 -0.006784
C	 0.062599	 -0.378592	 0.031606
H	 -1.176523	 1.099369	 -0.904519
H	 -1.187323	 1.153111	 0.844927
O	 1.171513	 0.459272	 -0.058250
H	 0.050699	 -1.089204	 -0.797170
H	 0.078739	 -0.954914	 0.954740
C	 2.389813	 -0.166485	 0.193374
H	 2.579936	 -0.967861	 -0.518159
H	 3.166388	 0.579481	 0.096570
H	 2.422692	 -0.582178	 1.198316

	symmetry c1
}
set optking {
	frozen_dihedral = ("
		8 4 3 5,
		1 2 3 5,
		4 7 10 13
	")
}

ee = energy('scf')
oeprop('DIPOLE', 'QUADRUPOLE', 'MULLIKEN_CHARGES')
f=open( 'psi4out.xyz', 'w' )
f.write( "13  " )
f.write( str(ee) + "\n" )
f.write( MOL.save_string_xyz() )
f.close()
--------------------------------------------------------------------------

    Molecular point group: c1

    Geometry (in Angstrom), charge = 0, multiplicity = 1:

       Center              X                  Y                   Z               Mass
    ------------   -----------------  -----------------  -----------------  -----------------
           H         -2.497429723222    -0.736663506371    -0.785761090916     1.007825032070
           O         -2.345847723222    -0.297375506371     0.039124909084    15.994914619560
           C         -1.182351723222     0.480935493629    -0.047463090916    12.000000000000
           C          0.064269276778    -0.385164506371    -0.009073090916    12.000000000000
           H         -1.174852723222     1.092796493629    -0.945198090916     1.007825032070
           H         -1.185652723222     1.146538493629     0.804247909084     1.007825032070
           O          1.173183276778     0.452699493629    -0.098929090916    15.994914619560
           H          0.052369276778    -1.095776506371    -0.837849090916     1.007825032070
           H          0.080409276778    -0.961486506371     0.914060909084     1.007825032070
           C          2.391483276778    -0.173057506371     0.152694909084    12.000000000000
           H          2.581606276778    -0.974433506371    -0.558838090916     1.007825032070
           H          3.168058276778     0.572908493629     0.055890909084     1.007825032070
           H          2.424362276778    -0.588750506371     1.157636909084     1.007825032070

  Charge       = 0
  Multiplicity = 1
  Basis Set: 6-31G*
  Basis Set:

    Orbital Energies (a.u.)
    -----------------------

    Doubly Occupied:

       1A    -20.562342     2A    -20.560102     3A    -11.270834
       4A    -11.270254     5A    -11.268915     6A     -1.388906
       7A     -1.365177     8A     -1.018478     9A     -0.913492
      10A     -0.841815    11A     -0.709321    12A     -0.674928
      13A     -0.660266    14A     -0.636310    15A     -0.597078
      16A     -0.571007    17A     -0.542457    18A     -0.489013
      19A     -0.483523    20A     -0.439176    21A     -0.421027

  @DF-RHF Final Energy:  -267.95044775842200

   => Energetics <=

    Nuclear Repulsion Energy =            190.2751121260193941
    One-Electron Energy =                -743.0822804368521020
    Two-Electron Energy =                 284.8567205524103088
    DFT Exchange-Correlation Energy =       0.0000000000000000
    Empirical Dispersion Energy =           0.0000000000000000
    PCM Polarization Energy =               0.0000000000000000
    EFP Energy =                            0.0000000000000000
    Total Energy =                       -267.9504477584223991

  Mulliken Charges: (a.u.)
   Center  Symbol    Alpha    Beta     Spin     Total
       1     H     0.28121  0.28121  0.00000  0.43757
       2     O     4.37088  4.37088  0.00000 -0.74175
       3     C     3.00459  3.00459  0.00000 -0.00917
       4     C     2.99682  2.99682  0.00000  0.00636
       5     H     0.42202  0.42202  0.00000  0.15595
       6     H     0.40888  0.40888  0.00000  0.18224
       7     O     4.30743  4.30743  0.00000 -0.61486
       8     H     0.43668  0.43668  0.00000  0.12663
       9     H     0.42377  0.42377  0.00000  0.15246
      10     C     3.08021  3.08021  0.00000 -0.16043
      11     H     0.42922  0.42922  0.00000  0.14156
      12     H     0.41084  0.41084  0.00000  0.17832
      13     H     0.42744  0.42744  0.00000  0.14513

   Total alpha = 21.00000, Total beta = 21.00000, Total charge =  0.00000
