  ==> Input File <==

--------------------------------------------------------------------------
set {
	reference rhf
	basis 6-31G*
}

set_num_threads( 4 )
memory 2 gb

molecule MOL {
0 1

O	 -2.439739	 -0.935931	 -0.423848
C	 -1.921153	 0.064240	 -0.045697
C	 -2.624470	 1.379923	 0.150949
O	 -0.632575	 0.154573	 0.251549
H	 -2.168117	 2.136577	 -0.476876
H	 -3.669540	 1.273223	 -0.098610
H	 -2.519365	 1.700893	 1.180846
C	 0.160891	 -1.019931	 0.106212
C	 1.589627	 -0.672828	 0.480843
H	 0.089836	 -1.367806	 -0.916050
H	 -0.238459	 -1.792301	 0.749618
C	 1.847138	 -0.644806	 1.988590
H	 1.811266	 0.303360	 0.054386
H	 2.260132	 -1.382504	 0.003306
C	 3.287552	 -0.266047	 2.330277
H	 1.166322	 0.064268	 2.455283
H	 1.617191	 -1.617841	 2.410119
H	 3.444904	 -0.254116	 3.404117
H	 3.536798	 0.720078	 1.948554
H	 3.991167	 -0.973717	 1.901083

	symmetry c1
}
set optking {
	frozen_dihedral = ("
		12 9 8 10
	")
}

ee = optimize('scf')
oeprop('DIPOLE', 'QUADRUPOLE', 'MULLIKEN_CHARGES')
f=open( 'psi4out.xyz', 'w' )
f.write( "20  " )
f.write( str(ee) + "\n" )
f.write( MOL.save_string_xyz() )
f.close()
--------------------------------------------------------------------------

    Molecular point group: c1
  Charge       = 0
  Multiplicity = 1
  Basis Set: 6-31G*
  Basis Set:
  @DF-RHF Final Energy:  -383.94434616367971
    Total Energy =                       -383.9443461636797110
    Molecular point group: c1
  Basis Set: 6-31G*
  Basis Set:
  Basis Set: 6-31G*
  Basis Set:
  @DF-RHF Final Energy:  -383.94452231939636
    Total Energy =                       -383.9445223193962420
  Basis Set: 6-31G*
  Basis Set:
  Basis Set: 6-31G*
  Basis Set:
  @DF-RHF Final Energy:  -383.94436835729249
    Total Energy =                       -383.9443683572926602
  Basis Set: 6-31G*
  Basis Set:
  Basis Set: 6-31G*
  Basis Set:
  @DF-RHF Final Energy:  -383.94460082165335
    Total Energy =                       -383.9446008216534665
  Basis Set: 6-31G*
  Basis Set:
  Basis Set: 6-31G*
  Basis Set:
  @DF-RHF Final Energy:  -383.94460174882227
    Total Energy =                       -383.9446017488220377
  Basis Set: 6-31G*
  Basis Set:
  Basis Set: 6-31G*
  Basis Set:
  @DF-RHF Final Energy:  -383.94460535186522
    Total Energy =                       -383.9446053518651070
  Basis Set: 6-31G*
  Basis Set:
  Charge       = 0
  Multiplicity = 1
  Basis Set: 6-31G*
  Basis Set:

    Orbital Energies (a.u.)
    -----------------------

    Doubly Occupied:

       1A    -20.602124     2A    -20.544127     3A    -11.374499
       4A    -11.281965     5A    -11.233406     6A    -11.225139
       7A    -11.221918     8A    -11.213902     9A     -1.468119
      10A     -1.362314    11A     -1.086189    12A     -1.028624
      13A     -0.981147    14A     -0.880681    15A     -0.809230
      16A     -0.779497    17A     -0.689624    18A     -0.681421
      19A     -0.667558    20A     -0.630909    21A     -0.602390
      22A     -0.592522    23A     -0.571946    24A     -0.551990
      25A     -0.544400    26A     -0.529725    27A     -0.512457
      28A     -0.482171    29A     -0.477405    30A     -0.473884
      31A     -0.447604    32A     -0.438454

  @DF-RHF Final Energy:  -383.94460526009021

   => Energetics <=

    Nuclear Repulsion Energy =            383.8877803484955962
    One-Electron Energy =               -1283.6900855857043098
    Two-Electron Energy =                 515.8576999771186138
    DFT Exchange-Correlation Energy =       0.0000000000000000
    Empirical Dispersion Energy =           0.0000000000000000
    PCM Polarization Energy =               0.0000000000000000
    EFP Energy =                            0.0000000000000000
    Total Energy =                       -383.9446052600900430
    Molecular point group: c1
  Basis Set: 6-31G*
  Basis Set:

  -Total Gradient:
     Atom            X                  Y                   Z
    ------   -----------------  -----------------  -----------------
       1       -0.000000775688    -0.000001958373    -0.000003539071
       2        0.000011130917    -0.000000251855     0.000022318688
       3       -0.000002537900     0.000001009797    -0.000003869280
       4       -0.000004313419    -0.000003977996     0.000005768986
       5       -0.000002324980     0.000005046919    -0.000001901109
       6        0.000000493230     0.000000397118    -0.000001483180
       7        0.000003210919    -0.000003158669    -0.000003081448
       8       -0.000379852032     0.003426279895    -0.001580066613
       9       -0.000765179526     0.002795386860     0.000352086457
      10        0.000519470284    -0.003567356995     0.001232350352
      11       -0.000012040954    -0.000006790760     0.000007550439
      12        0.000630742975    -0.002617353738    -0.000025681285
      13       -0.000007916214    -0.000005731267     0.000002870098
      14        0.000010991726     0.000002404586    -0.000003700236
      15        0.000004055782    -0.000023015284     0.000004892046
      16        0.000008750999     0.000008172227    -0.000006180071
      17       -0.000012126545    -0.000003022513     0.000002607210
      18        0.000002501888    -0.000007355456     0.000000409553
      19       -0.000010628744    -0.000001891381     0.000003625359
      20        0.000006347288     0.000003166885    -0.000004976892

  **** Optimization is complete! (in 7 steps) ****
    Final optimized geometry and variables:
    Molecular point group: c1

    Geometry (in Angstrom), charge = 0, multiplicity = 1:

    O           -2.343530733382    -0.711371361394    -0.980532415830
    C           -1.817735290123     0.297079176380    -0.635737562174
    C           -2.521444365276     1.611663781021    -0.432822813211
    O           -0.520635910871     0.397942609921    -0.382039469361
    H           -2.090543825340     2.361973712569    -1.085676137665
    H           -3.573630032455     1.496053041983    -0.645857100283
    H           -2.383733120052     1.947009915753     0.588650846347
    C            0.272689574113    -0.774614075324    -0.531054719080
    C            1.701309375442    -0.433139122986    -0.141790927026
    H            0.207943811919    -1.133741004751    -1.549334319517
    H           -0.131994215223    -1.552734767313     0.103448171085
    C            1.931945053537    -0.391991289919     1.370092170026
    H            1.971853030034     0.515566958037    -0.595852824776
    H            2.354238783705    -1.185982929567    -0.578470479697
    C            3.368899013448    -0.026486004127     1.738421032595
    H            1.248543049708     0.323230869116     1.819854866429
    H            1.685556735095    -1.363442103635     1.792666514003
    H            3.507141273757    -0.016373472274     2.814880430323
    H            3.631526690839     0.957884430492     1.361793709279
    H            4.075060222726    -0.738930437192     1.320989938548

  Mulliken Charges: (a.u.)
   Center  Symbol    Alpha    Beta     Spin     Total
       1     O     4.28327  4.28327  0.00000 -0.56654
       2     C     2.61944  2.61944  0.00000  0.76113
       3     C     3.28158  3.28158  0.00000 -0.56317
       4     O     4.30831  4.30831  0.00000 -0.61663
       5     H     0.40053  0.40053  0.00000  0.19894
       6     H     0.39688  0.39688  0.00000  0.20625
       7     H     0.40078  0.40078  0.00000  0.19845
       8     C     3.00366  3.00366  0.00000 -0.00732
       9     C     3.16434  3.16434  0.00000 -0.32868
      10     H     0.40846  0.40846  0.00000  0.18308
      11     H     0.41060  0.41060  0.00000  0.17879
      12     C     3.15570  3.15570  0.00000 -0.31139
      13     H     0.41183  0.41183  0.00000  0.17633
      14     H     0.41849  0.41849  0.00000  0.16303
      15     C     3.24042  3.24042  0.00000 -0.48083
      16     H     0.41494  0.41494  0.00000  0.17012
      17     H     0.42178  0.42178  0.00000  0.15643
      18     H     0.41741  0.41741  0.00000  0.16518
      19     H     0.42015  0.42015  0.00000  0.15971
      20     H     0.42144  0.42144  0.00000  0.15712

   Total alpha = 32.00000, Total beta = 32.00000, Total charge = -0.00000
