  ==> Input File <==

--------------------------------------------------------------------------
set {
	reference rhf
	basis 6-31G*
}

set_num_threads( 4 )
memory 2 gb

molecule MOL {
0 1

H	 -2.692790	 -1.233677	 0.205205
C	 -2.945672	 -0.523555	 -0.591914
C	 -2.660244	 0.921717	 -0.272021
O	 -3.409097	 -0.913407	 -1.614168
C	 -1.220012	 1.144545	 0.209990
H	 -2.883336	 1.516912	 -1.149906
H	 -3.351477	 1.217355	 0.516300
C	 -0.252658	 0.041456	 -0.226725
H	 -0.873521	 2.100229	 -0.171974
H	 -1.211708	 1.231594	 1.295398
C	 1.180775	 0.282413	 0.250794
H	 -0.266029	 -0.034465	 -1.312038
H	 -0.597733	 -0.921000	 0.146291
C	 2.148627	 -0.814315	 -0.201312
H	 1.516199	 1.249228	 -0.115937
H	 1.192670	 0.346017	 1.338083
C	 3.580890	 -0.659131	 0.322722
H	 2.166869	 -0.852443	 -1.289387
H	 1.762857	 -1.776509	 0.128956
C	 4.324889	 0.564933	 -0.213704
H	 4.142010	 -1.551473	 0.056605
H	 3.564836	 -0.624694	 1.410140
H	 4.342616	 0.565491	 -1.300421
H	 3.866655	 1.493402	 0.110242
H	 5.353900	 0.572371	 0.132816

	symmetry c1
}
set optking {
	frozen_dihedral = ("
		6 3 5 8
	")
}

ee = optimize('scf')
oeprop('DIPOLE', 'QUADRUPOLE', 'MULLIKEN_CHARGES')
f=open( 'psi4out.xyz', 'w' )
f.write( "25  " )
f.write( str(ee) + "\n" )
f.write( MOL.save_string_xyz() )
f.close()
--------------------------------------------------------------------------

    Molecular point group: c1
  Charge       = 0
  Multiplicity = 1
  Basis Set: 6-31G*
  Basis Set:
  @DF-RHF Final Energy:  -387.11376724019078
    Total Energy =                       -387.1137672401903274
    Molecular point group: c1
  Basis Set: 6-31G*
  Basis Set:
  Basis Set: 6-31G*
  Basis Set:
  @DF-RHF Final Energy:  -387.11357094142124
    Total Energy =                       -387.1135709414210169
  Basis Set: 6-31G*
  Basis Set:
  Basis Set: 6-31G*
  Basis Set:
  @DF-RHF Final Energy:  -387.11196654832901
    Total Energy =                       -387.1119665483290646
  Basis Set: 6-31G*
  Basis Set:
  Basis Set: 6-31G*
  Basis Set:
  @DF-RHF Final Energy:  -387.11567177884069
    Total Energy =                       -387.1156717788404649
  Basis Set: 6-31G*
  Basis Set:
  @DF-RHF Final Energy:  -387.11587859055948
    Total Energy =                       -387.1158785905590776
  Basis Set: 6-31G*
  Basis Set:
  @DF-RHF Final Energy:  -387.11589029298210
    Total Energy =                       -387.1158902929822716
  Basis Set: 6-31G*
  Basis Set:
  Basis Set: 6-31G*
  Basis Set:
  @DF-RHF Final Energy:  -387.11589644389068
    Total Energy =                       -387.1158964438907333
  Basis Set: 6-31G*
  Basis Set:
  Basis Set: 6-31G*
  Basis Set:
  @DF-RHF Final Energy:  -387.11589872845713
    Total Energy =                       -387.1158987284569548
  Basis Set: 6-31G*
  Basis Set:
  Charge       = 0
  Multiplicity = 1
  Basis Set: 6-31G*
  Basis Set:

    Orbital Energies (a.u.)
    -----------------------

    Doubly Occupied:

       1A    -20.561060     2A    -11.325921     3A    -11.235417
       4A    -11.234246     5A    -11.225453     6A    -11.220558
       7A    -11.218424     8A    -11.217501     9A    -11.210738
      10A     -1.400981    11A     -1.102569    12A     -1.067694
      13A     -1.012749    14A     -0.942965    15A     -0.877160
      16A     -0.829095    17A     -0.782471    18A     -0.776724
      19A     -0.671785    20A     -0.654477    21A     -0.631586
      22A     -0.625830    23A     -0.605516    24A     -0.591840
      25A     -0.575511    26A     -0.549358    27A     -0.540716
      28A     -0.522492    29A     -0.502521    30A     -0.497620
      31A     -0.494236    32A     -0.473373    33A     -0.464658
      34A     -0.459828    35A     -0.442163    36A     -0.408587

  @DF-RHF Final Energy:  -387.11589887746595

   => Energetics <=

    Nuclear Repulsion Energy =            440.3309171736203780
    One-Electron Energy =               -1396.9859872608913065
    Two-Electron Energy =                 569.5391712098050903
    DFT Exchange-Correlation Energy =       0.0000000000000000
    Empirical Dispersion Energy =           0.0000000000000000
    PCM Polarization Energy =               0.0000000000000000
    EFP Energy =                            0.0000000000000000
    Total Energy =                       -387.1158988774658383
    Molecular point group: c1
  Basis Set: 6-31G*
  Basis Set:

  -Total Gradient:
     Atom            X                  Y                   Z
    ------   -----------------  -----------------  -----------------
       1        0.000003081141     0.000004851273     0.000002633760
       2        0.000010312096    -0.000007666733     0.000013293072
       3        0.001678199671    -0.005896908219    -0.002839939382
       4       -0.000012163183     0.000014320617    -0.000003796455
       5        0.000901557019     0.004081988584    -0.003736799797
       6       -0.001633330730     0.003963367647     0.003355428959
       7       -0.000015628953    -0.000002922888    -0.000005739431
       8       -0.000932564749    -0.002149853034     0.003199541842
       9        0.000001778247     0.000001850463     0.000006700883
      10       -0.000002118144    -0.000006242875     0.000000963772
      11        0.000002272861    -0.000003786330    -0.000001249618
      12       -0.000002786228    -0.000001155926    -0.000005928599
      13        0.000002961385     0.000011449726     0.000002504936
      14       -0.000003230024    -0.000008287661     0.000017999470
      15       -0.000002314785     0.000008861705     0.000001185824
      16        0.000007654961    -0.000005193340    -0.000002506813
      17        0.000006785265    -0.000007147081    -0.000010431251
      18        0.000000011987    -0.000001821222     0.000003801069
      19       -0.000002226383    -0.000000964184     0.000002258083
      20       -0.000005871574     0.000002874999     0.000003270256
      21        0.000004222494     0.000001964844    -0.000003486540
      22        0.000000097896    -0.000005035380    -0.000002368099
      23        0.000000745969    -0.000002237623     0.000002439824
      24       -0.000007065253     0.000005484460    -0.000001666082
      25       -0.000000380978     0.000002208178     0.000001890320

  **** Optimization is complete! (in 9 steps) ****
    Final optimized geometry and variables:
    Molecular point group: c1

    Geometry (in Angstrom), charge = 0, multiplicity = 1:

    H           -3.112065034546    -1.217390153074     0.458414565770
    C           -3.159367696927    -0.489532802399    -0.358955429766
    C           -2.748157328965     0.915096817811    -0.002209230591
    O           -3.538989784940    -0.826001718142    -1.433887525027
    C           -1.297182634077     1.067918502579     0.523600218031
    H           -2.928097634146     1.561209995222    -0.852655941199
    H           -3.433884977593     1.247969315308     0.775898438438
    C           -0.315995963329    -0.022870150711     0.077264100693
    H           -0.927021506548     2.038580501283     0.210816510260
    H           -1.309977658869     1.087195386319     1.609870207153
    C            1.117684874763     0.259207543726     0.531511806271
    H           -0.339111569735    -0.116831747221    -1.006719478360
    H           -0.628432979388    -0.985932930107     0.473776984406
    C            2.100954389942    -0.834830889818     0.106879696834
    H            1.431376549530     1.218999911690     0.129510864687
    H            1.138476430524     0.359202490607     1.615889047717
    C            3.534635183915    -0.637112011091     0.612408653949
    H            2.110788257437    -0.907827715107    -0.979308836400
    H            1.735629759857    -1.792658885869     0.471509418989
    C            4.250528349826     0.584179668171     0.032562040504
    H            4.110119360835    -1.526575304959     0.368471519896
    H            3.526972981811    -0.569960367373     1.698490840935
    H            4.262456709447     0.550145856959    -1.053538539348
    H            3.775525090341     1.513402763814     0.329405631076
    H            5.280917122850     0.623492954017     0.372167741517

  Mulliken Charges: (a.u.)
   Center  Symbol    Alpha    Beta     Spin     Total
       1     H     0.43097  0.43097  0.00000  0.13807
       2     C     2.83206  2.83206  0.00000  0.33589
       3     C     3.21175  3.21175  0.00000 -0.42350
       4     O     4.23773  4.23773  0.00000 -0.47545
       5     C     3.15920  3.15920  0.00000 -0.31840
       6     H     0.39865  0.39865  0.00000  0.20269
       7     H     0.40895  0.40895  0.00000  0.18210
       8     C     3.16359  3.16359  0.00000 -0.32717
       9     H     0.41158  0.41158  0.00000  0.17684
      10     H     0.41768  0.41768  0.00000  0.16464
      11     C     3.15390  3.15390  0.00000 -0.30781
      12     H     0.41348  0.41348  0.00000  0.17303
      13     H     0.42182  0.42182  0.00000  0.15636
      14     C     3.15307  3.15307  0.00000 -0.30615
      15     H     0.41984  0.41984  0.00000  0.16031
      16     H     0.42375  0.42375  0.00000  0.15250
      17     C     3.15277  3.15277  0.00000 -0.30553
      18     H     0.42204  0.42204  0.00000  0.15592
      19     H     0.42167  0.42167  0.00000  0.15667
      20     C     3.24146  3.24146  0.00000 -0.48292
      21     H     0.41992  0.41992  0.00000  0.16016
      22     H     0.42343  0.42343  0.00000  0.15314
      23     H     0.42148  0.42148  0.00000  0.15704
      24     H     0.42058  0.42058  0.00000  0.15885
      25     H     0.41862  0.41862  0.00000  0.16276

   Total alpha = 36.00000, Total beta = 36.00000, Total charge = -0.00000
