  ==> Input File <==

--------------------------------------------------------------------------
set {
	reference rhf
	basis 6-31G*
}

set_num_threads( 4 )
memory 2 gb

molecule MOL {
0 1

H	 2.591676	 2.013956	 0.335017
O	 3.341076	 1.666752	 -0.126416
C	 3.569581	 0.339145	 0.272707
C	 2.539767	 -0.640285	 -0.279495
H	 4.553106	 0.084646	 -0.100901
H	 3.608576	 0.269204	 1.359154
C	 1.115811	 -0.397273	 0.226630
H	 2.556196	 -0.582511	 -1.364741
H	 2.852081	 -1.648031	 -0.010655
C	 0.115918	 -1.429151	 -0.302766
H	 0.797950	 0.599468	 -0.066350
H	 1.109961	 -0.420744	 1.316472
C	 -0.783974	 -0.929754	 -1.439048
H	 0.656316	 -2.314027	 -0.634147
H	 -0.517109	 -1.751985	 0.521101
C	 -0.054942	 -0.618142	 -2.748968
H	 -1.539636	 -1.687708	 -1.634743
H	 -1.323864	 -0.044194	 -1.107176
C	 -1.005920	 -0.225474	 -3.881615
H	 0.524447	 -1.488681	 -3.053238
H	 0.660761	 0.186171	 -2.596807
C	 -0.280283	 0.092321	 -5.188566
H	 -1.716577	 -1.031630	 -4.050633
H	 -1.592584	 0.638299	 -3.575663
H	 0.290134	 -0.763517	 -5.538410
H	 -0.980961	 0.364942	 -5.971741
H	 0.412041	 0.919970	 -5.061883

	symmetry c1
}
set optking {
	frozen_dihedral = ("
		14 10 7 4
	")
}

ee = optimize('scf')
oeprop('DIPOLE', 'QUADRUPOLE', 'MULLIKEN_CHARGES')
f=open( 'psi4out.xyz', 'w' )
f.write( "27  " )
f.write( str(ee) + "\n" )
f.write( MOL.save_string_xyz() )
f.close()
--------------------------------------------------------------------------

    Molecular point group: c1
  Charge       = 0
  Multiplicity = 1
  Basis Set: 6-31G*
  Basis Set:
  @DF-RHF Final Energy:  -388.27670409035989
    Total Energy =                       -388.2767040903597717
    Molecular point group: c1
  Basis Set: 6-31G*
  Basis Set:
  Basis Set: 6-31G*
  Basis Set:
  @DF-RHF Final Energy:  -388.27700001631484
    Total Energy =                       -388.2770000163150144
  Basis Set: 6-31G*
  Basis Set:
  Basis Set: 6-31G*
  Basis Set:
  @DF-RHF Final Energy:  -388.27705366658972
    Total Energy =                       -388.2770536665900636
  Basis Set: 6-31G*
  Basis Set:
  Basis Set: 6-31G*
  Basis Set:
  @DF-RHF Final Energy:  -388.27713973796619
    Total Energy =                       -388.2771397379660812
  Basis Set: 6-31G*
  Basis Set:
  Basis Set: 6-31G*
  Basis Set:
  @DF-RHF Final Energy:  -388.27714650383547
    Total Energy =                       -388.2771465038354108
  Basis Set: 6-31G*
  Basis Set:
  Basis Set: 6-31G*
  Basis Set:
  @DF-RHF Final Energy:  -388.27714445639845
    Total Energy =                       -388.2771444563979912
  Basis Set: 6-31G*
  Basis Set:
  Basis Set: 6-31G*
  Basis Set:
  @DF-RHF Final Energy:  -388.27714853542921
    Total Energy =                       -388.2771485354293191
  Basis Set: 6-31G*
  Basis Set:
  Charge       = 0
  Multiplicity = 1
  Basis Set: 6-31G*
  Basis Set:

    Orbital Energies (a.u.)
    -----------------------

    Doubly Occupied:

       1A    -20.552426     2A    -11.266884     3A    -11.220194
       4A    -11.216919     5A    -11.214710     6A    -11.214426
       7A    -11.213759     8A    -11.211607     9A    -11.206627
      10A     -1.359036    11A     -1.093223    12A     -1.058440
      13A     -1.009773    14A     -0.947544    15A     -0.887648
      16A     -0.823188    17A     -0.794916    18A     -0.777736
      19A     -0.694740    20A     -0.646944    21A     -0.631407
      22A     -0.616125    23A     -0.609736    24A     -0.582055
      25A     -0.570970    26A     -0.551445    27A     -0.544024
      28A     -0.522170    29A     -0.506659    30A     -0.499438
      31A     -0.482008    32A     -0.471976    33A     -0.466362
      34A     -0.458324    35A     -0.453701    36A     -0.436547
      37A     -0.422226

  @DF-RHF Final Energy:  -388.27714850473836

   => Energetics <=

    Nuclear Repulsion Energy =            470.5103323423733741
    One-Electron Energy =               -1459.1031330600717411
    Two-Electron Energy =                 600.3156522129593213
    DFT Exchange-Correlation Energy =       0.0000000000000000
    Empirical Dispersion Energy =           0.0000000000000000
    PCM Polarization Energy =               0.0000000000000000
    EFP Energy =                            0.0000000000000000
    Total Energy =                       -388.2771485047389888
    Molecular point group: c1
  Basis Set: 6-31G*
  Basis Set:

  -Total Gradient:
     Atom            X                  Y                   Z
    ------   -----------------  -----------------  -----------------
       1        0.000008754795     0.000004839376     0.000000470824
       2        0.000013125104     0.000007343821    -0.000008585442
       3       -0.000015318258    -0.000001763557     0.000020226253
       4        0.000152089041    -0.000361114393     0.000489959908
       5       -0.000006166644    -0.000002504746     0.000000490340
       6        0.000003440264     0.000002198247     0.000007340282
       7       -0.000098053407     0.000614783276    -0.000901982424
       8        0.000004898644    -0.000011442468     0.000018978227
       9       -0.000000813731     0.000006211952    -0.000005349421
      10       -0.000092284927    -0.000615468112     0.001244082263
      11       -0.000026452125    -0.000004998926     0.000012411820
      12        0.000011805669     0.000013679704    -0.000021314754
      13       -0.000006520942    -0.000000720756    -0.000014105078
      14        0.000077988041     0.000331237871    -0.000809128326
      15       -0.000004663483    -0.000011314744    -0.000026361161
      16       -0.000003398710     0.000033414391     0.000014060557
      17       -0.000006316873     0.000007414394    -0.000001046084
      18        0.000005478791     0.000010046582    -0.000010085907
      19        0.000000984533    -0.000017832055    -0.000004554047
      20       -0.000000887743     0.000000531294     0.000006498606
      21       -0.000015493455     0.000000101615    -0.000008095246
      22       -0.000000176635     0.000002049021    -0.000001667727
      23       -0.000006291948    -0.000001252922    -0.000001831297
      24        0.000005945364    -0.000002751912     0.000000206581
      25       -0.000001398092    -0.000000731711    -0.000001332654
      26       -0.000000334532     0.000001137751    -0.000001305493
      27        0.000000061252    -0.000003092993     0.000002019397

  **** Optimization is complete! (in 8 steps) ****
    Final optimized geometry and variables:
    Molecular point group: c1

    Geometry (in Angstrom), charge = 0, multiplicity = 1:

    H            1.587384950225     2.230079441622     1.712489061603
    O            2.341999979909     1.860205263469     1.278100543097
    C            2.574433847097     0.559649785704     1.757510290160
    C            1.568359622646    -0.459987318945     1.235800602733
    H            3.569194260716     0.295894219202     1.421943749910
    H            2.588267734550     0.551673584616     2.846830698493
    C            0.134212393209    -0.216172064823     1.717208565060
    H            1.608122584245    -0.457687501923     0.150974935275
    H            1.886994067757    -1.448804430523     1.561122390296
    C           -0.893224023374    -1.246137689459     1.198797324566
    H           -0.185917193521     0.782511564736     1.429029525802
    H            0.136569295939    -0.229794542584     2.805331504343
    C           -1.785114344896    -0.753548364819     0.051559320494
    H           -0.374860269892    -2.147930357128     0.879638363459
    H           -1.541341982080    -1.545638493126     2.017327338346
    C           -1.049554240686    -0.423964189536    -1.249475495860
    H           -2.531445372046    -1.518551291959    -0.153530658334
    H           -2.336723696123     0.124710155967     0.383588880461
    C           -1.995010227633    -0.008236651620    -2.378614475997
    H           -0.473232327479    -1.291828608872    -1.566830454111
    H           -0.331428942669     0.374594149317    -1.079731445939
    C           -1.263450291738     0.321864498787    -3.679200483625
    H           -2.712131958875    -0.806004239413    -2.560400139365
    H           -2.574999045441     0.856223305327    -2.062016803338
    H           -0.701369647885    -0.534607743480    -4.040872495605
    H           -1.959816973957     0.613398950754    -4.459478031682
    H           -0.562770978667     1.139889408300    -3.538274501161

  Mulliken Charges: (a.u.)
   Center  Symbol    Alpha    Beta     Spin     Total
       1     H     0.27993  0.27993  0.00000  0.44014
       2     O     4.37126  4.37126  0.00000 -0.74251
       3     C     2.99824  2.99824  0.00000  0.00352
       4     C     3.16340  3.16340  0.00000 -0.32680
       5     H     0.41442  0.41442  0.00000  0.17115
       6     H     0.43211  0.43211  0.00000  0.13579
       7     C     3.16544  3.16544  0.00000 -0.33088
       8     H     0.41216  0.41216  0.00000  0.17567
       9     H     0.42396  0.42396  0.00000  0.15209
      10     C     3.15468  3.15468  0.00000 -0.30936
      11     H     0.42481  0.42481  0.00000  0.15037
      12     H     0.42201  0.42201  0.00000  0.15598
      13     C     3.15342  3.15342  0.00000 -0.30685
      14     H     0.42087  0.42087  0.00000  0.15827
      15     H     0.41892  0.41892  0.00000  0.16216
      16     C     3.15454  3.15454  0.00000 -0.30909
      17     H     0.42250  0.42250  0.00000  0.15500
      18     H     0.42466  0.42466  0.00000  0.15068
      19     C     3.15093  3.15093  0.00000 -0.30186
      20     H     0.42470  0.42470  0.00000  0.15060
      21     H     0.41837  0.41837  0.00000  0.16326
      22     C     3.23942  3.23942  0.00000 -0.47883
      23     H     0.42357  0.42357  0.00000  0.15286
      24     H     0.42355  0.42355  0.00000  0.15289
      25     H     0.42197  0.42197  0.00000  0.15606
      26     H     0.41979  0.41979  0.00000  0.16042
      27     H     0.42037  0.42037  0.00000  0.15926

   Total alpha = 37.00000, Total beta = 37.00000, Total charge = -0.00000
