  ==> Input File <==

--------------------------------------------------------------------------
set {
	reference rhf
	basis 6-31G*
}

set_num_threads( 4 )
memory 2 gb

molecule MOL {
0 1

H	 -3.420663	 1.227371	 -1.044276
O	 -3.452007	 0.283848	 -0.965577
C	 -3.181085	 -0.079926	 0.364119
C	 -1.765924	 0.277073	 0.805136
H	 -3.327791	 -1.152017	 0.410903
H	 -3.905698	 0.375695	 1.036898
C	 -0.677594	 -0.417312	 -0.014550
H	 -1.637766	 1.358238	 0.744969
H	 -1.659588	 0.017670	 1.857098
C	 0.738335	 -0.034840	 0.421385
H	 -0.814977	 -0.178223	 -1.064632
H	 -0.802730	 -1.495410	 0.071702
C	 1.822265	 -0.738362	 -0.399735
H	 0.853533	 1.043532	 0.342250
H	 0.871597	 -0.279636	 1.474438
C	 2.152487	 -0.065183	 -1.736873
H	 1.523041	 -1.769379	 -0.581846
H	 2.731903	 -0.788110	 0.195159
C	 1.013020	 -0.085303	 -2.757469
H	 3.016067	 -0.564477	 -2.169569
H	 2.457059	 0.963746	 -1.555922
H	 0.678928	 -1.101592	 -2.948980
H	 1.335225	 0.339233	 -3.703403
H	 0.155133	 0.486992	 -2.420316

	symmetry c1
}
set optking {
	frozen_dihedral = ("
		17 13 10 7
	")
}

ee = optimize('scf')
oeprop('DIPOLE', 'QUADRUPOLE', 'MULLIKEN_CHARGES')
f=open( 'psi4out.xyz', 'w' )
f.write( "24  " )
f.write( str(ee) + "\n" )
f.write( MOL.save_string_xyz() )
f.close()
--------------------------------------------------------------------------

    Molecular point group: c1
  Charge       = 0
  Multiplicity = 1
  Basis Set: 6-31G*
  Basis Set:
  @DF-RHF Final Energy:  -349.23954325940463
    Total Energy =                       -349.2395432594046270
    Molecular point group: c1
  Basis Set: 6-31G*
  Basis Set:
  Basis Set: 6-31G*
  Basis Set:
  @DF-RHF Final Energy:  -349.24261372609305
    Total Energy =                       -349.2426137260928272
  Basis Set: 6-31G*
  Basis Set:
  Basis Set: 6-31G*
  Basis Set:
  @DF-RHF Final Energy:  -349.24288819950203
    Total Energy =                       -349.2428881995019765
  Basis Set: 6-31G*
  Basis Set:
  Basis Set: 6-31G*
  Basis Set:
  @DF-RHF Final Energy:  -349.24289189130752
    Total Energy =                       -349.2428918913075222
  Basis Set: 6-31G*
  Basis Set:
  Basis Set: 6-31G*
  Basis Set:
  @DF-RHF Final Energy:  -349.24291052526723
    Total Energy =                       -349.2429105252672912
  Basis Set: 6-31G*
  Basis Set:
  Basis Set: 6-31G*
  Basis Set:
  @DF-RHF Final Energy:  -349.24291173534192
    Total Energy =                       -349.2429117353420907
  Basis Set: 6-31G*
  Basis Set:
  Charge       = 0
  Multiplicity = 1
  Basis Set: 6-31G*
  Basis Set:

    Orbital Energies (a.u.)
    -----------------------

    Doubly Occupied:

       1A    -20.553726     2A    -11.267635     3A    -11.217074
       4A    -11.213740     5A    -11.213207     6A    -11.212168
       7A    -11.209782     8A    -11.205266     9A     -1.360226
      10A     -1.086447    11A     -1.045894    12A     -0.984275
      13A     -0.919444    14A     -0.849550    15A     -0.802152
      16A     -0.771832    17A     -0.679563    18A     -0.653108
      19A     -0.623810    20A     -0.612458    21A     -0.596979
      22A     -0.587812    23A     -0.557793    24A     -0.535686
      25A     -0.525493    26A     -0.507670    27A     -0.495102
      28A     -0.477149    29A     -0.467401    30A     -0.460054
      31A     -0.453435    32A     -0.440877    33A     -0.418958

  @DF-RHF Final Energy:  -349.24291181081196

   => Energetics <=

    Nuclear Repulsion Energy =            392.9971569292683853
    One-Electron Energy =               -1252.4686021132310998
    Two-Electron Energy =                 510.2285333731507535
    DFT Exchange-Correlation Energy =       0.0000000000000000
    Empirical Dispersion Energy =           0.0000000000000000
    PCM Polarization Energy =               0.0000000000000000
    EFP Energy =                            0.0000000000000000
    Total Energy =                       -349.2429118108119610
    Molecular point group: c1
  Basis Set: 6-31G*
  Basis Set:

  -Total Gradient:
     Atom            X                  Y                   Z
    ------   -----------------  -----------------  -----------------
       1        0.000000937067    -0.000002453316     0.000002070789
       2        0.000008628023    -0.000008206293    -0.000008557273
       3       -0.000000578053     0.000027065733     0.000005579961
       4       -0.000005864801    -0.000015228316     0.000007324640
       5        0.000003037448     0.000001760677     0.000000485574
       6        0.000000236830     0.000000314460     0.000001061579
       7       -0.000007632855     0.000580506265    -0.000548891697
       8       -0.000005603197     0.000000380270     0.000005121069
       9       -0.000008428451    -0.000000465547     0.000007250647
      10        0.000105238069    -0.000847898153     0.000955723174
      11        0.000010668602    -0.000017863365     0.000031033542
      12       -0.000005729880    -0.000004747876     0.000006491452
      13       -0.000557353539     0.000596243474    -0.001337532404
      14       -0.000008076047     0.000009412946     0.000018169379
      15       -0.000023269213    -0.000007088565    -0.000015150984
      16        0.000009270742    -0.000039550325     0.000001054181
      17        0.000488007726    -0.000241840066     0.000870758800
      18        0.000015001894    -0.000013945898    -0.000016641712
      19       -0.000043024196     0.000011715239     0.000024161274
      20        0.000007005373    -0.000002339381     0.000002014426
      21       -0.000010690247    -0.000019160531     0.000019857752
      22        0.000004075928    -0.000002240108    -0.000002516246
      23       -0.000002016711     0.000008033718    -0.000005450009
      24        0.000026159503    -0.000012405042    -0.000023417917

  **** Optimization is complete! (in 7 steps) ****
    Final optimized geometry and variables:
    Molecular point group: c1

    Geometry (in Angstrom), charge = 0, multiplicity = 1:

    H           -3.050848318643     1.333907718958    -0.354890540593
    O           -3.070416347738     0.388824127472    -0.293511170866
    C           -2.739833600530     0.002461718285     1.016403918917
    C           -1.307507392404     0.356896805320     1.400227067687
    H           -2.881104510911    -1.070745163850     1.050335786218
    H           -3.435402857980     0.443288077281     1.728430272249
    C           -0.255204268508    -0.321786390513     0.521391374010
    H           -1.185234655217     1.439362627937     1.350594292734
    H           -1.154048449581     0.082591956509     2.442598666811
    C            1.174699143742     0.062957050560     0.915888348238
    H           -0.453678224456    -0.078934813217    -0.513927195741
    H           -0.367477901614    -1.401499046003     0.608072029532
    C            2.297550959016    -0.630220583039     0.124132100985
    H            1.295977956014     1.143012823411     0.840864560596
    H            1.305589083718    -0.177248824334     1.968926146971
    C            2.718031239840     0.015138898479    -1.203853817264
    H            2.033886835654    -1.673822804337    -0.040470373652
    H            3.183076328266    -0.649869399388     0.755180648490
    C            1.684276295266     0.002402485479    -2.331467047863
    H            3.608394979429    -0.503816053084    -1.551354563043
    H            3.025849045877     1.041561137494    -1.013625670867
    H            1.293382305023    -0.997204732608    -2.499057853967
    H            2.134763026619     0.340075395023    -3.260094933768
    H            0.845271520556     0.656502528572    -2.124760344700

  Mulliken Charges: (a.u.)
   Center  Symbol    Alpha    Beta     Spin     Total
       1     H     0.28340  0.28340  0.00000  0.43320
       2     O     4.36824  4.36824  0.00000 -0.73648
       3     C     2.99628  2.99628  0.00000  0.00745
       4     C     3.16898  3.16898  0.00000 -0.33796
       5     H     0.41629  0.41629  0.00000  0.16742
       6     H     0.42820  0.42820  0.00000  0.14359
       7     C     3.15536  3.15536  0.00000 -0.31073
       8     H     0.42849  0.42849  0.00000  0.14301
       9     H     0.42255  0.42255  0.00000  0.15490
      10     C     3.15450  3.15450  0.00000 -0.30899
      11     H     0.40695  0.40695  0.00000  0.18610
      12     H     0.42416  0.42416  0.00000  0.15168
      13     C     3.15452  3.15452  0.00000 -0.30904
      14     H     0.42497  0.42497  0.00000  0.15006
      15     H     0.42316  0.42316  0.00000  0.15367
      16     C     3.15074  3.15074  0.00000 -0.30148
      17     H     0.42339  0.42339  0.00000  0.15322
      18     H     0.42141  0.42141  0.00000  0.15717
      19     C     3.24098  3.24098  0.00000 -0.48197
      20     H     0.42202  0.42202  0.00000  0.15595
      21     H     0.42436  0.42436  0.00000  0.15128
      22     H     0.42060  0.42060  0.00000  0.15879
      23     H     0.42028  0.42028  0.00000  0.15945
      24     H     0.42015  0.42015  0.00000  0.15970

   Total alpha = 33.00000, Total beta = 33.00000, Total charge = -0.00000
