  ==> Input File <==

--------------------------------------------------------------------------
set {
	reference rhf
	basis cc-pvtz
}

set_num_threads( 4 )
memory 2 gb

molecule MOL {
0 1

H	 -2.644180	 -0.653737	 1.272255
C	 -2.092774	 -0.380414	 0.391915
O	 -0.808934	 -0.154049	 0.752536
F	 -2.163230	 -1.351640	 -0.507133
F	 -2.627232	 0.691260	 -0.169301
C	 0.085006	 0.250800	 -0.215074
C	 1.370439	 -0.548013	 -0.012993
Cl	 0.421658	 1.987697	 -0.091007
H	 -0.272219	 0.063284	 -1.212508
F	 2.369010	 0.252470	 0.261061
F	 1.656301	 -1.185184	 -1.123673
F	 1.261980	 -1.425865	 0.946103

	symmetry c1
}
set optking {
	frozen_dihedral = ("
		10 7 6 9
	")
}

ee = optimize('scf')
oeprop('DIPOLE', 'QUADRUPOLE', 'MULLIKEN_CHARGES')
f=open( 'psi4out.xyz', 'w' )
f.write( "12  " )
f.write( str(ee) + "\n" )
f.write( MOL.save_string_xyz() )
f.close()
--------------------------------------------------------------------------

    Molecular point group: c1
  Charge       = 0
  Multiplicity = 1
  Basis Set: CC-PVTZ
  Basis Set:
  @DF-RHF Final Energy: -1146.60846892988593
    Total Energy =                      -1146.6084689298861576
    Molecular point group: c1
  Basis Set: CC-PVTZ
  Basis Set:
  Basis Set: CC-PVTZ
  Basis Set:
  @DF-RHF Final Energy: -1146.60845653616434
    Total Energy =                      -1146.6084565361638852
  Basis Set: CC-PVTZ
  Basis Set:
  Basis Set: CC-PVTZ
  Basis Set:
  @DF-RHF Final Energy: -1146.61085763496885
    Total Energy =                      -1146.6108576349683972
  Basis Set: CC-PVTZ
  Basis Set:
  Basis Set: CC-PVTZ
  Basis Set:
  @DF-RHF Final Energy: -1146.61098202418498
    Total Energy =                      -1146.6109820241847501
  Basis Set: CC-PVTZ
  Basis Set:
  @DF-RHF Final Energy: -1146.61099983441341
    Total Energy =                      -1146.6109998344120413
  @DF-RHF Final Energy: -1146.61100502355862
    Total Energy =                      -1146.6110050235595281
  Basis Set: CC-PVTZ
  Basis Set:
  @DF-RHF Final Energy: -1146.61101206557350
    Total Energy =                      -1146.6110120655732771
  Basis Set: CC-PVTZ
  Basis Set:
  Basis Set: CC-PVTZ
  Basis Set:
  @DF-RHF Final Energy: -1146.61101628579854
    Total Energy =                      -1146.6110162857994510
  Basis Set: CC-PVTZ
  Basis Set:
  Basis Set: CC-PVTZ
  Basis Set:
  @DF-RHF Final Energy: -1146.61101732901261
    Total Energy =                      -1146.6110173290121566
  Basis Set: CC-PVTZ
  Basis Set:
  Charge       = 0
  Multiplicity = 1
  Basis Set: CC-PVTZ
  Basis Set:

    Orbital Energies (a.u.)
    -----------------------

    Doubly Occupied:

       1A   -104.855317     2A    -26.353493     3A    -26.353310
       4A    -26.352787     5A    -26.343488     6A    -26.343234
       7A    -20.639403     8A    -11.522721     9A    -11.483838
      10A    -11.402388    11A    -10.580925    12A     -8.047701
      13A     -8.045731    14A     -8.045644    15A     -1.768528
      16A     -1.724685    17A     -1.662553    18A     -1.660195
      19A     -1.644830    20A     -1.486711    21A     -1.174894
      22A     -1.048251    23A     -0.991244    24A     -0.924157
      25A     -0.862072    26A     -0.858455    27A     -0.851948
      28A     -0.831535    29A     -0.819750    30A     -0.795939
      31A     -0.732881    32A     -0.732180    33A     -0.710627
      34A     -0.708619    35A     -0.684743    36A     -0.680028
      37A     -0.665435    38A     -0.662548    39A     -0.650514
      40A     -0.634556    41A     -0.598324    42A     -0.579319
      43A     -0.523503    44A     -0.476695    45A     -0.468571

  @DF-RHF Final Energy: -1146.61101754411152

   => Energetics <=

    Nuclear Repulsion Energy =            735.4912558997596079
    One-Electron Energy =               -3054.2360040863877657
    Two-Electron Energy =                1172.1337306425164115
    DFT Exchange-Correlation Energy =       0.0000000000000000
    Empirical Dispersion Energy =           0.0000000000000000
    PCM Polarization Energy =               0.0000000000000000
    EFP Energy =                            0.0000000000000000
    Total Energy =                      -1146.6110175441119736
    Molecular point group: c1
  Basis Set: CC-PVTZ
  Basis Set:

  -Total Gradient:
     Atom            X                  Y                   Z
    ------   -----------------  -----------------  -----------------
       1        0.000003618207     0.000003796281     0.000002833724
       2       -0.000023298707    -0.000012117578    -0.000023784557
       3        0.000038285348     0.000027142039    -0.000019223566
       4        0.000000177522     0.000004614647     0.000006171916
       5       -0.000000872039    -0.000001026419     0.000007246481
       6       -0.000802470618    -0.001206963285     0.000163132358
       7       -0.000102599613     0.000113006123     0.001382465674
       8        0.000006462062     0.000013120073     0.000000653614
       9        0.000692827189     0.000989547845    -0.000424240438
      10        0.000201320393     0.000105957224    -0.001077237697
      11       -0.000009539715    -0.000015943270    -0.000000206824
      12       -0.000003910015    -0.000021133635    -0.000017810692

  **** Optimization is complete! (in 10 steps) ****
    Final optimized geometry and variables:
    Molecular point group: c1

    Geometry (in Angstrom), charge = 0, multiplicity = 1:

    H           -2.672577988204    -0.616709137006     1.266817883344
    C           -2.093368675152    -0.383770003904     0.392765216336
    O           -0.839946829517    -0.069873989491     0.788152495703
    F           -2.077615595783    -1.422936955758    -0.431338349146
    F           -2.650498786620     0.614873465715    -0.272752390227
    C            0.073396722684     0.302126935164    -0.174022338458
    C            1.369603286476    -0.547753830921    -0.016324994873
    CL           0.405273433304     2.040683605816    -0.058542220514
    H           -0.294054486119     0.134820365086    -1.169191147260
    F            2.431251457233     0.158153226936     0.254701960680
    F            1.590728551949    -1.172315295158    -1.154449452395
    F            1.235505246123    -1.451960845191     0.915007559303

  Mulliken Charges: (a.u.)
   Center  Symbol    Alpha    Beta     Spin     Total
       1     H     0.45152  0.45152  0.00000  0.09695
       2     C     2.73846  2.73846  0.00000  0.52308
       3     O     4.14976  4.14976  0.00000 -0.29952
       4     F     4.61874  4.61874  0.00000 -0.23748
       5     F     4.61571  4.61571  0.00000 -0.23142
       6     C     2.96399  2.96399  0.00000  0.07203
       7     C     2.66097  2.66097  0.00000  0.67806
       8    CL     8.56882  8.56882  0.00000 -0.13764
       9     H     0.43157  0.43157  0.00000  0.13685
      10     F     4.59521  4.59521  0.00000 -0.19042
      11     F     4.60758  4.60758  0.00000 -0.21516
      12     F     4.59767  4.59767  0.00000 -0.19533

   Total alpha = 45.00000, Total beta = 45.00000, Total charge = -0.00000
