  ==> Input File <==

--------------------------------------------------------------------------
set {
	reference rhf
	basis 6-31G*
}

set_num_threads( 1 )
memory 2 gb

molecule MOL {
0 1

H	 -1.977075	 -1.594371	 0.202756
O	 -2.310168	 -0.871793	 -0.309793
C	 -2.026376	 0.340750	 0.341611
C	 -0.673256	 0.843270	 -0.132153
H	 -2.792215	 1.080697	 0.115987
H	 -2.013526	 0.200402	 1.421792
C	 0.486613	 -0.083066	 0.235839
H	 -0.715586	 0.970948	 -1.210718
H	 -0.508072	 1.829858	 0.297090
C	 1.840406	 0.433480	 -0.254303
H	 0.300215	 -1.068318	 -0.178947
H	 0.519509	 -0.203625	 1.318070
C	 3.000220	 -0.489290	 0.118523
H	 1.809207	 0.553576	 -1.335192
H	 2.021860	 1.424500	 0.157276
H	 2.864959	 -1.479103	 -0.307933
H	 3.946603	 -0.099227	 -0.243630
H	 3.080049	 -0.602997	 1.196117

	symmetry c1
}
set optking {
	frozen_dihedral = ("
		14 10 7 11,
		10 7 4 8,
		2 3 4 8
	")
}

ee = energy('scf')
oeprop('DIPOLE', 'QUADRUPOLE', 'MULLIKEN_CHARGES')
f=open( 'psi4out.xyz', 'w' )
f.write( "18  " )
f.write( str(ee) + "\n" )
f.write( MOL.save_string_xyz() )
f.close()
--------------------------------------------------------------------------

    Molecular point group: c1

    Geometry (in Angstrom), charge = 0, multiplicity = 1:

       Center              X                  Y                   Z               Mass
    ------------   -----------------  -----------------  -----------------  -----------------
           H         -1.990327714653    -1.590031459186     0.200451847216     1.007825032070
           O         -2.323420714653    -0.867453459186    -0.312097152784    15.994914619560
           C         -2.039628714653     0.345089540814     0.339306847216    12.000000000000
           C         -0.686508714653     0.847609540814    -0.134457152784    12.000000000000
           H         -2.805467714653     1.085036540814     0.113682847216     1.007825032070
           H         -2.026778714653     0.204741540814     1.419487847216     1.007825032070
           C          0.473360285347    -0.078726459186     0.233534847216    12.000000000000
           H         -0.728838714653     0.975287540814    -1.213022152784     1.007825032070
           H         -0.521324714653     1.834197540814     0.294785847216     1.007825032070
           C          1.827153285347     0.437819540814    -0.256607152784    12.000000000000
           H          0.286962285347    -1.063978459186    -0.181251152784     1.007825032070
           H          0.506256285347    -0.199285459186     1.315765847216     1.007825032070
           C          2.986967285347    -0.484950459186     0.116218847216    12.000000000000
           H          1.795954285347     0.557915540814    -1.337496152784     1.007825032070
           H          2.008607285347     1.428839540814     0.154971847216     1.007825032070
           H          2.851706285347    -1.474763459186    -0.310237152784     1.007825032070
           H          3.933350285347    -0.094887459186    -0.245934152784     1.007825032070
           H          3.066796285347    -0.598657459186     1.193812847216     1.007825032070

  Charge       = 0
  Multiplicity = 1
  Basis Set: 6-31G*
  Basis Set:

    Orbital Energies (a.u.)
    -----------------------

    Doubly Occupied:

       1A    -20.552335     2A    -11.268743     3A    -11.217094
       4A    -11.216140     5A    -11.211093     6A    -11.209891
       7A     -1.360323     8A     -1.079889     9A     -1.011076
      10A     -0.919653    11A     -0.825000    12A     -0.789703
      13A     -0.700428    14A     -0.644550    15A     -0.623976
      16A     -0.593238    17A     -0.574787    18A     -0.565518
      19A     -0.522576    20A     -0.508098    21A     -0.485958
      22A     -0.474737    23A     -0.466708    24A     -0.458141
      25A     -0.422688

  @DF-RHF Final Energy:  -271.17758308156391

   => Energetics <=

    Nuclear Repulsion Energy =            249.8907412883078791
    One-Electron Energy =                -862.7320270731132723
    Two-Electron Energy =                 341.6637027032415403
    DFT Exchange-Correlation Energy =       0.0000000000000000
    Empirical Dispersion Energy =           0.0000000000000000
    PCM Polarization Energy =               0.0000000000000000
    EFP Energy =                            0.0000000000000000
    Total Energy =                       -271.1775830815639097

  Mulliken Charges: (a.u.)
   Center  Symbol    Alpha    Beta     Spin     Total
       1     H     0.27868  0.27868  0.00000  0.44265
       2     O     4.36970  4.36970  0.00000 -0.73939
       3     C     3.00324  3.00324  0.00000 -0.00648
       4     C     3.15479  3.15479  0.00000 -0.30957
       5     H     0.41520  0.41520  0.00000  0.16959
       6     H     0.43149  0.43149  0.00000  0.13702
       7     C     3.15916  3.15916  0.00000 -0.31832
       8     H     0.41493  0.41493  0.00000  0.17013
       9     H     0.42741  0.42741  0.00000  0.14519
      10     C     3.15059  3.15059  0.00000 -0.30117
      11     H     0.42151  0.42151  0.00000  0.15698
      12     H     0.42751  0.42751  0.00000  0.14499
      13     C     3.23949  3.23949  0.00000 -0.47897
      14     H     0.42067  0.42067  0.00000  0.15867
      15     H     0.42277  0.42277  0.00000  0.15447
      16     H     0.42157  0.42157  0.00000  0.15685
      17     H     0.41882  0.41882  0.00000  0.16236
      18     H     0.42249  0.42249  0.00000  0.15501

   Total alpha = 25.00000, Total beta = 25.00000, Total charge = -0.00000
