                              Psi4 1.0.54 Driver

  ==> Input File <==

--------------------------------------------------------------------------
set {
	reference rhf
	basis cc-pvtz
}

set_num_threads( 4 )
memory 2 gb

molecule MOL {
0 1

O	 -3.403662	 0.117667	 -0.921787
C	 -2.664672	 0.129869	 0.003507
C	 -2.977117	 0.801818	 1.313143
O	 -1.481217	 -0.452708	 0.001092
H	 -3.885908	 0.371869	 1.712298
H	 -2.174004	 0.691998	 2.024191
H	 -3.164066	 1.850581	 1.125474
C	 -0.332055	 0.384012	 -0.000250
C	 0.892252	 -0.506059	 -0.000295
H	 -0.360822	 1.020205	 -0.874146
H	 -0.359817	 1.021310	 0.872861
C	 2.188199	 0.299473	 -0.001416
H	 0.857046	 -1.152781	 -0.871031
H	 0.857910	 -1.151798	 0.871202
C	 3.437151	 -0.577593	 -0.000991
H	 2.209565	 0.950707	 -0.871712
H	 2.210062	 0.952234	 0.867721
C	 4.732399	 0.226982	 -0.000914
H	 3.417321	 -1.229122	 -0.869998
H	 3.416993	 -1.228707	 0.868337
H	 4.797903	 0.863451	 -0.876963
H	 5.598517	 -0.424436	 -0.000420
H	 4.797415	 0.864118	 0.874691

	symmetry c1
}
set optking {
	frozen_dihedral = ("
		1 2 4 8
	")
}

ee,wfn = optimize('scf', return_wfn=True)
oeprop( wfn, 'DIPOLE', 'QUADRUPOLE', 'MULLIKEN_CHARGES')
f=open( 'psi4out.xyz', 'w' )
f.write( "23  " )
f.write( str(ee) + "\n" )
f.write( MOL.save_string_xyz() )
f.close()
--------------------------------------------------------------------------

    Molecular point group: c1
  Charge       = 0
  Multiplicity = 1
  Basis Set: CC-PVTZ
  Basis Set:
  @DF-RHF Final Energy:  -423.11301349073347
    Total Energy =                       -423.1130134907336924
    Molecular point group: c1
  Basis Set: CC-PVTZ
  Basis Set:
  Basis Set: CC-PVTZ
  Basis Set:
  @DF-RHF Final Energy:  -423.06220250689881
    Total Energy =                       -423.0622025068986432
  Basis Set: CC-PVTZ
  Basis Set:
  Basis Set: CC-PVTZ
  Basis Set:
  @DF-RHF Final Energy:  -423.11159301036042
    Total Energy =                       -423.1115930103601386
  Basis Set: CC-PVTZ
  Basis Set:
  Basis Set: CC-PVTZ
  Basis Set:
  @DF-RHF Final Energy:  -423.11483021217606
    Total Energy =                       -423.1148302121760025
  Basis Set: CC-PVTZ
  Basis Set:
  @DF-RHF Final Energy:  -423.11450733409231
    Total Energy =                       -423.1145073340925364
  @DF-RHF Final Energy:  -423.11508698328680
    Total Energy =                       -423.1150869832863464
  @DF-RHF Final Energy:  -423.11510978350947
    Total Energy =                       -423.1151097835099790
  @DF-RHF Final Energy:  -423.10838668701615
    Total Energy =                       -423.1083866870158090
  @DF-RHF Final Energy:  -423.11536192081485
    Total Energy =                       -423.1153619208148484
  @DF-RHF Final Energy:  -423.11366513999457
    Total Energy =                       -423.1136651399945094
  @DF-RHF Final Energy:  -423.11554300345233
    Total Energy =                       -423.1155430034519895
  @DF-RHF Final Energy:  -423.11552512378518
    Total Energy =                       -423.1155251237848915
  @DF-RHF Final Energy:  -423.11601728228237
    Total Energy =                       -423.1160172822825416
  @DF-RHF Final Energy:  -423.11415814638553
    Total Energy =                       -423.1141581463855346
  @DF-RHF Final Energy:  -423.11573501578181
    Total Energy =                       -423.1157350157816381
  Basis Set: CC-PVTZ
  Basis Set:
  @DF-RHF Final Energy:  -423.11605477231797
    Total Energy =                       -423.1160547723188756
  Basis Set: CC-PVTZ
  Basis Set:
  Basis Set: CC-PVTZ
  Basis Set:
  @DF-RHF Final Energy:  -423.11607654238560
    Total Energy =                       -423.1160765423853718
  Basis Set: CC-PVTZ
  Basis Set:
  Basis Set: CC-PVTZ
  Basis Set:
  @DF-RHF Final Energy:  -423.11608321030411
    Total Energy =                       -423.1160832103039411
  Basis Set: CC-PVTZ
  Basis Set:
  Charge       = 0
  Multiplicity = 1
  Basis Set: CC-PVTZ
  Basis Set:

    Orbital Energies (a.u.)
    -----------------------

    Doubly Occupied:

       1A    -20.576958     2A    -20.541932     3A    -11.368938
       4A    -11.291794     5A    -11.236435     6A    -11.225048
       7A    -11.224429     8A    -11.221467     9A    -11.212855
      10A     -1.460173    11A     -1.368960    12A     -1.096390
      13A     -1.036836    14A     -1.011375    15A     -0.937707
      16A     -0.844628    17A     -0.805762    18A     -0.776606
      19A     -0.699959    20A     -0.690756    21A     -0.658148
      22A     -0.651334    23A     -0.621478    24A     -0.592905
      25A     -0.580344    26A     -0.578740    27A     -0.565935
      28A     -0.546598    29A     -0.519506    30A     -0.501816
      31A     -0.490769    32A     -0.480728    33A     -0.474494
      34A     -0.473855    35A     -0.455603    36A     -0.436043

  @DF-RHF Final Energy:  -423.11608345618180

   => Energetics <=

    Nuclear Repulsion Energy =            449.8202872656145814
    One-Electron Energy =               -1467.3581319769145921
    Two-Electron Energy =                 594.4217612551179855
    DFT Exchange-Correlation Energy =       0.0000000000000000
    Empirical Dispersion Energy =           0.0000000000000000
    PCM Polarization Energy =               0.0000000000000000
    EFP Energy =                            0.0000000000000000
    Total Energy =                       -423.1160834561820820
    Molecular point group: c1
  Basis Set: CC-PVTZ
  Basis Set:

  -Total Gradient:
     Atom            X                  Y                   Z
    ------   -----------------  -----------------  -----------------
       1        0.000374907376     0.001230376499    -0.000012101517
       2       -0.000534338997    -0.001625445216    -0.000448232589
       3       -0.000004266289    -0.000007367894     0.000001660959
       4        0.000060901867     0.000043732402     0.001492029013
       5        0.000034117045    -0.000004651443    -0.000002217241
       6       -0.000006259188     0.000020376241    -0.000017036345
       7       -0.000008668277    -0.000007420723    -0.000001767953
       8        0.000037041649     0.000315348129    -0.001045086034
       9        0.000009282227     0.000025553597     0.000006003210
      10        0.000024376864     0.000021350242     0.000011595701
      11        0.000005861539    -0.000005735712    -0.000000112767
      12        0.000001429899    -0.000001124325    -0.000006208989
      13       -0.000014212990     0.000002520092     0.000002061026
      14        0.000005104177     0.000000086739     0.000001123053
      15        0.000007556193    -0.000002136290     0.000020419466
      16       -0.000011175429     0.000001509929    -0.000001614752
      17        0.000007227519     0.000001582209     0.000000426835
      18        0.000003247234    -0.000008131380    -0.000002443996
      19       -0.000004162126     0.000004156061     0.000001669376
      20        0.000011174917    -0.000005824566     0.000000073626
      21       -0.000001986651    -0.000001179751    -0.000001141447
      22        0.000002967434     0.000002880081    -0.000001401240
      23       -0.000000125987    -0.000000454923     0.000002302604

  **** Optimization is complete! (in 19 steps) ****
    Final optimized geometry and variables:
    Molecular point group: c1

    Geometry (in Angstrom), charge = 0, multiplicity = 1:

    O           -3.306183961477    -0.193604212959    -1.145266499369
    C           -2.680672633304    -0.336272089792    -0.159699101739
    C           -3.252678080195    -0.181099530105     1.224699198132
    O           -1.388341754690    -0.707694769075    -0.206317150982
    H           -4.312250457679     0.004661013927     1.158836220688
    H           -3.062997716117    -1.079880115959     1.797485585542
    H           -2.776469198203     0.644048078149     1.739698829905
    C           -0.394786942379     0.235073749630     0.152776286413
    C            0.959689181513    -0.359995285788    -0.168732467033
    H           -0.552108865371     1.150547221040    -0.408055063891
    H           -0.464078503272     0.466344999764     1.210691007560
    C            2.106777932574     0.580818435404     0.187504146384
    H            0.986826401929    -0.601593712595    -1.225280343728
    H            1.062802690258    -1.295726476983     0.370728813100
    C            3.479159245775    -0.004764581946    -0.133509895769
    H            1.986071019171     1.519685586458    -0.347611440118
    H            2.062751384436     0.825090259954     1.246404824950
    C            4.627062331158     0.934191085172     0.220760275128
    H            3.525201984136    -0.248264693944    -1.190983379057
    H            3.601966786145    -0.942624880227     0.400697744290
    H            4.550834787113     1.869005787205    -0.324472656661
    H            5.585389917718     0.488995602319    -0.019688660314
    H            4.628350393829     1.169427051487     1.279920614030

  Mulliken Charges: (a.u.)
   Center  Symbol    Alpha    Beta     Spin     Total
       1     O     4.16868  4.16868  0.00000 -0.33736
       2     C     2.80912  2.80912  0.00000  0.38175
       3     C     3.15508  3.15508  0.00000 -0.31016
       4     O     4.16051  4.16051  0.00000 -0.32103
       5     H     0.43308  0.43308  0.00000  0.13384
       6     H     0.44239  0.44239  0.00000  0.11522
       7     H     0.45010  0.45010  0.00000  0.09980
       8     C     2.97824  2.97824  0.00000  0.04352
       9     C     3.08358  3.08358  0.00000 -0.16717
      10     H     0.45938  0.45938  0.00000  0.08123
      11     H     0.46262  0.46262  0.00000  0.07476
      12     C     3.09968  3.09968  0.00000 -0.19936
      13     H     0.44408  0.44408  0.00000  0.11184
      14     H     0.44891  0.44891  0.00000  0.10219
      15     C     3.08575  3.08575  0.00000 -0.17150
      16     H     0.45290  0.45290  0.00000  0.09420
      17     H     0.45477  0.45477  0.00000  0.09046
      18     C     3.14950  3.14950  0.00000 -0.29900
      19     H     0.45187  0.45187  0.00000  0.09626
      20     H     0.45301  0.45301  0.00000  0.09397
      21     H     0.45448  0.45448  0.00000  0.09104
      22     H     0.44703  0.44703  0.00000  0.10593
      23     H     0.45522  0.45522  0.00000  0.08956

   Total alpha = 36.00000, Total beta = 36.00000, Total charge = -0.00000

*** Psi4 exiting successfully. Buy a developer a beer!
