  ==> Input File <==

--------------------------------------------------------------------------
set {
	reference rhf
	basis 6-31G*
}

set_num_threads( 4 )
memory 2 gb

molecule MOL {
0 1

H	 -1.748661	 -2.220942	 -0.005015
C	 -1.343207	 -1.225221	 -0.013879
N	 -0.055091	 -1.100174	 -0.261126
C	 -2.150779	 -0.125890	 0.222726
C	 0.449969	 0.122615	 -0.277109
H	 -3.200618	 -0.238980	 0.422496
N	 -1.660212	 1.097703	 0.209594
C	 -0.371804	 1.219904	 -0.038265
C	 1.928147	 0.267347	 -0.541394
H	 0.029131	 2.217482	 -0.051283
C	 2.336517	 1.721249	 -0.801039
H	 2.466818	 -0.110132	 0.321279
H	 2.206639	 -0.350664	 -1.389144
H	 3.407751	 1.793366	 -0.959955
H	 2.075068	 2.346730	 0.044476
H	 1.838843	 2.116103	 -1.681222

	symmetry c1
}
set optking {
	frozen_dihedral = ("
		12 9 5 3
	")
}

ee = optimize('scf')
oeprop('DIPOLE', 'QUADRUPOLE', 'MULLIKEN_CHARGES')
f=open( 'psi4out.xyz', 'w' )
f.write( "16  " )
f.write( str(ee) + "\n" )
f.write( MOL.save_string_xyz() )
f.close()
--------------------------------------------------------------------------

    Molecular point group: c1
  Charge       = 0
  Multiplicity = 1
  Basis Set: 6-31G*
  Basis Set:
  @DF-RHF Final Energy:  -340.75435081589137
    Total Energy =                       -340.7543508158913710
    Molecular point group: c1
  Basis Set: 6-31G*
  Basis Set:
  Basis Set: 6-31G*
  Basis Set:
  @DF-RHF Final Energy:  -340.75542843228993
    Total Energy =                       -340.7554284322899889
  Basis Set: 6-31G*
  Basis Set:
  Basis Set: 6-31G*
  Basis Set:
  @DF-RHF Final Energy:  -340.75616239571985
    Total Energy =                       -340.7561623957197980
  Basis Set: 6-31G*
  Basis Set:
  Basis Set: 6-31G*
  Basis Set:
  @DF-RHF Final Energy:  -340.75621587778630
    Total Energy =                       -340.7562158777864170
  Basis Set: 6-31G*
  Basis Set:
  Basis Set: 6-31G*
  Basis Set:
  @DF-RHF Final Energy:  -340.75621929004359
    Total Energy =                       -340.7562192900434184
  Basis Set: 6-31G*
  Basis Set:
  Basis Set: 6-31G*
  Basis Set:
  @DF-RHF Final Energy:  -340.75622298362151
    Total Energy =                       -340.7562229836214556
  Basis Set: 6-31G*
  Basis Set:
  Charge       = 0
  Multiplicity = 1
  Basis Set: 6-31G*
  Basis Set:

    Orbital Energies (a.u.)
    -----------------------

    Doubly Occupied:

       1A    -15.585860     2A    -15.580840     3A    -11.281981
       4A    -11.275810     5A    -11.271256     6A    -11.270505
       7A    -11.233510     8A    -11.223463     9A     -1.312415
      10A     -1.220684    11A     -1.085476    12A     -1.015058
      13A     -0.908363    14A     -0.891551    15A     -0.829875
      16A     -0.714536    17A     -0.707317    18A     -0.652238
      19A     -0.629793    20A     -0.610580    21A     -0.568153
      22A     -0.563817    23A     -0.518694    24A     -0.512049
      25A     -0.507117    26A     -0.483024    27A     -0.426780
      28A     -0.394094    29A     -0.344726

  @DF-RHF Final Energy:  -340.75622397641786

   => Energetics <=

    Nuclear Repulsion Energy =            349.2152125819852131
    One-Electron Energy =               -1152.7037432120046105
    Two-Electron Energy =                 462.7323066536013698
    DFT Exchange-Correlation Energy =       0.0000000000000000
    Empirical Dispersion Energy =           0.0000000000000000
    PCM Polarization Energy =               0.0000000000000000
    EFP Energy =                            0.0000000000000000
    Total Energy =                       -340.7562239764179708
    Molecular point group: c1
  Basis Set: 6-31G*
  Basis Set:

  -Total Gradient:
     Atom            X                  Y                   Z
    ------   -----------------  -----------------  -----------------
       1        0.000017105763    -0.000004003918     0.000042327864
       2       -0.000106365249     0.000039259750    -0.000082237358
       3        0.000055054818     0.000088322406    -0.000223911866
       4        0.000008136749    -0.000114579578    -0.000058134593
       5        0.000071579603    -0.000082641419     0.000349817410
       6        0.000011482004    -0.000005403687     0.000047769486
       7        0.000094966453     0.000087204007    -0.000048856517
       8       -0.000060931224     0.000053641746     0.000116258180
       9       -0.000006391291    -0.000321665448    -0.000235812043
      10        0.000013839027     0.000015180513    -0.000032146307
      11       -0.000054707408     0.000002907084     0.000010628328
      12       -0.000017882396     0.000253555744     0.000132487124
      13       -0.000005888935    -0.000011056406    -0.000017246467
      14       -0.000008246877    -0.000017496247     0.000007725367
      15        0.000001353997     0.000004431435     0.000002026101
      16       -0.000013105034     0.000012344014    -0.000010694709

  **** Optimization is complete! (in 7 steps) ****
    Final optimized geometry and variables:
    Molecular point group: c1

    Geometry (in Angstrom), charge = 0, multiplicity = 1:

    H           -1.638170938103    -2.520519608227     0.160865244785
    C           -1.262068248602    -1.513148823993     0.166955178091
    N            0.021571985789    -1.347491695739    -0.069996706392
    C           -2.102224886934    -0.439969094948     0.413516058631
    C            0.497739901154    -0.111151110711    -0.065434505302
    H           -3.149715348404    -0.584108205294     0.606065666457
    N           -1.644320801158     0.794351854811     0.418791634050
    C           -0.356538806936     0.958749120917     0.181594820196
    C            1.981513760688     0.031784704553    -0.324958286669
    H            0.003569788432     1.969531251426     0.186183374043
    C            2.479694389092     1.443797438137    -0.629207063731
    H            2.508683788003    -0.358922590708     0.541694078861
    H            2.227459322330    -0.631392903306    -1.146961559552
    H            3.539622265174     1.418357145475    -0.857191677261
    H            2.345964302146     2.113255545255     0.214213098887
    H            1.967590864712     1.873050440605    -1.484736300524

  Mulliken Charges: (a.u.)
   Center  Symbol    Alpha    Beta     Spin     Total
       1     H     0.39391  0.39391  0.00000  0.21218
       2     C     2.98945  2.98945  0.00000  0.02110
       3     N     3.75418  3.75418  0.00000 -0.50835
       4     C     2.99810  2.99810  0.00000  0.00379
       5     C     2.88188  2.88188  0.00000  0.23625
       6     H     0.39449  0.39449  0.00000  0.21101
       7     N     3.73114  3.73114  0.00000 -0.46228
       8     C     2.99838  2.99838  0.00000  0.00325
       9     C     3.16007  3.16007  0.00000 -0.32014
      10     H     0.39281  0.39281  0.00000  0.21438
      11     C     3.25307  3.25307  0.00000 -0.50615
      12     H     0.40514  0.40514  0.00000  0.18972
      13     H     0.40289  0.40289  0.00000  0.19421
      14     H     0.41182  0.41182  0.00000  0.17636
      15     H     0.41752  0.41752  0.00000  0.16496
      16     H     0.41515  0.41515  0.00000  0.16969

   Total alpha = 29.00000, Total beta = 29.00000, Total charge = -0.00000
