  ==> Input File <==

--------------------------------------------------------------------------
set {
	reference rhf
	basis cc-pvtz
}

set_num_threads( 4 )
memory 2 gb

molecule MOL {
0 1

O	 1.045608	 0.908007	 1.962324
C	 0.440399	 1.008580	 0.933575
C	 -0.584112	 2.111278	 0.762504
N	 0.622280	 0.144970	 -0.099307
H	 -1.567305	 1.707703	 0.555612
H	 -0.614384	 2.668716	 1.683829
H	 -0.315790	 2.776761	 -0.048735
C	 1.664396	 -0.854993	 0.000772
C	 0.087899	 0.348805	 -1.424691
H	 2.462727	 -0.615153	 -0.690869
H	 1.261798	 -1.821849	 -0.240651
H	 2.081615	 -0.891605	 1.003877
H	 -0.135480	 -0.612198	 -1.869901
H	 -0.825936	 0.917419	 -1.402791
H	 0.795578	 0.859804	 -2.073624

	symmetry c1
}
set optking {
	frozen_dihedral = ("
		2 4 8 10
	")
}

ee = optimize('scf')
oeprop('DIPOLE', 'QUADRUPOLE', 'MULLIKEN_CHARGES')
f=open( 'psi4out.xyz', 'w' )
f.write( "15  " )
f.write( str(ee) + "\n" )
f.write( MOL.save_string_xyz() )
f.close()
--------------------------------------------------------------------------

    Molecular point group: c1
  Charge       = 0
  Multiplicity = 1
  Basis Set: CC-PVTZ
  Basis Set:
  @DF-RHF Final Energy:  -286.13511686302843
    Total Energy =                       -286.1351168630284860
    Molecular point group: c1
  Basis Set: CC-PVTZ
  Basis Set:
  Basis Set: CC-PVTZ
  Basis Set:
  @DF-RHF Final Energy:  -286.13553454556779
    Total Energy =                       -286.1355345455677366
  Basis Set: CC-PVTZ
  Basis Set:
  Basis Set: CC-PVTZ
  Basis Set:
  @DF-RHF Final Energy:  -286.13557571950025
    Total Energy =                       -286.1355757195004230
  Basis Set: CC-PVTZ
  Basis Set:
  Basis Set: CC-PVTZ
  Basis Set:
  @DF-RHF Final Energy:  -286.13559694716264
    Total Energy =                       -286.1355969471625258
  Basis Set: CC-PVTZ
  Basis Set:
  @DF-RHF Final Energy:  -286.13560543426104
    Total Energy =                       -286.1356054342608672
  Basis Set: CC-PVTZ
  Basis Set:
  @DF-RHF Final Energy:  -286.13560970355775
    Total Energy =                       -286.1356097035575203
  Basis Set: CC-PVTZ
  Basis Set:
  Basis Set: CC-PVTZ
  Basis Set:
  @DF-RHF Final Energy:  -286.13561237008798
    Total Energy =                       -286.1356123700880403
  Basis Set: CC-PVTZ
  Basis Set:
  Basis Set: CC-PVTZ
  Basis Set:
  @DF-RHF Final Energy:  -286.13561438285319
    Total Energy =                       -286.1356143828531913
  Basis Set: CC-PVTZ
  Basis Set:
  Charge       = 0
  Multiplicity = 1
  Basis Set: CC-PVTZ
  Basis Set:

    Orbital Energies (a.u.)
    -----------------------

    Doubly Occupied:

       1A    -20.502686     2A    -15.578700     3A    -11.335251
       4A    -11.264125     5A    -11.246470     6A    -11.226396
       7A     -1.386668     8A     -1.246574     9A     -1.015104
      10A     -0.973382    11A     -0.921419    12A     -0.739260
      13A     -0.683327    14A     -0.662169    15A     -0.653814
      16A     -0.590405    17A     -0.577868    18A     -0.567069
      19A     -0.561764    20A     -0.548683    21A     -0.530527
      22A     -0.507701    23A     -0.413031    24A     -0.369899

  @DF-RHF Final Energy:  -286.13561497032890

   => Energetics <=

    Nuclear Repulsion Energy =            252.8301532118672696
    One-Electron Energy =                -889.7269509329493076
    Two-Electron Energy =                 350.7611827507527664
    DFT Exchange-Correlation Energy =       0.0000000000000000
    Empirical Dispersion Energy =           0.0000000000000000
    PCM Polarization Energy =               0.0000000000000000
    EFP Energy =                            0.0000000000000000
    Total Energy =                       -286.1356149703292999
    Molecular point group: c1
  Basis Set: CC-PVTZ
  Basis Set:

  -Total Gradient:
     Atom            X                  Y                   Z
    ------   -----------------  -----------------  -----------------
       1       -0.000009852694    -0.000017443578     0.000007033425
       2       -0.000071686862    -0.000069664567     0.000021882330
       3        0.000033447905     0.000038145679    -0.000012736472
       4        0.000110986619     0.000102788723    -0.000085522630
       5       -0.000010550747    -0.000006412676     0.000012741303
       6       -0.000002375400     0.000000366718     0.000000141087
       7       -0.000016045903    -0.000012995424    -0.000000037232
       8        0.000026893529     0.000032642092     0.000154911514
       9        0.000005047356     0.000014905395    -0.000002800582
      10       -0.000065116122    -0.000068311553    -0.000100037715
      11       -0.000003643981    -0.000005189980     0.000004744464
      12        0.000006393918    -0.000000042610    -0.000000275253
      13        0.000019886138    -0.000003899381    -0.000006885623
      14       -0.000015293229    -0.000025829127     0.000003555863
      15       -0.000008090525     0.000020940290     0.000003285526

  **** Optimization is complete! (in 9 steps) ****
    Final optimized geometry and variables:
    Molecular point group: c1

    Geometry (in Angstrom), charge = 0, multiplicity = 1:

    O            0.468302423736     0.282652129363     1.631767847079
    C           -0.111994840262     0.399540367710     0.590078647978
    C           -1.133635674603     1.504695047895     0.415066260896
    N            0.100064421395    -0.439919360745    -0.454967856522
    H           -2.119390704963     1.100313408656     0.221254566877
    H           -1.156573971435     2.069334845684     1.332168618365
    H           -0.872058309026     2.162260335775    -0.404423949550
    C            1.126309725348    -1.455399745071    -0.355733249949
    C           -0.467308628782    -0.267572310709    -1.770319972590
    H            1.961840609833    -1.224583533671    -1.010771519599
    H            0.723300926122    -2.418390853064    -0.648700524538
    H            1.480653757028    -1.511555437702     0.657079732787
    H           -0.712802438092    -1.238045867171    -2.183724643868
    H           -1.373205884766     0.312807010632    -1.742719580178
    H            0.230502576161     0.216087598212    -2.449556557913

  Mulliken Charges: (a.u.)
   Center  Symbol    Alpha    Beta     Spin     Total
       1     O     4.22191  4.22191  0.00000 -0.44382
       2     C     2.84617  2.84617  0.00000  0.30765
       3     C     3.16056  3.16056  0.00000 -0.32112
       4     N     3.55961  3.55961  0.00000 -0.11921
       5     H     0.44907  0.44907  0.00000  0.10186
       6     H     0.42859  0.42859  0.00000  0.14282
       7     H     0.44947  0.44947  0.00000  0.10105
       8     C     3.10052  3.10052  0.00000 -0.20103
       9     C     3.09561  3.09561  0.00000 -0.19123
      10     H     0.45812  0.45812  0.00000  0.08377
      11     H     0.45625  0.45625  0.00000  0.08750
      12     H     0.42518  0.42518  0.00000  0.14963
      13     H     0.45004  0.45004  0.00000  0.09991
      14     H     0.44503  0.44503  0.00000  0.10993
      15     H     0.45386  0.45386  0.00000  0.09227

   Total alpha = 24.00000, Total beta = 24.00000, Total charge = -0.00000
