  ==> Input File <==

--------------------------------------------------------------------------
set {
	reference rhf
	basis cc-pvtz
}

set_num_threads( 4 )
memory 2 gb

molecule MOL {
0 1

H	 -3.034039	 -0.667848	 0.004703
O	 -2.240597	 -1.171748	 0.000934
C	 -1.159675	 -0.364500	 0.000370
C	 -0.802487	 0.395006	 1.095806
C	 -0.402104	 -0.318893	 -1.159829
H	 -1.389456	 0.362687	 1.995518
C	 0.319932	 1.201354	 1.017026
H	 -0.708254	 -0.919842	 -1.994136
C	 0.718196	 0.483932	 -1.235832
H	 0.599300	 1.796010	 1.866207
C	 1.076304	 1.251548	 -0.131969
C	 1.555634	 0.515495	 -2.489365
H	 1.942369	 1.884274	 -0.177250
H	 1.841506	 1.529427	 -2.740447
H	 1.021234	 0.096346	 -3.331075
H	 2.466733	 -0.057545	 -2.354582

	symmetry c1
}
set optking {
	frozen_dihedral = ("
		5 3 2 1
	")
}

ee = optimize('scf')
oeprop('DIPOLE', 'QUADRUPOLE', 'MULLIKEN_CHARGES')
f=open( 'psi4out.xyz', 'w' )
f.write( "16  " )
f.write( str(ee) + "\n" )
f.write( MOL.save_string_xyz() )
f.close()
--------------------------------------------------------------------------

    Molecular point group: c1
  Charge       = 0
  Multiplicity = 1
  Basis Set: CC-PVTZ
  Basis Set:
  @DF-RHF Final Energy:  -344.71611664034577
    Total Energy =                       -344.7161166403459447
    Molecular point group: c1
  Basis Set: CC-PVTZ
  Basis Set:
  Basis Set: CC-PVTZ
  Basis Set:
  @DF-RHF Final Energy:  -344.71660303741038
    Total Energy =                       -344.7166030374105503
  Basis Set: CC-PVTZ
  Basis Set:
  Basis Set: CC-PVTZ
  Basis Set:
  @DF-RHF Final Energy:  -344.71665008248442
    Total Energy =                       -344.7166500824842501
  Basis Set: CC-PVTZ
  Basis Set:
  Basis Set: CC-PVTZ
  Basis Set:
  @DF-RHF Final Energy:  -344.71665517678952
    Total Energy =                       -344.7166551767900842
  Basis Set: CC-PVTZ
  Basis Set:
  Basis Set: CC-PVTZ
  Basis Set:
  @DF-RHF Final Energy:  -344.71665680517714
    Total Energy =                       -344.7166568051764557
  Basis Set: CC-PVTZ
  Basis Set:
  Basis Set: CC-PVTZ
  Basis Set:
  @DF-RHF Final Energy:  -344.71665830950235
    Total Energy =                       -344.7166583095025203
  Basis Set: CC-PVTZ
  Basis Set:
  Charge       = 0
  Multiplicity = 1
  Basis Set: CC-PVTZ
  Basis Set:

    Orbital Energies (a.u.)
    -----------------------

    Doubly Occupied:

       1A    -20.570184     2A    -11.287238     3A    -11.240236
       4A    -11.231431     5A    -11.220376     6A    -11.219848
       7A    -11.218484     8A    -11.217719     9A     -1.397372
      10A     -1.154926    11A     -1.046725    12A     -1.007671
      13A     -0.938964    14A     -0.829532    15A     -0.814347
      16A     -0.719406    17A     -0.680235    18A     -0.659758
      19A     -0.622302    20A     -0.593471    21A     -0.577504
      22A     -0.570713    23A     -0.552884    24A     -0.515482
      25A     -0.506670    26A     -0.485283    27A     -0.467465
      28A     -0.333665    29A     -0.321705

  @DF-RHF Final Energy:  -344.71665862895054

   => Energetics <=

    Nuclear Repulsion Energy =            345.8781647355706355
    One-Electron Energy =               -1153.1864569946847041
    Two-Electron Energy =                 462.5916336301634146
    DFT Exchange-Correlation Energy =       0.0000000000000000
    Empirical Dispersion Energy =           0.0000000000000000
    PCM Polarization Energy =               0.0000000000000000
    EFP Energy =                            0.0000000000000000
    Total Energy =                       -344.7166586289506540
    Molecular point group: c1
  Basis Set: CC-PVTZ
  Basis Set:

  -Total Gradient:
     Atom            X                  Y                   Z
    ------   -----------------  -----------------  -----------------
       1        0.000003699596    -0.000018766215    -0.001624398187
       2       -0.000311949991     0.000505337253     0.001793224219
       3        0.001090993512    -0.001426975349     0.000242766609
       4       -0.000034668913    -0.000033590468    -0.000038112068
       5       -0.000721016543     0.001022503156    -0.000398454927
       6       -0.000000150638     0.000004059352    -0.000003645628
       7        0.000039645250     0.000094793600    -0.000025917530
       8       -0.000016091297    -0.000023305522    -0.000032077492
       9        0.000000170796    -0.000163502370    -0.000006948100
      10        0.000005443759    -0.000007553250     0.000001346887
      11       -0.000031879887     0.000013848525     0.000064803212
      12       -0.000020430121     0.000003893998     0.000003769658
      13        0.000013029154     0.000004608258     0.000010998004
      14       -0.000015566859     0.000015026957    -0.000017206381
      15        0.000002283206    -0.000013954290     0.000010651832
      16       -0.000003511022     0.000023576365     0.000019199892

  **** Optimization is complete! (in 7 steps) ****
    Final optimized geometry and variables:
    Molecular point group: c1

    Geometry (in Angstrom), charge = 0, multiplicity = 1:

    H           -2.880209498682    -0.897927011690     0.423871332257
    O           -2.085135120228    -1.400832104271     0.417930269175
    C           -0.997838450875    -0.574672804053     0.374934700190
    C           -0.644210691174     0.181502917273     1.473105429132
    C           -0.242129480876    -0.527856957049    -0.781487145016
    H           -1.232141814287     0.128004601435     2.369072748930
    C            0.474617007935     0.990445583090     1.398390816518
    H           -0.545670827069    -1.130250361514    -1.616162077702
    C            0.885631348477     0.271238801984    -0.856613633591
    H            0.755881823624     1.584790833220     2.247032093764
    C            1.234001812923     1.036994609017     0.247596043492
    C            1.728910125657     0.299115966390    -2.106618295713
    H            2.101625884868     1.668627241735     0.206642346361
    H            2.041501804151     1.308397864611    -2.344195042644
    H            1.186684474169    -0.094861488281    -2.955700122683
    H            2.624398724552    -0.299550333189    -1.978470226291

  Mulliken Charges: (a.u.)
   Center  Symbol    Alpha    Beta     Spin     Total
       1     H     0.38750  0.38750  0.00000  0.22500
       2     O     4.19128  4.19128  0.00000 -0.38256
       3     C     2.85631  2.85631  0.00000  0.28739
       4     C     3.13016  3.13016  0.00000 -0.26032
       5     C     3.14001  3.14001  0.00000 -0.28003
       6     H     0.41984  0.41984  0.00000  0.16032
       7     C     3.06079  3.06079  0.00000 -0.12158
       8     H     0.41955  0.41955  0.00000  0.16090
       9     C     2.94464  2.94464  0.00000  0.11071
      10     H     0.42239  0.42239  0.00000  0.15523
      11     C     3.10868  3.10868  0.00000 -0.21737
      12     C     3.14588  3.14588  0.00000 -0.29177
      13     H     0.42704  0.42704  0.00000  0.14591
      14     H     0.44873  0.44873  0.00000  0.10254
      15     H     0.45065  0.45065  0.00000  0.09870
      16     H     0.44654  0.44654  0.00000  0.10692

   Total alpha = 29.00000, Total beta = 29.00000, Total charge = -0.00000
