  ==> Input File <==

--------------------------------------------------------------------------
set {
	reference rhf
	basis 6-31G*
}

set_num_threads( 1 )
memory 2 gb

molecule MOL {
0 1

O	 1.542718	 0.226467	 0.159035
C	 2.701189	 0.057885	 -0.047330
C	 3.625805	 1.037999	 -0.727954
O	 3.347903	 -1.046386	 0.304773
C	 2.928785	 2.332332	 -1.141451
H	 4.452283	 1.220002	 -0.048984
H	 4.055054	 0.532463	 -1.589276
C	 3.827651	 3.293763	 -1.926424
H	 2.542020	 2.829703	 -0.257056
H	 2.063859	 2.081340	 -1.745875
C	 4.996079	 3.880806	 -1.129387
H	 3.209675	 4.111426	 -2.290094
H	 4.211818	 2.789499	 -2.811943
C	 5.796517	 4.916059	 -1.922198
H	 4.613050	 4.341893	 -0.220263
H	 5.667831	 3.087324	 -0.809845
C	 6.969834	 5.505653	 -1.137445
H	 5.133536	 5.721096	 -2.234617
H	 6.170799	 4.458542	 -2.836687
C	 7.761671	 6.541393	 -1.934903
H	 6.597709	 5.962368	 -0.222800
H	 7.635932	 4.702934	 -0.828030
H	 8.586159	 6.940655	 -1.352310
H	 7.130771	 7.375237	 -2.229629
H	 8.176423	 6.106162	 -2.839794
C	 4.728119	 -1.109107	 -0.004993
H	 4.882018	 -1.033965	 -1.071845
H	 5.068212	 -2.067527	 0.355250
H	 5.265056	 -0.311663	 0.488280

	symmetry c1
}
set optking {
	frozen_dihedral = ("
		21 17 14 11,
		17 14 11 15,
		15 11 8 5,
		6 3 5 9,
		11 8 5 9,
		2 4 26 27,
		6 3 2 1
	")
}

ee = energy('scf')
oeprop('DIPOLE', 'QUADRUPOLE', 'MULLIKEN_CHARGES')
f=open( 'psi4out.xyz', 'w' )
f.write( "29  " )
f.write( str(ee) + "\n" )
f.write( MOL.save_string_xyz() )
f.close()
--------------------------------------------------------------------------

    Molecular point group: c1

    Geometry (in Angstrom), charge = 0, multiplicity = 1:

       Center              X                  Y                   Z               Mass
    ------------   -----------------  -----------------  -----------------  -----------------
           O         -2.848979208623    -2.073370289709     1.012559364774    15.994914619560
           C         -1.690508208623    -2.241952289709     0.806194364774    12.000000000000
           C         -0.765892208623    -1.261838289709     0.125570364774    12.000000000000
           O         -1.043794208623    -3.346223289709     1.158297364774    15.994914619560
           C         -1.462912208623     0.032494710291    -0.287926635226    12.000000000000
           H          0.060585791377    -1.079835289709     0.804540364774     1.007825032070
           H         -0.336643208623    -1.767374289709    -0.735751635226     1.007825032070
           C         -0.564046208623     0.993925710291    -1.072899635226    12.000000000000
           H         -1.849677208623     0.529865710291     0.596468364774     1.007825032070
           H         -2.327838208623    -0.218497289709    -0.892350635226     1.007825032070
           C          0.604381791377     1.580968710291    -0.275862635226    12.000000000000
           H         -1.182022208623     1.811588710291    -1.436569635226     1.007825032070
           H         -0.179879208623     0.489661710291    -1.958418635226     1.007825032070
           C          1.404819791377     2.616221710291    -1.068673635226    12.000000000000
           H          0.221352791377     2.042055710291     0.633261364774     1.007825032070
           H          1.276133791377     0.787486710291     0.043679364774     1.007825032070
           C          2.578136791377     3.205815710291    -0.283920635226    12.000000000000
           H          0.741838791377     3.421258710291    -1.381092635226     1.007825032070
           H          1.779101791377     2.158704710291    -1.983162635226     1.007825032070
           C          3.369973791377     4.241555710291    -1.081378635226    12.000000000000
           H          2.206011791377     3.662530710291     0.630724364774     1.007825032070
           H          3.244234791377     2.403096710291     0.025494364774     1.007825032070
           H          4.194461791377     4.640817710291    -0.498785635226     1.007825032070
           H          2.739073791377     5.075399710291    -1.376104635226     1.007825032070
           H          3.784725791377     3.806324710291    -1.986269635226     1.007825032070
           C          0.336421791377    -3.408944289709     0.848531364774    12.000000000000
           H          0.490320791377    -3.333802289709    -0.218320635226     1.007825032070
           H          0.676514791377    -4.367364289709     1.208774364774     1.007825032070
           H          0.873358791377    -2.611500289709     1.341804364774     1.007825032070

  Charge       = 0
  Multiplicity = 1
  Basis Set: 6-31G*
  Basis Set:

    Orbital Energies (a.u.)
    -----------------------

    Doubly Occupied:

       1A    -20.608751     2A    -20.542081     3A    -11.374404
       4A    -11.297415     5A    -11.241549     6A    -11.222982
       7A    -11.222032     8A    -11.221257     9A    -11.219924
      10A    -11.218850    11A    -11.212420    12A     -1.468668
      13A     -1.368459    14A     -1.102821    15A     -1.070322
      16A     -1.016654    17A     -0.989343    18A     -0.950312
      19A     -0.873805    20A     -0.808983    21A     -0.796084
      22A     -0.758191    23A     -0.708359    24A     -0.702298
      25A     -0.677339    26A     -0.654837    27A     -0.628135
      28A     -0.607094    29A     -0.600245    30A     -0.590229
      31A     -0.569235    32A     -0.559287    33A     -0.547538
      34A     -0.544117    35A     -0.524539    36A     -0.514126
      37A     -0.502779    38A     -0.482489    39A     -0.474164
      40A     -0.466766    41A     -0.463671    42A     -0.448344
      43A     -0.444291    44A     -0.428022

  @DF-RHF Final Energy:  -501.01573434215368

   => Energetics <=

    Nuclear Repulsion Energy =            620.6855559573629080
    One-Electron Energy =               -1911.9557757207003306
    Two-Electron Energy =                 790.2544854211835172
    DFT Exchange-Correlation Energy =       0.0000000000000000
    Empirical Dispersion Energy =           0.0000000000000000
    PCM Polarization Energy =               0.0000000000000000
    EFP Energy =                            0.0000000000000000
    Total Energy =                       -501.0157343421540190

  Mulliken Charges: (a.u.)
   Center  Symbol    Alpha    Beta     Spin     Total
       1     O     4.27417  4.27417  0.00000 -0.54834
       2     C     2.58643  2.58643  0.00000  0.82715
       3     C     3.24873  3.24873  0.00000 -0.49747
       4     O     4.30114  4.30114  0.00000 -0.60227
       5     C     3.14836  3.14836  0.00000 -0.29672
       6     H     0.40083  0.40083  0.00000  0.19835
       7     H     0.40305  0.40305  0.00000  0.19389
       8     C     3.15667  3.15667  0.00000 -0.31335
       9     H     0.41125  0.41125  0.00000  0.17750
      10     H     0.40670  0.40670  0.00000  0.18659
      11     C     3.15425  3.15425  0.00000 -0.30851
      12     H     0.41687  0.41687  0.00000  0.16626
      13     H     0.42506  0.42506  0.00000  0.14989
      14     C     3.15028  3.15028  0.00000 -0.30057
      15     H     0.42149  0.42149  0.00000  0.15702
      16     H     0.42769  0.42769  0.00000  0.14462
      17     C     3.15147  3.15147  0.00000 -0.30294
      18     H     0.42223  0.42223  0.00000  0.15554
      19     H     0.42421  0.42421  0.00000  0.15158
      20     C     3.23945  3.23945  0.00000 -0.47890
      21     H     0.42223  0.42223  0.00000  0.15555
      22     H     0.42446  0.42446  0.00000  0.15107
      23     H     0.41880  0.41880  0.00000  0.16241
      24     H     0.42093  0.42093  0.00000  0.15813
      25     H     0.42184  0.42184  0.00000  0.15633
      26     C     3.09953  3.09953  0.00000 -0.19906
      27     H     0.41378  0.41378  0.00000  0.17245
      28     H     0.39415  0.39415  0.00000  0.21169
      29     H     0.41395  0.41395  0.00000  0.17211

   Total alpha = 44.00000, Total beta = 44.00000, Total charge =  0.00000
