  ==> Input File <==

--------------------------------------------------------------------------
set {
	reference rhf
	basis 6-31G*
}

set_num_threads( 4 )
memory 2 gb

molecule MOL {
0 1

H	 -3.892951	 0.981613	 -0.358725
C	 -3.196921	 0.361773	 0.172313
C	 -2.076860	 -0.007332	 -0.404944
H	 -3.439953	 0.057760	 1.173024
O	 -1.180634	 -0.819263	 0.215062
H	 -1.811520	 0.292194	 -1.403480
C	 0.051604	 -1.018856	 -0.387932
C	 1.043764	 0.054862	 -0.001873
H	 -0.017620	 -1.041351	 -1.469781
H	 0.437898	 -1.966374	 -0.042284
F	 2.257703	 -0.471579	 0.068960
F	 1.081151	 1.031806	 -0.892948
F	 0.764119	 0.589359	 1.168811

	symmetry c1
}
set optking {
	frozen_dihedral = ("
		11 8 7 9
	")
}

ee = optimize('scf')
oeprop('DIPOLE', 'QUADRUPOLE', 'MULLIKEN_CHARGES')
f=open( 'psi4out.xyz', 'w' )
f.write( "13  " )
f.write( str(ee) + "\n" )
f.write( MOL.save_string_xyz() )
f.close()
--------------------------------------------------------------------------

    Molecular point group: c1
  Charge       = 0
  Multiplicity = 1
  Basis Set: 6-31G*
  Basis Set:
  @DF-RHF Final Energy:  -527.53166995194306
    Total Energy =                       -527.5316699519430585
    Molecular point group: c1
  Basis Set: 6-31G*
  Basis Set:
  Basis Set: 6-31G*
  Basis Set:
  @DF-RHF Final Energy:  -527.53203981662477
    Total Energy =                       -527.5320398166246605
  Basis Set: 6-31G*
  Basis Set:
  Basis Set: 6-31G*
  Basis Set:
  @DF-RHF Final Energy:  -527.53217147633291
    Total Energy =                       -527.5321714763329055
  Basis Set: 6-31G*
  Basis Set:
  Basis Set: 6-31G*
  Basis Set:
  @DF-RHF Final Energy:  -527.53219515867556
    Total Energy =                       -527.5321951586754494
  Basis Set: 6-31G*
  Basis Set:
  @DF-RHF Final Energy:  -527.53221298131166
    Total Energy =                       -527.5322129813118863
  @DF-RHF Final Energy:  -527.53221859670850
    Total Energy =                       -527.5322185967085034
  Basis Set: 6-31G*
  Basis Set:
  @DF-RHF Final Energy:  -527.53222367773219
    Total Energy =                       -527.5322236777319631
  Basis Set: 6-31G*
  Basis Set:
  Basis Set: 6-31G*
  Basis Set:
  @DF-RHF Final Energy:  -527.53222750981217
    Total Energy =                       -527.5322275098124010
  Basis Set: 6-31G*
  Basis Set:
  Basis Set: 6-31G*
  Basis Set:
  @DF-RHF Final Energy:  -527.53222856810930
    Total Energy =                       -527.5322285681093035
  Basis Set: 6-31G*
  Basis Set:
  Charge       = 0
  Multiplicity = 1
  Basis Set: 6-31G*
  Basis Set:

    Orbital Energies (a.u.)
    -----------------------

    Doubly Occupied:

       1A    -26.343395     2A    -26.342725     3A    -26.339055
       4A    -20.606485     5A    -11.503373     6A    -11.318386
       7A    -11.298536     8A    -11.217571     9A     -1.741141
      10A     -1.638966    11A     -1.636836    12A     -1.436764
      13A     -1.080666    14A     -1.015949    15A     -0.924769
      16A     -0.835525    17A     -0.828858    18A     -0.820855
      19A     -0.792630    20A     -0.718379    21A     -0.713000
      22A     -0.693374    23A     -0.675594    24A     -0.660274
      25A     -0.655163    26A     -0.641841    27A     -0.631573
      28A     -0.584367    29A     -0.563504    30A     -0.522517
      31A     -0.509908    32A     -0.353505

  @DF-RHF Final Energy:  -527.53222982782995

   => Energetics <=

    Nuclear Repulsion Energy =            414.5109894191261333
    One-Electron Energy =               -1552.7954673465601445
    Two-Electron Energy =                 610.7522480996037757
    DFT Exchange-Correlation Energy =       0.0000000000000000
    Empirical Dispersion Energy =           0.0000000000000000
    PCM Polarization Energy =               0.0000000000000000
    EFP Energy =                            0.0000000000000000
    Total Energy =                       -527.5322298278301787
    Molecular point group: c1
  Basis Set: 6-31G*
  Basis Set:

  -Total Gradient:
     Atom            X                  Y                   Z
    ------   -----------------  -----------------  -----------------
       1        0.000010936287     0.000009006508     0.000001678343
       2       -0.000013383586    -0.000021068653     0.000004238583
       3        0.000008526726    -0.000034036713    -0.000034089953
       4        0.000001318855     0.000000007691     0.000001051159
       5       -0.000127157675    -0.000074390154     0.000216440785
       6        0.000009951919     0.000023209883     0.000016222208
       7        0.004438480756    -0.003984518257     0.000739432778
       8        0.000074694611     0.001880621061    -0.005183577449
       9       -0.003798296757     0.003086348615     0.000231581990
      10        0.000052085386     0.000070450720    -0.000063108731
      11       -0.000705226993    -0.000952696139     0.004113224470
      12       -0.000006224746    -0.000043967546     0.000053707539
      13        0.000054295215     0.000041032982    -0.000096801721

  **** Optimization is complete! (in 10 steps) ****
    Final optimized geometry and variables:
    Molecular point group: c1

    Geometry (in Angstrom), charge = 0, multiplicity = 1:

    H           -3.765193292634     1.073271669998    -0.324635771672
    C           -3.096700574026     0.405062411296     0.182774059192
    C           -2.027878783434    -0.045323072239    -0.432579319577
    H           -3.326725022468     0.116364697336     1.191120531356
    O           -1.178307545859    -0.932492003255     0.148782113990
    H           -1.775445166891     0.237236508447    -1.440532015906
    C            0.088577570839    -1.063013260770    -0.403058502029
    C            1.020104561477     0.073223892238     0.006000935708
    H            0.033033527768    -1.074090319745    -1.485880953877
    H            0.502591811950    -1.990357035356    -0.041040956865
    F            2.265707832645    -0.370221076442     0.085389528875
    F            1.001422651018     1.065666772934    -0.870958667275
    F            0.703446867725     0.574456757777     1.180339474618

  Mulliken Charges: (a.u.)
   Center  Symbol    Alpha    Beta     Spin     Total
       1     H     0.40680  0.40680  0.00000  0.18640
       2     C     3.23107  3.23107  0.00000 -0.46215
       3     C     2.90276  2.90276  0.00000  0.19448
       4     H     0.40112  0.40112  0.00000  0.19775
       5     O     4.29849  4.29849  0.00000 -0.59699
       6     H     0.40640  0.40640  0.00000  0.18720
       7     C     3.07154  3.07154  0.00000 -0.14308
       8     C     2.45290  2.45290  0.00000  1.09420
       9     H     0.40374  0.40374  0.00000  0.19251
      10     H     0.38712  0.38712  0.00000  0.22576
      11     F     4.68328  4.68328  0.00000 -0.36655
      12     F     4.68171  4.68171  0.00000 -0.36343
      13     F     4.67305  4.67305  0.00000 -0.34611

   Total alpha = 32.00000, Total beta = 32.00000, Total charge = -0.00000
