  ==> Input File <==

--------------------------------------------------------------------------
set {
	reference rhf
	basis 6-31G*
}

set_num_threads( 1 )
memory 2 gb

molecule MOL {
0 1

O	 -2.439739	 -0.935931	 -0.423848
C	 -1.921153	 0.064240	 -0.045697
C	 -2.624470	 1.379923	 0.150949
O	 -0.632575	 0.154573	 0.251549
H	 -2.168117	 2.136577	 -0.476876
H	 -3.669540	 1.273223	 -0.098610
H	 -2.519365	 1.700893	 1.180846
C	 0.160891	 -1.019931	 0.106212
C	 1.589627	 -0.672828	 0.480843
H	 0.089836	 -1.367806	 -0.916050
H	 -0.238459	 -1.792301	 0.749618
C	 2.438303	 -0.182875	 -0.693931
H	 2.040805	 -1.565066	 0.910124
H	 1.574089	 0.078663	 1.265877
C	 3.877089	 0.131753	 -0.286618
H	 2.440991	 -0.940792	 -1.474735
H	 1.980090	 0.702031	 -1.123282
H	 4.457559	 0.477754	 -1.135953
H	 4.373207	 -0.746289	 0.117348
H	 3.908548	 0.907538	 0.473150

	symmetry c1
}
set optking {
	frozen_dihedral = ("
		16 12 9 8,
		2 4 8 10,
		1 2 4 8
	")
}

ee = energy('scf')
oeprop('DIPOLE', 'QUADRUPOLE', 'MULLIKEN_CHARGES')
f=open( 'psi4out.xyz', 'w' )
f.write( "20  " )
f.write( str(ee) + "\n" )
f.write( MOL.save_string_xyz() )
f.close()
--------------------------------------------------------------------------

    Molecular point group: c1

    Geometry (in Angstrom), charge = 0, multiplicity = 1:

       Center              X                  Y                   Z               Mass
    ------------   -----------------  -----------------  -----------------  -----------------
           O         -2.486840331608    -0.804791335611    -0.365721932877    15.994914619560
           C         -1.968254331608     0.195379664389     0.012429067123    12.000000000000
           C         -2.671571331608     1.511062664389     0.209075067123    12.000000000000
           O         -0.679676331608     0.285712664389     0.309675067123    15.994914619560
           H         -2.215218331608     2.267716664389    -0.418749932877     1.007825032070
           H         -3.716641331608     1.404362664389    -0.040483932877     1.007825032070
           H         -2.566466331608     1.832032664389     1.238972067123     1.007825032070
           C          0.113789668392    -0.888791335611     0.164338067123    12.000000000000
           C          1.542525668392    -0.541688335611     0.538969067123    12.000000000000
           H          0.042734668392    -1.236666335611    -0.857923932877     1.007825032070
           H         -0.285560331608    -1.661161335611     0.807744067123     1.007825032070
           C          2.391201668392    -0.051735335611    -0.635804932877    12.000000000000
           H          1.993703668392    -1.433926335611     0.968250067123     1.007825032070
           H          1.526987668392     0.209802664389     1.324003067123     1.007825032070
           C          3.829987668392     0.262892664389    -0.228491932877    12.000000000000
           H          2.393889668392    -0.809652335611    -1.416608932877     1.007825032070
           H          1.932988668392     0.833170664389    -1.065155932877     1.007825032070
           H          4.410457668392     0.608893664389    -1.077826932877     1.007825032070
           H          4.326105668392    -0.615149335611     0.175474067123     1.007825032070
           H          3.861446668392     1.038677664389     0.531276067123     1.007825032070

  Charge       = 0
  Multiplicity = 1
  Basis Set: 6-31G*
  Basis Set:

    Orbital Energies (a.u.)
    -----------------------

    Doubly Occupied:

       1A    -20.601207     2A    -20.543637     3A    -11.373909
       4A    -11.281491     5A    -11.233091     6A    -11.224309
       7A    -11.222688     8A    -11.214210     9A     -1.467411
      10A     -1.361711    11A     -1.086627    12A     -1.028692
      13A     -0.981221    14A     -0.880524    15A     -0.808423
      16A     -0.780204    17A     -0.689138    18A     -0.681325
      19A     -0.667253    20A     -0.630867    21A     -0.603274
      22A     -0.592586    23A     -0.571308    24A     -0.552314
      25A     -0.544996    26A     -0.526514    27A     -0.513737
      28A     -0.482226    29A     -0.478566    30A     -0.474413
      31A     -0.447049    32A     -0.437585

  @DF-RHF Final Energy:  -383.94298357323044

   => Energetics <=

    Nuclear Repulsion Energy =            382.7905433442584808
    One-Electron Energy =               -1281.5020103620522605
    Two-Electron Energy =                 514.7684834445636852
    DFT Exchange-Correlation Energy =       0.0000000000000000
    Empirical Dispersion Energy =           0.0000000000000000
    PCM Polarization Energy =               0.0000000000000000
    EFP Energy =                            0.0000000000000000
    Total Energy =                       -383.9429835732300944

  Mulliken Charges: (a.u.)
   Center  Symbol    Alpha    Beta     Spin     Total
       1     O     4.28352  4.28352  0.00000 -0.56705
       2     C     2.61961  2.61961  0.00000  0.76078
       3     C     3.28152  3.28152  0.00000 -0.56305
       4     O     4.30940  4.30940  0.00000 -0.61881
       5     H     0.40073  0.40073  0.00000  0.19854
       6     H     0.39697  0.39697  0.00000  0.20605
       7     H     0.40074  0.40074  0.00000  0.19852
       8     C     3.00233  3.00233  0.00000 -0.00467
       9     C     3.16587  3.16587  0.00000 -0.33174
      10     H     0.40953  0.40953  0.00000  0.18093
      11     H     0.40882  0.40882  0.00000  0.18237
      12     C     3.15621  3.15621  0.00000 -0.31242
      13     H     0.41837  0.41837  0.00000  0.16326
      14     H     0.40942  0.40942  0.00000  0.18116
      15     C     3.24070  3.24070  0.00000 -0.48140
      16     H     0.42159  0.42159  0.00000  0.15682
      17     H     0.41610  0.41610  0.00000  0.16779
      18     H     0.41736  0.41736  0.00000  0.16528
      19     H     0.42100  0.42100  0.00000  0.15801
      20     H     0.42018  0.42018  0.00000  0.15963

   Total alpha = 32.00000, Total beta = 32.00000, Total charge =  0.00000
