  ==> Input File <==

--------------------------------------------------------------------------
set {
	reference rhf
	basis cc-pvtz
}

set_num_threads( 4 )
memory 2 gb

molecule MOL {
0 1

H	 0.692444	 -4.861363	 3.318336
C	 0.847985	 -4.163320	 2.504302
C	 -0.349204	 -3.233052	 2.343081
H	 1.752531	 -3.603841	 2.718352
H	 1.023327	 -4.741413	 1.603147
C	 -0.173181	 -2.234891	 1.208330
H	 -0.522655	 -2.685700	 3.262910
H	 -1.243246	 -3.825206	 2.162476
N	 -1.314408	 -1.352394	 1.096367
H	 0.705383	 -1.626071	 1.399729
H	 0.023421	 -2.775417	 0.277598
C	 -1.215959	 -0.382435	 0.027143
H	 -2.147831	 -1.891536	 0.986590
C	 -2.451944	 0.502410	 -0.038737
H	 -0.342474	 0.235413	 0.212790
H	 -1.057081	 -0.855930	 -0.946323
C	 -3.752217	 -0.292550	 0.005776
H	 -2.407325	 1.093801	 -0.946480
H	 -2.431979	 1.206234	 0.790023
H	 -3.817783	 -0.982946	 -0.828547
H	 -4.612613	 0.364348	 -0.042306
H	 -3.830160	 -0.871666	 0.919868

	symmetry c1
}
set optking {
	frozen_dihedral = ("
		15 12 14 18
	")
}

ee = optimize('scf')
oeprop('DIPOLE', 'QUADRUPOLE', 'MULLIKEN_CHARGES')
f=open( 'psi4out.xyz', 'w' )
f.write( "22  " )
f.write( str(ee) + "\n" )
f.write( MOL.save_string_xyz() )
f.close()
--------------------------------------------------------------------------

    Molecular point group: c1
  Charge       = 0
  Multiplicity = 1
  Basis Set: CC-PVTZ
  Basis Set:
  @DF-RHF Final Energy:  -290.48647665100458
    Total Energy =                       -290.4864766510046934
    Molecular point group: c1
  Basis Set: CC-PVTZ
  Basis Set:
  Basis Set: CC-PVTZ
  Basis Set:
  @DF-RHF Final Energy:  -290.48713592472615
    Total Energy =                       -290.4871359247257487
  Basis Set: CC-PVTZ
  Basis Set:
  Basis Set: CC-PVTZ
  Basis Set:
  @DF-RHF Final Energy:  -290.48787508162332
    Total Energy =                       -290.4878750816232014
  Basis Set: CC-PVTZ
  Basis Set:
  Basis Set: CC-PVTZ
  Basis Set:
  @DF-RHF Final Energy:  -290.48793288187159
    Total Energy =                       -290.4879328818718136
  Basis Set: CC-PVTZ
  Basis Set:
  Basis Set: CC-PVTZ
  Basis Set:
  @DF-RHF Final Energy:  -290.48793729406054
    Total Energy =                       -290.4879372940604867
  Basis Set: CC-PVTZ
  Basis Set:
  Charge       = 0
  Multiplicity = 1
  Basis Set: CC-PVTZ
  Basis Set:

    Orbital Energies (a.u.)
    -----------------------

    Doubly Occupied:

       1A    -15.527755     2A    -11.236645     3A    -11.236193
       4A    -11.211924     5A    -11.211823     6A    -11.207635
       7A    -11.206989     8A     -1.207371     9A     -1.059479
      10A     -1.024017    11A     -0.928950    12A     -0.881129
      13A     -0.805465    14A     -0.787315    15A     -0.670555
      16A     -0.634332    17A     -0.624931    18A     -0.589410
      19A     -0.574968    20A     -0.572039    21A     -0.542460
      22A     -0.529721    23A     -0.505635    24A     -0.486552
      25A     -0.481470    26A     -0.472848    27A     -0.466987
      28A     -0.451823    29A     -0.361088

  @DF-RHF Final Energy:  -290.48793751998221

   => Energetics <=

    Nuclear Repulsion Energy =            318.3071644234693167
    One-Electron Energy =               -1022.5951838580995172
    Two-Electron Energy =                 413.8000819146479898
    DFT Exchange-Correlation Energy =       0.0000000000000000
    Empirical Dispersion Energy =           0.0000000000000000
    PCM Polarization Energy =               0.0000000000000000
    EFP Energy =                            0.0000000000000000
    Total Energy =                       -290.4879375199822107
    Molecular point group: c1
  Basis Set: CC-PVTZ
  Basis Set:

  -Total Gradient:
     Atom            X                  Y                   Z
    ------   -----------------  -----------------  -----------------
       1        0.000001870671    -0.000001445916     0.000000802196
       2       -0.000000171665    -0.000001775002     0.000000712587
       3       -0.000000012514     0.000003600342    -0.000002826564
       4       -0.000000723224    -0.000000309206    -0.000000606983
       5       -0.000000056970     0.000000410691     0.000000689535
       6       -0.000010654510     0.000021499385     0.000000249647
       7       -0.000000208290    -0.000000477380    -0.000001615287
       8       -0.000000565132     0.000000330906     0.000000583457
       9       -0.000005345534     0.000010691033    -0.000014796204
      10        0.000006637955    -0.000002626502    -0.000001915627
      11        0.000001884701    -0.000002396482    -0.000000439759
      12        0.000097187919    -0.000031621554    -0.004777832163
      13       -0.000005056577     0.000009775607     0.000000386650
      14        0.002274245263     0.002913641640     0.003008290665
      15       -0.000427228733    -0.000431580141     0.003591223100
      16        0.000004327893     0.000000894302    -0.000011153112
      17        0.000011969674    -0.000000405443    -0.000011907559
      18       -0.001942112609    -0.002488472237    -0.001784144063
      19        0.000000589368     0.000007490973     0.000003210349
      20       -0.000008221067    -0.000005067639    -0.000002111192
      21        0.000002389507     0.000001648484     0.000001063229
      22       -0.000000746128    -0.000003805862     0.000002137098

  **** Optimization is complete! (in 6 steps) ****
    Final optimized geometry and variables:
    Molecular point group: c1

    Geometry (in Angstrom), charge = 0, multiplicity = 1:

    H            1.975208321191    -3.237642919171     2.315011069941
    C            2.120525711028    -2.525198399952     1.511612094876
    C            0.884349669854    -1.653266424366     1.321362229718
    H            2.989547227543    -1.924048140709     1.757442907911
    H            2.350951997344    -3.085490988561     0.611622281351
    C            1.045693714111    -0.636280459739     0.201200066503
    H            0.656451283581    -1.124236422690     2.240073216387
    H            0.026668226694    -2.286962203656     1.108263951687
    N           -0.132770587003     0.193090760838     0.064557996234
    H            1.889815053490     0.009621410779     0.423008430632
    H            1.292823025129    -1.158241075870    -0.728194928458
    C           -0.048848115634     1.163530301748    -1.008712829234
    H           -0.932319840380    -0.389603158794    -0.060952957476
    C           -1.239025014746     2.119072542527    -1.031733942444
    H            0.851354419961     1.742194732355    -0.832333871780
    H            0.058177518065     0.686223508530    -1.986618709971
    C           -2.603200135515     1.431004555090    -1.036043848446
    H           -1.166368791846     2.715566606826    -1.936283961363
    H           -1.176825633657     2.791616722245    -0.183954844337
    H           -2.684016267694     0.720441715503    -1.853709153159
    H           -3.396479154300     2.159235428469    -1.157468406059
    H           -2.789315856789     0.902685586532    -0.109044348041

  Mulliken Charges: (a.u.)
   Center  Symbol    Alpha    Beta     Spin     Total
       1     H     0.44770  0.44770  0.00000  0.10460
       2     C     3.15350  3.15350  0.00000 -0.30701
       3     C     3.08126  3.08126  0.00000 -0.16252
       4     H     0.45465  0.45465  0.00000  0.09070
       5     H     0.45607  0.45607  0.00000  0.08787
       6     C     3.02136  3.02136  0.00000 -0.04272
       7     H     0.44908  0.44908  0.00000  0.10183
       8     H     0.45989  0.45989  0.00000  0.08022
       9     N     3.64338  3.64338  0.00000 -0.28675
      10     H     0.45921  0.45921  0.00000  0.08158
      11     H     0.47497  0.47497  0.00000  0.05006
      12     C     3.03604  3.03604  0.00000 -0.07207
      13     H     0.44059  0.44059  0.00000  0.11881
      14     C     3.07615  3.07615  0.00000 -0.15230
      15     H     0.45478  0.45478  0.00000  0.09044
      16     H     0.46900  0.46900  0.00000  0.06200
      17     C     3.16190  3.16190  0.00000 -0.32379
      18     H     0.45576  0.45576  0.00000  0.08848
      19     H     0.45263  0.45263  0.00000  0.09473
      20     H     0.45468  0.45468  0.00000  0.09064
      21     H     0.44544  0.44544  0.00000  0.10911
      22     H     0.45196  0.45196  0.00000  0.09608

   Total alpha = 29.00000, Total beta = 29.00000, Total charge = -0.00000
