  ==> Input File <==

--------------------------------------------------------------------------
set {
	reference rhf
	basis 6-31G*
}

set_num_threads( 4 )
memory 2 gb

molecule MOL {
0 1

O	 -2.042549	 -1.228399	 -0.269030
C	 -1.653912	 -0.146171	 0.050137
C	 -0.332303	 0.024011	 0.778412
C	 -2.438579	 1.106236	 -0.272369
C	 -0.030082	 -1.197630	 1.660528
H	 0.476529	 0.177378	 0.069432
H	 -0.410614	 0.909434	 1.399554
C	 1.279749	 -1.053821	 2.436861
H	 0.014913	 -2.094146	 1.044641
H	 -0.854743	 -1.337003	 2.353096
C	 1.578313	 -2.263376	 3.321758
H	 2.099980	 -0.905338	 1.737862
H	 1.234690	 -0.157915	 3.051588
H	 1.663135	 -3.170966	 2.730878
H	 0.790335	 -2.417560	 4.053032
H	 2.510501	 -2.132397	 3.862032
H	 -3.277823	 0.863061	 -0.908988
H	 -1.806773	 1.843019	 -0.759671
H	 -2.802853	 1.554979	 0.648059

	symmetry c1
}
set optking {
	frozen_dihedral = ("
		5 3 2 4
	")
}

ee = optimize('scf')
oeprop('DIPOLE', 'QUADRUPOLE', 'MULLIKEN_CHARGES')
f=open( 'psi4out.xyz', 'w' )
f.write( "19  " )
f.write( str(ee) + "\n" )
f.write( MOL.save_string_xyz() )
f.close()
--------------------------------------------------------------------------

    Molecular point group: c1
  Charge       = 0
  Multiplicity = 1
  Basis Set: 6-31G*
  Basis Set:
  @DF-RHF Final Energy:  -309.06525773687565
    Total Energy =                       -309.0652577368754237
    Molecular point group: c1
  Basis Set: 6-31G*
  Basis Set:
  Basis Set: 6-31G*
  Basis Set:
  @DF-RHF Final Energy:  -309.06524546332781
    Total Energy =                       -309.0652454633276989
  Basis Set: 6-31G*
  Basis Set:
  Basis Set: 6-31G*
  Basis Set:
  @DF-RHF Final Energy:  -309.06527093262457
    Total Energy =                       -309.0652709326246850
  Basis Set: 6-31G*
  Basis Set:
  Basis Set: 6-31G*
  Basis Set:
  @DF-RHF Final Energy:  -309.06619140915672
    Total Energy =                       -309.0661914091565450
  Basis Set: 6-31G*
  Basis Set:
  Basis Set: 6-31G*
  Basis Set:
  @DF-RHF Final Energy:  -309.06630464784763
    Total Energy =                       -309.0663046478474598
  Basis Set: 6-31G*
  Basis Set:
  Basis Set: 6-31G*
  Basis Set:
  @DF-RHF Final Energy:  -309.06622273969185
    Total Energy =                       -309.0662227396921367
  Basis Set: 6-31G*
  Basis Set:
  Basis Set: 6-31G*
  Basis Set:
  @DF-RHF Final Energy:  -309.06632183387438
    Total Energy =                       -309.0663218338740990
  Basis Set: 6-31G*
  Basis Set:
  Charge       = 0
  Multiplicity = 1
  Basis Set: 6-31G*
  Basis Set:

    Orbital Energies (a.u.)
    -----------------------

    Doubly Occupied:

       1A    -20.549335     2A    -11.326445     3A    -11.231685
       4A    -11.228791     5A    -11.220309     6A    -11.219382
       7A    -11.210812     8A     -1.395113     9A     -1.086279
      10A     -1.029514    11A     -0.983951    12A     -0.886687
      13A     -0.802031    14A     -0.731268    15A     -0.658542
      16A     -0.648434    17A     -0.624524    18A     -0.611251
      19A     -0.581503    20A     -0.571919    21A     -0.553955
      22A     -0.531469    23A     -0.512981    24A     -0.488331
      25A     -0.475825    26A     -0.473208    27A     -0.468612
      28A     -0.399036

  @DF-RHF Final Energy:  -309.06632191063943

   => Energetics <=

    Nuclear Repulsion Energy =            300.7656759261525394
    One-Electron Energy =               -1014.6616127243286201
    Two-Electron Energy =                 404.8296148875369909
    DFT Exchange-Correlation Energy =       0.0000000000000000
    Empirical Dispersion Energy =           0.0000000000000000
    PCM Polarization Energy =               0.0000000000000000
    EFP Energy =                            0.0000000000000000
    Total Energy =                       -309.0663219106390898
    Molecular point group: c1
  Basis Set: 6-31G*
  Basis Set:

  -Total Gradient:
     Atom            X                  Y                   Z
    ------   -----------------  -----------------  -----------------
       1       -0.000071308771    -0.000066859818    -0.000054583090
       2        0.000636760341     0.000385263952    -0.001189477400
       3        0.000490222826    -0.000597841728    -0.000580200611
       4       -0.000634731582    -0.000158434692     0.001074227082
       5       -0.000401600070     0.000273572613     0.000598556111
       6       -0.000081566286    -0.000043833403     0.000083949378
       7        0.000008320716     0.000140912383    -0.000016131037
       8       -0.000039722327     0.000010613242     0.000057847749
       9       -0.000027273074    -0.000048457399     0.000032834475
      10        0.000049206102     0.000055941032    -0.000031536722
      11       -0.000002179042     0.000010002422     0.000026524686
      12       -0.000027926059    -0.000040842829     0.000000344542
      13        0.000039410097     0.000044067151    -0.000001000015
      14        0.000000985190     0.000010906003    -0.000001439905
      15       -0.000001951172    -0.000008352969     0.000000867764
      16       -0.000002023339     0.000001411546     0.000018771776
      17        0.000045244415    -0.000018080716     0.000000645315
      18        0.000013908090     0.000001574153    -0.000016211563
      19        0.000006223946     0.000048439059    -0.000003988537

  **** Optimization is complete! (in 8 steps) ****
    Final optimized geometry and variables:
    Molecular point group: c1

    Geometry (in Angstrom), charge = 0, multiplicity = 1:

    O           -1.527268838393    -0.529746526578    -1.437583447449
    C           -1.135552514094     0.537857584586    -1.076795075849
    C            0.152820906280     0.691421918900    -0.284829158784
    C           -1.900154714147     1.806248787041    -1.385455810084
    C            0.480482348993    -0.518464123656     0.589628482045
    H            0.947903968235     0.857849099512    -1.011376760263
    H            0.103044157443     1.596983888581     0.314795083055
    C            1.808012158588    -0.365732910309     1.333484667569
    H            0.501484223768    -1.407745057142    -0.029973868195
    H           -0.322919082830    -0.666013228289     1.307423632361
    C            2.127069944453    -1.565944628323     2.224048862569
    H            2.611642095403    -0.228241974176     0.612877678489
    H            1.785144826214     0.537231757841     1.940488787877
    H            2.191283458836    -2.479707589669     1.640617111408
    H            1.358514102505    -1.709564056931     2.978101673494
    H            3.074078289670    -1.433129705239     2.737788132400
    H           -2.705938287615     1.593943278580    -2.074202514248
    H           -1.243575531872     2.562282034166    -1.806139423049
    H           -2.311133364806     2.213475060962    -0.465443123466

  Mulliken Charges: (a.u.)
   Center  Symbol    Alpha    Beta     Spin     Total
       1     O     4.26263  4.26263  0.00000 -0.52527
       2     C     2.73386  2.73386  0.00000  0.53228
       3     C     3.21018  3.21018  0.00000 -0.42036
       4     C     3.28798  3.28798  0.00000 -0.57596
       5     C     3.15062  3.15062  0.00000 -0.30124
       6     H     0.40463  0.40463  0.00000  0.19073
       7     H     0.41425  0.41425  0.00000  0.17150
       8     C     3.15321  3.15321  0.00000 -0.30643
       9     H     0.40468  0.40468  0.00000  0.19064
      10     H     0.41903  0.41903  0.00000  0.16195
      11     C     3.23951  3.23951  0.00000 -0.47902
      12     H     0.42269  0.42269  0.00000  0.15461
      13     H     0.42419  0.42419  0.00000  0.15163
      14     H     0.41927  0.41927  0.00000  0.16146
      15     H     0.42076  0.42076  0.00000  0.15847
      16     H     0.41894  0.41894  0.00000  0.16212
      17     H     0.39705  0.39705  0.00000  0.20590
      18     H     0.40994  0.40994  0.00000  0.18012
      19     H     0.40657  0.40657  0.00000  0.18686

   Total alpha = 28.00000, Total beta = 28.00000, Total charge =  0.00000
