                              Psi4 1.0.54 Driver

  ==> Input File <==

--------------------------------------------------------------------------
set {
	reference rhf
	basis cc-pvtz
}

set_num_threads( 4 )
memory 2 gb

molecule MOL {
0 1

H	 -4.024094	 -0.454727	 0.000004
C	 -2.962215	 -0.297920	 0.000004
C	 -2.454736	 0.988978	 0.000025
C	 -2.105837	 -1.382632	 -0.000016
H	 -3.120052	 1.830438	 0.000041
C	 -1.090106	 1.189676	 0.000026
H	 -2.500390	 -2.380229	 -0.000033
C	 -0.739175	 -1.183302	 -0.000016
H	 -0.680214	 2.179144	 0.000042
C	 -0.227341	 0.104540	 0.000006
H	 -0.073209	 -2.021168	 -0.000032
C	 1.238974	 0.374429	 0.000004
O	 1.938850	 -0.565677	 0.606930
O	 1.733078	 1.332780	 -0.492546
C	 3.341701	 -0.395129	 0.656750
H	 3.754568	 -0.352954	 -0.339814
H	 3.725282	 -1.253328	 1.183958
H	 3.595294	 0.512060	 1.184100

	symmetry c1
}
set optking {
	frozen_dihedral = ("
		13 12 10 6
	")
}

ee,wfn = optimize('scf', return_wfn=True)
oeprop( wfn, 'DIPOLE', 'QUADRUPOLE', 'MULLIKEN_CHARGES')
f=open( 'psi4out.xyz', 'w' )
f.write( "18  " )
f.write( str(ee) + "\n" )
f.write( MOL.save_string_xyz() )
f.close()
--------------------------------------------------------------------------

    Molecular point group: c1
  Charge       = 0
  Multiplicity = 1
  Basis Set: CC-PVTZ
  Basis Set:
  @DF-RHF Final Energy:  -457.50785038773523
    Total Energy =                       -457.5078503877348339
    Molecular point group: c1
  Basis Set: CC-PVTZ
  Basis Set:
  Basis Set: CC-PVTZ
  Basis Set:
  @DF-RHF Final Energy:  -457.50585977325392
    Total Energy =                       -457.5058597732537464
  Basis Set: CC-PVTZ
  Basis Set:
  Basis Set: CC-PVTZ
  Basis Set:
  @DF-RHF Final Energy:  -457.50794389948408
    Total Energy =                       -457.5079438994840757
  Basis Set: CC-PVTZ
  Basis Set:
  Basis Set: CC-PVTZ
  Basis Set:
  @DF-RHF Final Energy:  -457.50807363885292
    Total Energy =                       -457.5080736388525793
  Basis Set: CC-PVTZ
  Basis Set:
  Basis Set: CC-PVTZ
  Basis Set:
  @DF-RHF Final Energy:  -457.50808108108225
    Total Energy =                       -457.5080810810820822
  Basis Set: CC-PVTZ
  Basis Set:
  Charge       = 0
  Multiplicity = 1
  Basis Set: CC-PVTZ
  Basis Set:

    Orbital Energies (a.u.)
    -----------------------

    Doubly Occupied:

       1A    -20.601761     2A    -20.535652     3A    -11.372056
       4A    -11.281468     5A    -11.246103     6A    -11.242854
       7A    -11.242455     8A    -11.240812     9A    -11.236713
      10A    -11.236010    11A     -1.477483    12A     -1.369235
      13A     -1.171284    14A     -1.052269    15A     -1.029464
      16A     -0.980847    17A     -0.863239    18A     -0.839698
      19A     -0.781795    20A     -0.744180    21A     -0.687979
      22A     -0.682213    23A     -0.678092    24A     -0.633701
      25A     -0.631656    26A     -0.601024    27A     -0.589932
      28A     -0.561240    29A     -0.533960    30A     -0.519990
      31A     -0.511021    32A     -0.503717    33A     -0.463682
      34A     -0.449563    35A     -0.349662    36A     -0.346788

  @DF-RHF Final Energy:  -457.50808147169107

   => Energetics <=

    Nuclear Repulsion Energy =            493.8766871849803692
    One-Electron Energy =               -1602.1903330742848084
    Two-Electron Energy =                 650.8055644176138230
    DFT Exchange-Correlation Energy =       0.0000000000000000
    Empirical Dispersion Energy =           0.0000000000000000
    PCM Polarization Energy =               0.0000000000000000
    EFP Energy =                            0.0000000000000000
    Total Energy =                       -457.5080814716907298
    Molecular point group: c1
  Basis Set: CC-PVTZ
  Basis Set:

  -Total Gradient:
     Atom            X                  Y                   Z
    ------   -----------------  -----------------  -----------------
       1       -0.000001728640     0.000005208192     0.000002959391
       2        0.000009967722    -0.000051816023    -0.000011630420
       3        0.000045272678     0.000034288465     0.000001236712
       4       -0.000047771637     0.000014332066     0.000007911313
       5       -0.000006539357    -0.000001893418     0.000000333047
       6       -0.000106244882    -0.000016967313     0.003565790483
       7        0.000001979748    -0.000000425639    -0.000000610964
       8        0.000016433035     0.000033882588    -0.000009173099
       9        0.000004724792    -0.000002205750     0.000000088776
      10       -0.000091892586     0.000572372967    -0.004068566496
      11       -0.000004809282    -0.000000422534     0.000001659391
      12        0.000492699924    -0.002374008057    -0.002549437427
      13       -0.000389861184     0.001826569633     0.003050568854
      14        0.000049181389    -0.000037754961     0.000013412312
      15        0.000038228172    -0.000013154605    -0.000005608507
      16       -0.000003879872     0.000000680386    -0.000001461258
      17        0.000004993327     0.000006561624    -0.000000135092
      18       -0.000010753340     0.000004752380     0.000002662982

  **** Optimization is complete! (in 6 steps) ****
    Final optimized geometry and variables:
    Molecular point group: c1

    Geometry (in Angstrom), charge = 0, multiplicity = 1:

    H           -4.014322551272    -0.496012666917    -0.073426080562
    C           -2.953453433695    -0.333019344240    -0.082050647807
    C           -2.453543407634     0.956395843629    -0.090101788865
    C           -2.090145189050    -1.412606367346    -0.080743712662
    H           -3.123752305762     1.794050541457    -0.082883059539
    C           -1.089631117613     1.165860664460    -0.109337945304
    H           -2.478475870310    -2.412672908790    -0.072651341946
    C           -0.724896182991    -1.204542711756    -0.079324734360
    H           -0.687822437446     2.159029092654    -0.129025845915
    C           -0.222406592206     0.085746314731    -0.110499539328
    H           -0.052573568500    -2.038199228496    -0.057936305660
    C            1.243874216066     0.357998773207    -0.094750771339
    O            1.933207083580    -0.589719844793     0.511932992543
    O            1.738571421593     1.337305997622    -0.542162643529
    C            3.336896931943    -0.428150741015     0.572280904514
    H            3.756725772873    -0.370953355869    -0.420901093712
    H            3.713032666240    -1.296713498834     1.087689461808
    H            3.591550249276     0.468863392356     1.116295691834

  Mulliken Charges: (a.u.)
   Center  Symbol    Alpha    Beta     Spin     Total
       1     H     0.42058  0.42058  0.00000  0.15884
       2     C     3.07324  3.07324  0.00000 -0.14647
       3     C     3.07227  3.07227  0.00000 -0.14453
       4     C     3.07225  3.07225  0.00000 -0.14449
       5     H     0.42074  0.42074  0.00000  0.15852
       6     C     3.08393  3.08393  0.00000 -0.16785
       7     H     0.42176  0.42176  0.00000  0.15649
       8     C     3.08455  3.08455  0.00000 -0.16911
       9     H     0.40976  0.40976  0.00000  0.18048
      10     C     2.97554  2.97554  0.00000  0.04892
      11     H     0.41526  0.41526  0.00000  0.16947
      12     C     2.81011  2.81011  0.00000  0.37978
      13     O     4.14604  4.14604  0.00000 -0.29208
      14     O     4.20777  4.20777  0.00000 -0.41553
      15     C     3.03664  3.03664  0.00000 -0.07327
      16     H     0.45345  0.45345  0.00000  0.09310
      17     H     0.44436  0.44436  0.00000  0.11128
      18     H     0.45177  0.45177  0.00000  0.09646

   Total alpha = 36.00000, Total beta = 36.00000, Total charge =  0.00000

*** Psi4 exiting successfully. Buy a developer a beer!
