                              Psi4 1.0.54 Driver

  ==> Input File <==

--------------------------------------------------------------------------
set {
	reference rhf
	basis cc-pvtz
}

set_num_threads( 4 )
memory 2 gb

molecule MOL {
0 1

O	 0.466542	 1.126552	 -1.059144
C	 0.401738	 0.054547	 -0.560692
C	 1.535763	 -0.936016	 -0.479248
O	 -0.695554	 -0.422406	 0.000602
C	 2.823725	 -0.433919	 -1.111722
H	 1.195942	 -1.852216	 -0.949407
H	 1.677771	 -1.175858	 0.568724
H	 2.681606	 -0.211623	 -2.160819
H	 3.599022	 -1.185189	 -1.023078
H	 3.167829	 0.470900	 -0.628897
C	 -1.852370	 0.402254	 0.000718
C	 -3.063338	 -0.501097	 -0.000437
H	 -1.831732	 1.039442	 -0.872158
H	 -1.832493	 1.038301	 0.874430
H	 -3.071944	 -1.133732	 -0.879113
H	 -3.966302	 0.097976	 -0.000483
H	 -3.072764	 -1.134834	 0.877435

	symmetry c1
}
set optking {
	frozen_dihedral = ("
		2 4 11 13
	")
}

ee,wfn = optimize('scf', return_wfn=True)
oeprop( wfn, 'DIPOLE', 'QUADRUPOLE', 'MULLIKEN_CHARGES')
f=open( 'psi4out.xyz', 'w' )
f.write( "17  " )
f.write( str(ee) + "\n" )
f.write( MOL.save_string_xyz() )
f.close()
--------------------------------------------------------------------------

    Molecular point group: c1
  Charge       = 0
  Multiplicity = 1
  Basis Set: CC-PVTZ
  Basis Set:
  @DF-RHF Final Energy:  -345.03932051002113
    Total Energy =                       -345.0393205100209570
    Molecular point group: c1
  Basis Set: CC-PVTZ
  Basis Set:
  Basis Set: CC-PVTZ
  Basis Set:
  @DF-RHF Final Energy:  -345.03942535525243
    Total Energy =                       -345.0394253552524333
  Basis Set: CC-PVTZ
  Basis Set:
  Basis Set: CC-PVTZ
  Basis Set:
  @DF-RHF Final Energy:  -345.03935517563059
    Total Energy =                       -345.0393551756304760
  Basis Set: CC-PVTZ
  Basis Set:
  Basis Set: CC-PVTZ
  Basis Set:
  @DF-RHF Final Energy:  -345.03957121844076
    Total Energy =                       -345.0395712184407557
  Basis Set: CC-PVTZ
  Basis Set:
  Charge       = 0
  Multiplicity = 1
  Basis Set: CC-PVTZ
  Basis Set:

    Orbital Energies (a.u.)
    -----------------------

    Doubly Occupied:

       1A    -20.592852     2A    -20.532548     3A    -11.364153
       4A    -11.281904     5A    -11.235615     6A    -11.220526
       7A    -11.213593     8A     -1.469185     9A     -1.365132
      10A     -1.070695    11A     -1.032323    12A     -0.912650
      13A     -0.848555    14A     -0.773672    15A     -0.700796
      16A     -0.688859    17A     -0.666502    18A     -0.629554
      19A     -0.587978    20A     -0.572546    21A     -0.558118
      22A     -0.527760    23A     -0.520592    24A     -0.515437
      25A     -0.502619    26A     -0.494036    27A     -0.454174
      28A     -0.438844

  @DF-RHF Final Energy:  -345.03957429824965

   => Energetics <=

    Nuclear Repulsion Energy =            315.2111813681160015
    One-Electron Energy =               -1094.9590786063440646
    Two-Electron Energy =                 434.7083229399781885
    DFT Exchange-Correlation Energy =       0.0000000000000000
    Empirical Dispersion Energy =           0.0000000000000000
    PCM Polarization Energy =               0.0000000000000000
    EFP Energy =                            0.0000000000000000
    Total Energy =                       -345.0395742982498177
    Molecular point group: c1
  Basis Set: CC-PVTZ
  Basis Set:

  -Total Gradient:
     Atom            X                  Y                   Z
    ------   -----------------  -----------------  -----------------
       1       -0.000158150477    -0.000095510593     0.000114512523
       2       -0.000244668565    -0.000524057083    -0.001404027076
       3       -0.000002459804    -0.000022718385    -0.000001811070
       4        0.000718262711     0.001297448591     0.002129266990
       5        0.000009528936    -0.000002291224    -0.000002064176
       6        0.000015299842    -0.000012507184     0.000012347215
       7        0.000006253865    -0.000006473991     0.000005734322
       8        0.000004062329    -0.000000631594     0.000000220218
       9       -0.000002488851    -0.000001493331     0.000000049154
      10       -0.000004842591    -0.000005672054    -0.000001273580
      11       -0.001248848566    -0.001737019039    -0.001855900769
      12       -0.000026530319    -0.000008414345     0.000046217211
      13        0.000841097514     0.001125560264     0.000920352090
      14        0.000070155125    -0.000014903562     0.000056286788
      15        0.000023576277     0.000002873271    -0.000017427955
      16        0.000009154822     0.000003456618     0.000003856923
      17       -0.000009402250     0.000002353642    -0.000006338809

  **** Optimization is complete! (in 5 steps) ****
    Final optimized geometry and variables:
    Molecular point group: c1

    Geometry (in Angstrom), charge = 0, multiplicity = 1:

    O            0.577456443606     1.242548229429    -0.565717240896
    C            0.478073767803     0.160691798572    -0.095600798112
    C            1.588119902086    -0.857943433121    -0.023664796191
    O           -0.634677064931    -0.308917015354     0.442202759575
    C            2.896475872169    -0.370786870722    -0.625184952252
    H            1.234464346146    -1.754527176485    -0.520528740254
    H            1.709224056631    -1.126098358985     1.020065549791
    H            2.775226818779    -0.119839533450    -1.670432594637
    H            3.652828640983    -1.141965416715    -0.544007065720
    H            3.254103114086     0.513712601052    -0.115351270267
    C           -1.802200607881     0.501982929525     0.431680245758
    C           -3.009732432584    -0.406320333215     0.444620973498
    H           -1.783912178920     1.145207611455    -0.433063231234
    H           -1.780791396837     1.133739659742     1.310955899478
    H           -3.033983372075    -1.026905274492    -0.442507413681
    H           -3.914896492618     0.189020709816     0.471446779322
    H           -2.998924452619    -1.051836344633     1.313763166338

  Mulliken Charges: (a.u.)
   Center  Symbol    Alpha    Beta     Spin     Total
       1     O     4.19777  4.19777  0.00000 -0.39554
       2     C     2.80529  2.80529  0.00000  0.38943
       3     C     3.09473  3.09473  0.00000 -0.18947
       4     O     4.15335  4.15335  0.00000 -0.30670
       5     C     3.13995  3.13995  0.00000 -0.27990
       6     H     0.44207  0.44207  0.00000  0.11586
       7     H     0.44132  0.44132  0.00000  0.11736
       8     H     0.44860  0.44860  0.00000  0.10280
       9     H     0.45061  0.45061  0.00000  0.09877
      10     H     0.44838  0.44838  0.00000  0.10323
      11     C     2.98504  2.98504  0.00000  0.02992
      12     C     3.13253  3.13253  0.00000 -0.26506
      13     H     0.44635  0.44635  0.00000  0.10730
      14     H     0.45640  0.45640  0.00000  0.08720
      15     H     0.45190  0.45190  0.00000  0.09620
      16     H     0.45445  0.45445  0.00000  0.09110
      17     H     0.45124  0.45124  0.00000  0.09751

   Total alpha = 28.00000, Total beta = 28.00000, Total charge = -0.00000

*** Psi4 exiting successfully. Buy a developer a beer!
