  ==> Input File <==

--------------------------------------------------------------------------
set {
	reference rhf
	basis 6-31G*
}

set_num_threads( 4 )
memory 2 gb

molecule MOL {
0 1

O	 0.391030	 1.298905	 0.000133
C	 0.503002	 0.111612	 0.000005
C	 -0.702327	 -0.811998	 -0.000075
C	 1.863306	 -0.554493	 0.000030
C	 -1.967109	 -0.165327	 0.551554
H	 -0.857965	 -1.157779	 -1.020361
H	 -0.441696	 -1.701171	 0.571071
H	 -2.243018	 0.705718	 -0.030147
H	 -2.792673	 -0.868967	 0.527237
H	 -1.823060	 0.157507	 1.575394
H	 1.974395	 -1.189404	 -0.874166
H	 2.638695	 0.198920	 -0.000196
H	 1.974487	 -1.188655	 0.874727

	symmetry c1
}
set optking {
	frozen_dihedral = ("
		6 3 2 1
	")
}

ee = optimize('scf')
oeprop('DIPOLE', 'QUADRUPOLE', 'MULLIKEN_CHARGES')
f=open( 'psi4out.xyz', 'w' )
f.write( "13  " )
f.write( str(ee) + "\n" )
f.write( MOL.save_string_xyz() )
f.close()
--------------------------------------------------------------------------

    Molecular point group: c1
  Charge       = 0
  Multiplicity = 1
  Basis Set: 6-31G*
  Basis Set:
  @DF-RHF Final Energy:  -230.99699598607631
    Total Energy =                       -230.9969959860762572
    Molecular point group: c1
  Basis Set: 6-31G*
  Basis Set:
  Basis Set: 6-31G*
  Basis Set:
  @DF-RHF Final Energy:  -230.99573738209344
    Total Energy =                       -230.9957373820933526
  Basis Set: 6-31G*
  Basis Set:
  Basis Set: 6-31G*
  Basis Set:
  @DF-RHF Final Energy:  -230.99719028907094
    Total Energy =                       -230.9971902890711704
  Basis Set: 6-31G*
  Basis Set:
  Basis Set: 6-31G*
  Basis Set:
  @DF-RHF Final Energy:  -230.99734025164770
    Total Energy =                       -230.9973402516475005
  Basis Set: 6-31G*
  Basis Set:
  Basis Set: 6-31G*
  Basis Set:
  @DF-RHF Final Energy:  -230.99735714985931
    Total Energy =                       -230.9973571498592264
  Basis Set: 6-31G*
  Basis Set:
  Basis Set: 6-31G*
  Basis Set:
  @DF-RHF Final Energy:  -230.99736803520338
    Total Energy =                       -230.9973680352032659
  Basis Set: 6-31G*
  Basis Set:
  Charge       = 0
  Multiplicity = 1
  Basis Set: 6-31G*
  Basis Set:

    Orbital Energies (a.u.)
    -----------------------

    Doubly Occupied:

       1A    -20.550627     2A    -11.327012     3A    -11.234910
       4A    -11.229346     5A    -11.215157     6A     -1.396375
       7A     -1.061500     8A     -1.000492     9A     -0.878282
      10A     -0.730127    11A     -0.658384    12A     -0.641007
      13A     -0.619788    14A     -0.584689    15A     -0.570682
      16A     -0.522323    17A     -0.515817    18A     -0.506313
      19A     -0.483503    20A     -0.402320

  @DF-RHF Final Energy:  -230.99736822096463

   => Energetics <=

    Nuclear Repulsion Energy =            176.9115316063996488
    One-Electron Energy =                -663.5604921187073160
    Two-Electron Energy =                 255.6515922913429222
    DFT Exchange-Correlation Energy =       0.0000000000000000
    Empirical Dispersion Energy =           0.0000000000000000
    PCM Polarization Energy =               0.0000000000000000
    EFP Energy =                            0.0000000000000000
    Total Energy =                       -230.9973682209647450
    Molecular point group: c1
  Basis Set: 6-31G*
  Basis Set:

  -Total Gradient:
     Atom            X                  Y                   Z
    ------   -----------------  -----------------  -----------------
       1       -0.000025836801     0.000023851530    -0.001253954022
       2       -0.000128338598     0.000166071400     0.001739847332
       3        0.000873602489    -0.001151381123    -0.000308686592
       4       -0.000008582224     0.000003166654    -0.000004566973
       5        0.000006330210     0.000006093105     0.000007223429
       6       -0.000725006519     0.000956383702    -0.000178504928
       7        0.000009601181     0.000003761692    -0.000001609129
       8       -0.000005731069     0.000009302718    -0.000001052962
       9        0.000008958673     0.000001710479    -0.000003979071
      10       -0.000004239638     0.000001225364     0.000001809208
      11        0.000000949480    -0.000005034820    -0.000001717861
      12       -0.000001395384    -0.000009602833     0.000001088881
      13       -0.000000311801    -0.000005547869     0.000004102688

  **** Optimization is complete! (in 7 steps) ****
    Final optimized geometry and variables:
    Molecular point group: c1

    Geometry (in Angstrom), charge = 0, multiplicity = 1:

    O            0.375121872699     1.314970879833    -0.049770835406
    C            0.492306347574     0.128846489754    -0.092674578130
    C           -0.712751468099    -0.795619814265    -0.124460525597
    C            1.852918645619    -0.531397823423    -0.150741619434
    C           -1.989180477450    -0.146727306400     0.401365969800
    H           -0.848044036542    -1.089959750502    -1.164780486228
    H           -0.482423882256    -1.708104194400     0.418754269756
    H           -2.224506303920     0.748452739951    -0.159124040933
    H           -2.824395419950    -0.834446261414     0.321022248346
    H           -1.882372401288     0.135153230410     1.443094632706
    H            1.892683177507    -1.268092452058    -0.947538277749
    H            2.618993478725     0.216212503199    -0.302353810847
    H            2.043857620742    -1.055282436262     0.782074018159

  Mulliken Charges: (a.u.)
   Center  Symbol    Alpha    Beta     Spin     Total
       1     O     4.26130  4.26130  0.00000 -0.52259
       2     C     2.73568  2.73568  0.00000  0.52864
       3     C     3.20773  3.20773  0.00000 -0.41546
       4     C     3.28783  3.28783  0.00000 -0.57565
       5     C     3.23715  3.23715  0.00000 -0.47431
       6     H     0.40527  0.40527  0.00000  0.18945
       7     H     0.41267  0.41267  0.00000  0.17466
       8     H     0.40486  0.40486  0.00000  0.19028
       9     H     0.41919  0.41919  0.00000  0.16161
      10     H     0.41518  0.41518  0.00000  0.16963
      11     H     0.41002  0.41002  0.00000  0.17996
      12     H     0.39663  0.39663  0.00000  0.20675
      13     H     0.40649  0.40649  0.00000  0.18702

   Total alpha = 20.00000, Total beta = 20.00000, Total charge =  0.00000
