  ==> Input File <==

--------------------------------------------------------------------------
set {
	reference rhf
	basis 6-31G*
}

set_num_threads( 4 )
memory 2 gb

molecule MOL {
0 1

O	 -3.108977	 0.724125	 -0.931673
C	 -2.668563	 0.129746	 -0.000350
C	 -3.397819	 -0.041957	 1.307309
O	 -1.481751	 -0.454642	 0.000584
H	 -4.343095	 -0.535745	 1.116290
H	 -2.821061	 -0.615156	 2.018106
H	 -3.616402	 0.937779	 1.715009
C	 -0.334255	 0.388708	 0.000906
C	 0.891947	 -0.504646	 0.000751
H	 -0.365390	 1.025305	 -0.873475
H	 -0.365484	 1.024911	 0.875569
C	 2.191998	 0.301789	 0.000897
H	 0.855148	 -1.151283	 -0.871571
H	 0.855132	 -1.151660	 0.872805
C	 3.441114	 -0.581407	 0.000108
H	 2.215074	 0.954890	 -0.869742
H	 2.215465	 0.953923	 0.872248
C	 4.739576	 0.224112	 -0.001102
H	 3.419457	 -1.233487	 -0.870178
H	 3.420834	 -1.233096	 0.870717
H	 4.804918	 0.861552	 -0.878265
H	 5.606527	 -0.429058	 -0.001824
H	 4.806469	 0.861674	 0.875853

	symmetry c1
}
set optking {
	frozen_dihedral = ("
		1 2 4 8
	")
}

ee = optimize('scf')
oeprop('DIPOLE', 'QUADRUPOLE', 'MULLIKEN_CHARGES')
f=open( 'psi4out.xyz', 'w' )
f.write( "23  " )
f.write( str(ee) + "\n" )
f.write( MOL.save_string_xyz() )
f.close()
--------------------------------------------------------------------------

    Molecular point group: c1
  Charge       = 0
  Multiplicity = 1
  Basis Set: 6-31G*
  Basis Set:
  @DF-RHF Final Energy:  -422.96063867285181
    Total Energy =                       -422.9606386728518146
    Molecular point group: c1
  Basis Set: 6-31G*
  Basis Set:
  Basis Set: 6-31G*
  Basis Set:
  @DF-RHF Final Energy:  -422.95915093581209
    Total Energy =                       -422.9591509358120902
  Basis Set: 6-31G*
  Basis Set:
  Basis Set: 6-31G*
  Basis Set:
  @DF-RHF Final Energy:  -422.96168572074305
    Total Energy =                       -422.9616857207432759
  Basis Set: 6-31G*
  Basis Set:
  Basis Set: 6-31G*
  Basis Set:
  @DF-RHF Final Energy:  -422.96189300274472
    Total Energy =                       -422.9618930027435226
  Basis Set: 6-31G*
  Basis Set:
  @DF-RHF Final Energy:  -422.96190213986392
    Total Energy =                       -422.9619021398639234
  @DF-RHF Final Energy:  -422.96190849573873
    Total Energy =                       -422.9619084957379300
  @DF-RHF Final Energy:  -422.96191034550668
    Total Energy =                       -422.9619103455064533
  @DF-RHF Final Energy:  -422.95968207462198
    Total Energy =                       -422.9596820746214689
  @DF-RHF Final Energy:  -422.96190786275753
    Total Energy =                       -422.9619078627580393
  @DF-RHF Final Energy:  -422.96193585781469
    Total Energy =                       -422.9619358578145238
  @DF-RHF Final Energy:  -422.96197887961512
    Total Energy =                       -422.9619788796154580
  @DF-RHF Final Energy:  -422.96203880120419
    Total Energy =                       -422.9620388012041303
  @DF-RHF Final Energy:  -422.96208258510774
    Total Energy =                       -422.9620825851085328
  @DF-RHF Final Energy:  -422.96206901277390
    Total Energy =                       -422.9620690127738953
  @DF-RHF Final Energy:  -422.96207279115390
    Total Energy =                       -422.9620727911534459
  @DF-RHF Final Energy:  -422.96211153327988
    Total Energy =                       -422.9621115332797672
  @DF-RHF Final Energy:  -422.96214842114205
    Total Energy =                       -422.9621484211422739
  @DF-RHF Final Energy:  -422.96192704563180
    Total Energy =                       -422.9619270456313416
  @DF-RHF Final Energy:  -422.96178002168142
    Total Energy =                       -422.9617800216823298
  @DF-RHF Final Energy:  -422.96220674199714
    Total Energy =                       -422.9622067419971927
  @DF-RHF Final Energy:  -422.96391261826517
    Total Energy =                       -422.9639126182651125
  @DF-RHF Final Energy:  -422.96396398027963
    Total Energy =                       -422.9639639802796864
  @DF-RHF Final Energy:  -422.96398398596034
    Total Energy =                       -422.9639839859603399
  @DF-RHF Final Energy:  -422.96399013437315
    Total Energy =                       -422.9639901343731481
  @DF-RHF Final Energy:  -422.96399529048307
    Total Energy =                       -422.9639952904824440
  @DF-RHF Final Energy:  -422.96399772302664
    Total Energy =                       -422.9639977230264094
  @DF-RHF Final Energy:  -422.96399642290379
    Total Energy =                       -422.9639964229038469
  @DF-RHF Final Energy:  -422.96399911974390
    Total Energy =                       -422.9639991197444715
  @DF-RHF Final Energy:  -422.96399966931000
    Total Energy =                       -422.9639996693094872
  @DF-RHF Final Energy:  -422.96399985286439
    Total Energy =                       -422.9639998528645037
  @DF-RHF Final Energy:  -422.96399838723869
    Total Energy =                       -422.9639983872376661
  @DF-RHF Final Energy:  -422.96400015915560
    Total Energy =                       -422.9640001591557166
  @DF-RHF Final Energy:  -422.96400028055643
    Total Energy =                       -422.9640002805564336
  @DF-RHF Final Energy:  -422.96400031344524
    Total Energy =                       -422.9640003134459221
  @DF-RHF Final Energy:  -422.96400028019235
    Total Energy =                       -422.9640002801925220
  @DF-RHF Final Energy:  -422.96400008147941
    Total Energy =                       -422.9640000814787300
  Basis Set: 6-31G*
  Basis Set:
  @DF-RHF Final Energy:  -422.96400028239827
    Total Energy =                       -422.9640002823980467
  Basis Set: 6-31G*
  Basis Set:
  Basis Set: 6-31G*
  Basis Set:
  @DF-RHF Final Energy:  -422.96400029857608
    Total Energy =                       -422.9640002985761384
  Basis Set: 6-31G*
  Basis Set:
  Basis Set: 6-31G*
  Basis Set:
  @DF-RHF Final Energy:  -422.96400027768846
    Total Energy =                       -422.9640002776883421
  Basis Set: 6-31G*
  Basis Set:
  Charge       = 0
  Multiplicity = 1
  Basis Set: 6-31G*
  Basis Set:

    Orbital Energies (a.u.)
    -----------------------

    Doubly Occupied:

       1A    -20.584076     2A    -20.553891     3A    -11.376196
       4A    -11.289561     5A    -11.235235     6A    -11.225917
       7A    -11.225233     8A    -11.222712     9A    -11.213944
      10A     -1.457919    11A     -1.364630    12A     -1.094399
      13A     -1.038702    14A     -1.006739    15A     -0.932540
      16A     -0.841754    17A     -0.804041    18A     -0.773596
      19A     -0.697273    20A     -0.684352    21A     -0.655389
      22A     -0.648308    23A     -0.616308    24A     -0.589938
      25A     -0.583591    26A     -0.572800    27A     -0.558177
      28A     -0.548307    29A     -0.514270    30A     -0.502808
      31A     -0.493423    32A     -0.478893    33A     -0.472778
      34A     -0.470437    35A     -0.449510    36A     -0.433684

  @DF-RHF Final Energy:  -422.96400025357332

   => Energetics <=

    Nuclear Repulsion Energy =            448.6649617194365192
    One-Electron Energy =               -1464.8352611234745382
    Two-Electron Energy =                 593.2062991504647016
    DFT Exchange-Correlation Energy =       0.0000000000000000
    Empirical Dispersion Energy =           0.0000000000000000
    PCM Polarization Energy =               0.0000000000000000
    EFP Energy =                            0.0000000000000000
    Total Energy =                       -422.9640002535733174
    Molecular point group: c1
  Basis Set: 6-31G*
  Basis Set:

  -Total Gradient:
     Atom            X                  Y                   Z
    ------   -----------------  -----------------  -----------------
       1       -0.002696339184    -0.005609921807    -0.001453999726
       2        0.003580311383     0.008309249964     0.004521710442
       3       -0.000013133366     0.000287569458     0.000029638527
       4       -0.000790716238    -0.003730068113    -0.008467615403
       5        0.000011762737     0.000007145980     0.000018161558
       6        0.000024688997     0.000008398231     0.000007404396
       7        0.000013840511     0.000001836667     0.000012304852
       8       -0.000153497662     0.000712290832     0.005345896759
       9        0.000014831060     0.000008190514    -0.000008560415
      10       -0.000011040303    -0.000006355063    -0.000004250437
      11       -0.000000654365     0.000010243261     0.000001261588
      12        0.000009908822    -0.000011085533     0.000000256959
      13       -0.000001916229    -0.000002809955    -0.000000352627
      14       -0.000002338681     0.000008209973    -0.000006159821
      15        0.000007537355     0.000009457909     0.000014283838
      16       -0.000002518815     0.000000814197    -0.000002841751
      17        0.000004870360    -0.000001784260    -0.000000471253
      18        0.000004191752    -0.000004175408    -0.000009266060
      19        0.000001123839     0.000007557718     0.000001757868
      20       -0.000002993698    -0.000005947462     0.000002995016
      21        0.000003211584     0.000003366407    -0.000001186308
      22        0.000002097016     0.000001345438    -0.000000364196
      23       -0.000003226871    -0.000003528947    -0.000000603805

    Molecular point group: c1

    Geometry (in Angstrom), charge = 0, multiplicity = 1:

    O           -3.095135428875     0.511036977426    -1.066163038437
    C           -2.694636257705     0.065600206967    -0.046305901074
    C           -3.494932156107    -0.016906800822     1.224617326039
    O           -1.479281541788    -0.507308485944     0.067822617821
    H           -4.476331743749     0.409162043026     1.077394363324
    H           -3.579784345427    -1.054445045022     1.527892389975
    H           -2.976334382941     0.509765287852     2.019033991119
    C           -0.348135683658     0.349377885126    -0.020804241800
    C            0.898976905478    -0.512977144375     0.017390705497
    H           -0.403097848540     0.919532676107    -0.939921264547
    H           -0.362759904892     1.043440395748     0.815377455030
    C            2.181805677686     0.316797884511    -0.059172026672
    H            0.855719524183    -1.214528579614    -0.810306113705
    H            0.887509268972    -1.101206224433     0.930530166114
    C            3.448046415016    -0.541120685592    -0.025556786331
    H            2.176814950546     0.911147344025    -0.971127133457
    H            2.208482801648     1.025138595237     0.767424617462
    C            4.729953016831     0.286894337691    -0.102438560232
    H            3.424172247177    -1.248271081023    -0.851446047139
    H            3.455299103472    -1.135285951585     0.885464356062
    H            4.767828426751     0.866924693279    -1.020093919949
    H            5.609437930216    -0.348690533799    -0.076714227634
    H            4.799294903061     0.981278255447     0.730140287479

  Mulliken Charges: (a.u.)
   Center  Symbol    Alpha    Beta     Spin     Total
       1     O     4.25682  4.25682  0.00000 -0.51364
       2     C     2.62315  2.62315  0.00000  0.75371
       3     C     3.28489  3.28489  0.00000 -0.56979
       4     O     4.32165  4.32165  0.00000 -0.64330
       5     H     0.39780  0.39780  0.00000  0.20440
       6     H     0.39796  0.39796  0.00000  0.20408
       7     H     0.40631  0.40631  0.00000  0.18737
       8     C     2.99485  2.99485  0.00000  0.01030
       9     C     3.16389  3.16389  0.00000 -0.32778
      10     H     0.40813  0.40813  0.00000  0.18375
      11     H     0.42473  0.42473  0.00000  0.15055
      12     C     3.16085  3.16085  0.00000 -0.32170
      13     H     0.40971  0.40971  0.00000  0.18058
      14     H     0.41395  0.41395  0.00000  0.17209
      15     C     3.15156  3.15156  0.00000 -0.30312
      16     H     0.42009  0.42009  0.00000  0.15982
      17     H     0.42258  0.42258  0.00000  0.15484
      18     C     3.23994  3.23994  0.00000 -0.47988
      19     H     0.42019  0.42019  0.00000  0.15961
      20     H     0.42137  0.42137  0.00000  0.15726
      21     H     0.42056  0.42056  0.00000  0.15887
      22     H     0.41761  0.41761  0.00000  0.16479
      23     H     0.42141  0.42141  0.00000  0.15719

   Total alpha = 36.00000, Total beta = 36.00000, Total charge = -0.00000
