                              Psi4 1.0.54 Driver

  ==> Input File <==

--------------------------------------------------------------------------
set {
	reference rhf
	basis cc-pvtz
}

set_num_threads( 4 )
memory 2 gb

molecule MOL {
0 1

H	 3.273419	 0.176595	 -0.102789
N	 2.433987	 -0.362316	 -0.080024
C	 1.263552	 0.494993	 0.021953
H	 2.497638	 -0.973615	 0.707122
C	 -0.016533	 -0.325589	 -0.026925
H	 1.280915	 1.180773	 -0.818522
H	 1.263064	 1.106893	 0.925038
C	 -1.280353	 0.525521	 0.047747
H	 -0.016686	 -0.912532	 -0.939714
H	 -0.014099	 -1.037598	 0.796369
C	 -1.127528	 1.881644	 -0.633110
H	 -1.550681	 0.675864	 1.089517
H	 -2.107871	 -0.012782	 -0.406475
H	 -0.329073	 2.458894	 -0.179258
H	 -2.039308	 2.463224	 -0.559819
H	 -0.892565	 1.766390	 -1.686054

	symmetry c1
}
set optking {
	frozen_dihedral = ("
		12 8 5 9
	")
}

ee,wfn = optimize('scf', return_wfn=True)
oeprop( wfn, 'DIPOLE', 'QUADRUPOLE', 'MULLIKEN_CHARGES')
f=open( 'psi4out.xyz', 'w' )
f.write( "16  " )
f.write( str(ee) + "\n" )
f.write( MOL.save_string_xyz() )
f.close()
--------------------------------------------------------------------------

    Molecular point group: c1
  Charge       = 0
  Multiplicity = 1
  Basis Set: CC-PVTZ
  Basis Set:
  @DF-RHF Final Energy:  -212.39316310700161
    Total Energy =                       -212.3931631070014987
    Molecular point group: c1
  Basis Set: CC-PVTZ
  Basis Set:
  Basis Set: CC-PVTZ
  Basis Set:
  @DF-RHF Final Energy:  -212.39392835574114
    Total Energy =                       -212.3939283557411386
  Basis Set: CC-PVTZ
  Basis Set:
  Basis Set: CC-PVTZ
  Basis Set:
  @DF-RHF Final Energy:  -212.39570500261337
    Total Energy =                       -212.3957050026136812
  Basis Set: CC-PVTZ
  Basis Set:
  Basis Set: CC-PVTZ
  Basis Set:
  @DF-RHF Final Energy:  -212.39581612210020
    Total Energy =                       -212.3958161221001433
  Basis Set: CC-PVTZ
  Basis Set:
  Basis Set: CC-PVTZ
  Basis Set:
  @DF-RHF Final Energy:  -212.39582609236729
    Total Energy =                       -212.3958260923674288
  Basis Set: CC-PVTZ
  Basis Set:
  Basis Set: CC-PVTZ
  Basis Set:
  @DF-RHF Final Energy:  -212.39582914566364
    Total Energy =                       -212.3958291456637539
  Basis Set: CC-PVTZ
  Basis Set:
  Charge       = 0
  Multiplicity = 1
  Basis Set: CC-PVTZ
  Basis Set:

    Orbital Energies (a.u.)
    -----------------------

    Doubly Occupied:

       1A    -15.526428     2A    -11.237842     3A    -11.213312
       4A    -11.208215     5A    -11.206431     6A     -1.178359
       7A     -1.058210     8A     -0.955575     9A     -0.863697
      10A     -0.775833    11A     -0.665232    12A     -0.633736
      13A     -0.607894    14A     -0.591221    15A     -0.548326
      16A     -0.528413    17A     -0.516667    18A     -0.467614
      19A     -0.459066    20A     -0.457282    21A     -0.383786

  @DF-RHF Final Energy:  -212.39582923904700

   => Energetics <=

    Nuclear Repulsion Energy =            189.2415661318864011
    One-Electron Energy =                -661.1085152690393443
    Two-Electron Energy =                 259.4711198981056555
    DFT Exchange-Correlation Energy =       0.0000000000000000
    Empirical Dispersion Energy =           0.0000000000000000
    PCM Polarization Energy =               0.0000000000000000
    EFP Energy =                            0.0000000000000000
    Total Energy =                       -212.3958292390472593
    Molecular point group: c1
  Basis Set: CC-PVTZ
  Basis Set:

  -Total Gradient:
     Atom            X                  Y                   Z
    ------   -----------------  -----------------  -----------------
       1        0.000000718711     0.000000496841    -0.000000871283
       2        0.000002007339     0.000001205333    -0.000016991349
       3       -0.000002149726    -0.000000944024     0.000042207412
       4       -0.000005798607     0.000006015184    -0.000001254304
       5        0.002298193132     0.004124042532    -0.003321394676
       6       -0.000000430444    -0.000008170914    -0.000000606974
       7        0.000009649863     0.000010966660     0.000001356883
       8        0.003159840392     0.004626134492     0.000780434018
       9       -0.002446389033    -0.004192978110     0.002642298120
      10        0.000005590505     0.000005778188    -0.000002236310
      11        0.000000109420     0.000001888554    -0.000005900346
      12       -0.003019604272    -0.004581191976    -0.000115396749
      13       -0.000002185630     0.000001335297     0.000000939802
      14       -0.000003805740     0.000000642330     0.000000239215
      15        0.000000511657     0.000000416602    -0.000001745393
      16        0.000003742433     0.000004363014    -0.000001078065

  **** Optimization is complete! (in 7 steps) ****
    Final optimized geometry and variables:
    Molecular point group: c1

    Geometry (in Angstrom), charge = 0, multiplicity = 1:

    H            3.029009117922    -0.398176098937     0.072694643067
    N            2.160126362941    -0.888557798451     0.063445639073
    C            1.037345607019     0.032268614314     0.143449925590
    H            2.165563106875    -1.514425282296     0.841514478151
    C           -0.276696186312    -0.727966103557     0.049708290768
    H            1.124784627190     0.726599334687    -0.683132834115
    H            1.042472317393     0.629412288057     1.057129832348
    C           -1.551568806285     0.112927811877     0.209380909274
    H           -0.311418423951    -1.291998337302    -0.876287244753
    H           -0.282456304532    -1.485363218146     0.831240628808
    C           -1.555310858674     1.463598847685    -0.499969372286
    H           -1.777778165593     0.236195754987     1.264493484027
    H           -2.378358608354    -0.476358784290    -0.176613720511
    H           -0.817421331334     2.142023407928    -0.088814900698
    H           -2.524429464597     1.939531448534    -0.404630019741
    H           -1.347357610773     1.350610741534    -1.559045023336

  Mulliken Charges: (a.u.)
   Center  Symbol    Alpha    Beta     Spin     Total
       1     H     0.43007  0.43007  0.00000  0.13987
       2     N     3.69005  3.69005  0.00000 -0.38010
       3     C     3.02771  3.02771  0.00000 -0.05542
       4     H     0.43096  0.43096  0.00000  0.13807
       5     C     3.08775  3.08775  0.00000 -0.17549
       6     H     0.45410  0.45410  0.00000  0.09179
       7     H     0.46732  0.46732  0.00000  0.06537
       8     C     3.09365  3.09365  0.00000 -0.18731
       9     H     0.44727  0.44727  0.00000  0.10545
      10     H     0.45843  0.45843  0.00000  0.08315
      11     C     3.15688  3.15688  0.00000 -0.31376
      12     H     0.45380  0.45380  0.00000  0.09240
      13     H     0.45089  0.45089  0.00000  0.09823
      14     H     0.45347  0.45347  0.00000  0.09306
      15     H     0.44532  0.44532  0.00000  0.10937
      16     H     0.45234  0.45234  0.00000  0.09532

   Total alpha = 21.00000, Total beta = 21.00000, Total charge =  0.00000

*** Psi4 exiting successfully. Buy a developer a beer!
