  ==> Input File <==

--------------------------------------------------------------------------
set {
	reference rhf
	basis cc-pvtz
}

set_num_threads( 4 )
memory 2 gb

molecule MOL {
0 1

H	 1.503347	 1.317586	 0.065988
C	 0.848385	 0.440008	 0.000011
C	 -0.623497	 0.751021	 0.000090
O	 1.313456	 -0.644814	 -0.064123
C	 -1.523725	 -0.474323	 -0.000013
H	 -0.813143	 1.382932	 -0.864897
H	 -0.813071	 1.382716	 0.865253
H	 -1.342980	 -1.087348	 -0.873016
H	 -2.565269	 -0.177464	 0.000070
H	 -1.342898	 -1.087564	 0.872820

	symmetry c1
}
set optking {
	frozen_dihedral = ("
		4 2 3 6
	")
}

ee = optimize('scf')
oeprop('DIPOLE', 'QUADRUPOLE', 'MULLIKEN_CHARGES')
f=open( 'psi4out.xyz', 'w' )
f.write( "10  " )
f.write( str(ee) + "\n" )
f.write( MOL.save_string_xyz() )
f.close()
--------------------------------------------------------------------------

    Molecular point group: c1
  Charge       = 0
  Multiplicity = 1
  Basis Set: CC-PVTZ
  Basis Set:
  @DF-RHF Final Energy:  -192.02481504641412
    Total Energy =                       -192.0248150464140622
    Molecular point group: c1
  Basis Set: CC-PVTZ
  Basis Set:
  Basis Set: CC-PVTZ
  Basis Set:
  @DF-RHF Final Energy:  -192.02471474461171
    Total Energy =                       -192.0247147446118277
  Basis Set: CC-PVTZ
  Basis Set:
  Basis Set: CC-PVTZ
  Basis Set:
  @DF-RHF Final Energy:  -192.02482374549206
    Total Energy =                       -192.0248237454920854
  Basis Set: CC-PVTZ
  Basis Set:
  Charge       = 0
  Multiplicity = 1
  Basis Set: CC-PVTZ
  Basis Set:

    Orbital Energies (a.u.)
    -----------------------

    Doubly Occupied:

       1A    -20.553732     2A    -11.323386     3A    -11.239791
       4A    -11.218026     5A     -1.409242     6A     -1.061875
       7A     -0.911662     8A     -0.774077     9A     -0.685910
      10A     -0.636951    11A     -0.634025    12A     -0.543716
      13A     -0.535523    14A     -0.520109    15A     -0.495717
      16A     -0.417060

  @DF-RHF Final Energy:  -192.02482493017359

   => Energetics <=

    Nuclear Repulsion Energy =            119.3807598953029299
    One-Electron Energy =                -496.8895646690559715
    Two-Electron Energy =                 185.4839798435795615
    DFT Exchange-Correlation Energy =       0.0000000000000000
    Empirical Dispersion Energy =           0.0000000000000000
    PCM Polarization Energy =               0.0000000000000000
    EFP Energy =                            0.0000000000000000
    Total Energy =                       -192.0248249301734518
    Molecular point group: c1
  Basis Set: CC-PVTZ
  Basis Set:

  -Total Gradient:
     Atom            X                  Y                   Z
    ------   -----------------  -----------------  -----------------
       1        0.000004864920     0.000001193782    -0.000009051059
       2       -0.000021757411    -0.000099596462     0.000604258562
       3        0.000087873934     0.000405485704     0.000049348491
       4        0.000001397852     0.000028408836    -0.000441547927
       5       -0.000003107785     0.000006125330     0.000025591825
       6       -0.000057808395    -0.000313468203    -0.000232366210
       7       -0.000004771088    -0.000015079514    -0.000005711815
       8        0.000005346462     0.000015813648     0.000005911099
       9       -0.000000590487    -0.000005862787    -0.000001294080
      10       -0.000011448002    -0.000023020335     0.000004861113

  **** Optimization is complete! (in 4 steps) ****
    Final optimized geometry and variables:
    Molecular point group: c1

    Geometry (in Angstrom), charge = 0, multiplicity = 1:

    H            1.504299735005     1.317146343039     0.068602207491
    C            0.848390904155     0.439424965256     0.016019968107
    C           -0.623466810902     0.751098659214     0.019723957644
    O            1.312617244346    -0.645863918998    -0.046351884809
    C           -1.523310697567    -0.474673662135     0.014052387895
    H           -0.810933488362     1.380509762856    -0.847938233759
    H           -0.816148247580     1.382715019035     0.883678395366
    H           -1.339247384781    -1.085585013503    -0.859484105934
    H           -2.564912817028    -0.178072885787     0.011495073797
    H           -1.345579145127    -1.089887004005     0.886368536023

  Mulliken Charges: (a.u.)
   Center  Symbol    Alpha    Beta     Spin     Total
       1     H     0.45349  0.45349  0.00000  0.09303
       2     C     2.91610  2.91610  0.00000  0.16780
       3     C     3.08387  3.08387  0.00000 -0.16774
       4     O     4.16467  4.16467  0.00000 -0.32934
       5     C     3.14059  3.14059  0.00000 -0.28118
       6     H     0.44838  0.44838  0.00000  0.10325
       7     H     0.44841  0.44841  0.00000  0.10317
       8     H     0.44692  0.44692  0.00000  0.10615
       9     H     0.44948  0.44948  0.00000  0.10105
      10     H     0.44810  0.44810  0.00000  0.10381

   Total alpha = 16.00000, Total beta = 16.00000, Total charge = -0.00000
