  ==> Input File <==

--------------------------------------------------------------------------
set {
	reference rhf
	basis 6-31G*
}

set_num_threads( 4 )
memory 2 gb

molecule MOL {
0 1

H	 -4.048925	 0.450269	 -0.829087
C	 -3.372398	 -0.195020	 -0.303183
C	 -2.076860	 -0.007332	 -0.404944
H	 -3.780023	 -0.985341	 0.298603
O	 -1.180634	 -0.819263	 0.215062
H	 -1.648780	 0.782581	 -0.996536
C	 0.051604	 -1.018856	 -0.387932
C	 1.043764	 0.054862	 -0.001873
H	 -0.017620	 -1.041351	 -1.469781
H	 0.437898	 -1.966374	 -0.042284
F	 2.212596	 -0.199467	 -0.571921
F	 0.652529	 1.252447	 -0.405055
F	 1.230877	 0.110694	 1.300533

	symmetry c1
}
set optking {
	frozen_dihedral = ("
		6 3 5 7
	")
}

ee = optimize('scf')
oeprop('DIPOLE', 'QUADRUPOLE', 'MULLIKEN_CHARGES')
f=open( 'psi4out.xyz', 'w' )
f.write( "13  " )
f.write( str(ee) + "\n" )
f.write( MOL.save_string_xyz() )
f.close()
--------------------------------------------------------------------------

    Molecular point group: c1
  Charge       = 0
  Multiplicity = 1
  Basis Set: 6-31G*
  Basis Set:
  @DF-RHF Final Energy:  -527.53498444939078
    Total Energy =                       -527.5349844493911178
    Molecular point group: c1
  Basis Set: 6-31G*
  Basis Set:
  Basis Set: 6-31G*
  Basis Set:
  @DF-RHF Final Energy:  -527.53519893955252
    Total Energy =                       -527.5351989395528562
  Basis Set: 6-31G*
  Basis Set:
  Basis Set: 6-31G*
  Basis Set:
  @DF-RHF Final Energy:  -527.53554440268783
    Total Energy =                       -527.5355444026876057
  Basis Set: 6-31G*
  Basis Set:
  Basis Set: 6-31G*
  Basis Set:
  @DF-RHF Final Energy:  -527.53555777039628
    Total Energy =                       -527.5355577703960535
  Basis Set: 6-31G*
  Basis Set:
  Basis Set: 6-31G*
  Basis Set:
  @DF-RHF Final Energy:  -527.53556030418167
    Total Energy =                       -527.5355603041816721
  Basis Set: 6-31G*
  Basis Set:
  Charge       = 0
  Multiplicity = 1
  Basis Set: 6-31G*
  Basis Set:

    Orbital Energies (a.u.)
    -----------------------

    Doubly Occupied:

       1A    -26.344773     2A    -26.344703     3A    -26.340622
       4A    -20.605417     5A    -11.503330     6A    -11.317508
       7A    -11.297806     8A    -11.219449     9A     -1.741995
      10A     -1.640226    11A     -1.638445    12A     -1.434720
      13A     -1.083703    14A     -1.016590    15A     -0.925396
      16A     -0.835989    17A     -0.831271    18A     -0.822739
      19A     -0.785622    20A     -0.724883    21A     -0.711627
      22A     -0.700026    23A     -0.675812    24A     -0.658851
      25A     -0.654640    26A     -0.643512    27A     -0.627465
      28A     -0.593205    29A     -0.566003    30A     -0.529299
      31A     -0.495960    32A     -0.357094

  @DF-RHF Final Energy:  -527.53556053366526

   => Energetics <=

    Nuclear Repulsion Energy =            411.6346648567753164
    One-Electron Energy =               -1547.0030927475932003
    Two-Electron Energy =                 607.8328673571522813
    DFT Exchange-Correlation Energy =       0.0000000000000000
    Empirical Dispersion Energy =           0.0000000000000000
    PCM Polarization Energy =               0.0000000000000000
    EFP Energy =                            0.0000000000000000
    Total Energy =                       -527.5355605336656026
    Molecular point group: c1
  Basis Set: 6-31G*
  Basis Set:

  -Total Gradient:
     Atom            X                  Y                   Z
    ------   -----------------  -----------------  -----------------
       1       -0.000002189440    -0.000006337995    -0.000002320057
       2        0.000011347176     0.000012313915     0.000004278682
       3       -0.000110342507    -0.000687080061    -0.000726854625
       4        0.000004964102    -0.000004759052    -0.000003101284
       5        0.000264897322     0.000710332956     0.000489405482
       6       -0.000009066906     0.000396775667     0.000452918894
       7       -0.000102772753    -0.000431219746    -0.000205545048
       8       -0.000001708689     0.000010654551    -0.000012389510
       9       -0.000005939350     0.000005100769     0.000006512073
      10       -0.000014285684    -0.000010219215    -0.000006226842
      11       -0.000042877098     0.000001426867     0.000057244339
      12       -0.000023464108     0.000043993560    -0.000037757166
      13        0.000031437940    -0.000040982215    -0.000016164938

  **** Optimization is complete! (in 6 steps) ****
    Final optimized geometry and variables:
    Molecular point group: c1

    Geometry (in Angstrom), charge = 0, multiplicity = 1:

    H           -4.075978114526     0.488660687235    -0.771416610828
    C           -3.377199056698    -0.137832005385    -0.251369757555
    C           -2.087142934672     0.027216182362    -0.432155978744
    H           -3.758463719424    -0.879572725380     0.425258290970
    O           -1.168935702668    -0.710601385172     0.250452620016
    H           -1.682201972436     0.771458662812    -1.093589708187
    C            0.061886667469    -0.929152789038    -0.355659104982
    C            1.072856778327     0.112746260423     0.065039980600
    H           -0.002039111365    -0.925388840346    -1.437174749433
    H            0.426923588807    -1.892940766105    -0.031204053683
    F            2.238445884487    -0.143410889686    -0.509856076357
    F            0.705023120341     1.331441365433    -0.300222242644
    F            1.257679428702     0.125087006900     1.368791224843

  Mulliken Charges: (a.u.)
   Center  Symbol    Alpha    Beta     Spin     Total
       1     H     0.40674  0.40674  0.00000  0.18651
       2     C     3.22958  3.22958  0.00000 -0.45916
       3     C     2.90468  2.90468  0.00000  0.19064
       4     H     0.40177  0.40177  0.00000  0.19647
       5     O     4.30380  4.30380  0.00000 -0.60759
       6     H     0.40199  0.40199  0.00000  0.19601
       7     C     3.06439  3.06439  0.00000 -0.12878
       8     C     2.45534  2.45534  0.00000  1.08932
       9     H     0.40396  0.40396  0.00000  0.19209
      10     H     0.39000  0.39000  0.00000  0.21999
      11     F     4.68271  4.68271  0.00000 -0.36543
      12     F     4.68060  4.68060  0.00000 -0.36119
      13     F     4.67444  4.67444  0.00000 -0.34887

   Total alpha = 32.00000, Total beta = 32.00000, Total charge =  0.00000
