                              Psi4 1.0.54 Driver

  ==> Input File <==

--------------------------------------------------------------------------
set {
	reference rhf
	basis cc-pvtz
}

set_num_threads( 4 )
memory 2 gb

molecule MOL {
0 1

H	 -3.941973	 0.934228	 -0.390224
C	 -3.240162	 0.342701	 0.161016
C	 -2.105997	 -0.000418	 -0.398703
H	 -3.485368	 0.047206	 1.162193
O	 -1.591001	 0.669472	 -1.455041
H	 -1.516682	 -0.825331	 -0.041835
C	 -0.444908	 0.180876	 -2.055761
C	 -0.762379	 -0.780720	 -3.182516
H	 0.203389	 -0.330501	 -1.354350
H	 0.091996	 1.014814	 -2.482049
F	 0.359759	 -1.188437	 -3.740775
F	 -1.404671	 -1.845769	 -2.752821
F	 -1.496063	 -0.222777	 -4.114645

	symmetry c1
}
set optking {
	frozen_dihedral = ("
		6 3 2 1
	")
}

ee,wfn = optimize('scf', return_wfn=True)
oeprop( wfn, 'DIPOLE', 'QUADRUPOLE', 'MULLIKEN_CHARGES')
f=open( 'psi4out.xyz', 'w' )
f.write( "13  " )
f.write( str(ee) + "\n" )
f.write( MOL.save_string_xyz() )
f.close()
--------------------------------------------------------------------------

    Molecular point group: c1
  Charge       = 0
  Multiplicity = 1
  Basis Set: CC-PVTZ
  Basis Set:
  @DF-RHF Final Energy:  -527.73353236468313
    Total Energy =                       -527.7335323646830147
    Molecular point group: c1
  Basis Set: CC-PVTZ
  Basis Set:
  Basis Set: CC-PVTZ
  Basis Set:
  @DF-RHF Final Energy:  -527.72009376274832
    Total Energy =                       -527.7200937627486610
  Basis Set: CC-PVTZ
  Basis Set:
  Basis Set: CC-PVTZ
  Basis Set:
  @DF-RHF Final Energy:  -527.73817217543365
    Total Energy =                       -527.7381721754336468
  Basis Set: CC-PVTZ
  Basis Set:
  Basis Set: CC-PVTZ
  Basis Set:
  @DF-RHF Final Energy:  -527.73868430993434
    Total Energy =                       -527.7386843099345697
  Basis Set: CC-PVTZ
  Basis Set:
  @DF-RHF Final Energy:  -527.73872209133867
    Total Energy =                       -527.7387220913390138
  Basis Set: CC-PVTZ
  Basis Set:
  @DF-RHF Final Energy:  -527.73873145312245
    Total Energy =                       -527.7387314531222273
  Basis Set: CC-PVTZ
  Basis Set:
  Basis Set: CC-PVTZ
  Basis Set:
  @DF-RHF Final Energy:  -527.73873522595727
    Total Energy =                       -527.7387352259570434
  Basis Set: CC-PVTZ
  Basis Set:
  Basis Set: CC-PVTZ
  Basis Set:
  @DF-RHF Final Energy:  -527.73873629092498
    Total Energy =                       -527.7387362909246349
  Basis Set: CC-PVTZ
  Basis Set:
  Charge       = 0
  Multiplicity = 1
  Basis Set: CC-PVTZ
  Basis Set:

    Orbital Energies (a.u.)
    -----------------------

    Doubly Occupied:

       1A    -26.342350     2A    -26.341343     3A    -26.338610
       4A    -20.604074     5A    -11.498314     6A    -11.320104
       7A    -11.299461     8A    -11.214050     9A     -1.751048
      10A     -1.647577    11A     -1.645979    12A     -1.444654
      13A     -1.088371    14A     -1.020954    15A     -0.932683
      16A     -0.844451    17A     -0.840221    18A     -0.827695
      19A     -0.797825    20A     -0.729646    21A     -0.719677
      22A     -0.704377    23A     -0.681954    24A     -0.668523
      25A     -0.662058    26A     -0.651568    27A     -0.640600
      28A     -0.588064    29A     -0.566726    30A     -0.530715
      31A     -0.516009    32A     -0.355566

  @DF-RHF Final Energy:  -527.73873661875655

   => Energetics <=

    Nuclear Repulsion Energy =            413.8677872042948138
    One-Electron Energy =               -1551.5825537597293078
    Two-Electron Energy =                 609.9760299366782874
    DFT Exchange-Correlation Energy =       0.0000000000000000
    Empirical Dispersion Energy =           0.0000000000000000
    PCM Polarization Energy =               0.0000000000000000
    EFP Energy =                            0.0000000000000000
    Total Energy =                       -527.7387366187560929
    Molecular point group: c1
  Basis Set: CC-PVTZ
  Basis Set:

  -Total Gradient:
     Atom            X                  Y                   Z
    ------   -----------------  -----------------  -----------------
       1       -0.002918862407    -0.010609141911    -0.003120467894
       2        0.002392271441     0.011388450891     0.001743431215
       3        0.004687343394     0.007668108534     0.007549145357
       4        0.000003650193     0.000013969235     0.000020825365
       5        0.000042090498     0.000090632806     0.000034002310
       6       -0.004200855938    -0.008564927930    -0.006237859947
       7       -0.000000035153    -0.000023904791    -0.000012108409
       8       -0.000026945492     0.000007923228    -0.000027057761
       9        0.000007314452     0.000002222745     0.000000852802
      10       -0.000003612852    -0.000000765042    -0.000001285783
      11        0.000019104450    -0.000003687632    -0.000009320130
      12       -0.000013690989     0.000022760092     0.000057700687
      13        0.000012228403     0.000008359774     0.000002142188

  **** Optimization is complete! (in 9 steps) ****
    Final optimized geometry and variables:
    Molecular point group: c1

    Geometry (in Angstrom), charge = 0, multiplicity = 1:

    H           -2.826945087811     1.183435051444     1.897048751863
    C           -1.988952975425     0.792680095472     2.440147866205
    C           -0.813093736117     0.635968678695     1.880913437074
    H           -2.169097183884     0.351189612510     3.399436033355
    O           -0.519326293170     1.165826153259     0.670815711494
    H           -0.066721607793    -0.023376403521     2.285278090752
    C            0.680756429809     0.827456068730     0.072449701321
    C            0.549418289851    -0.399741978019    -0.805977215918
    H            1.463145319916     0.635922466357     0.797107939249
    H            0.983855256329     1.648565479038    -0.559479322709
    F            1.709100841799    -0.659699705247    -1.375163316207
    F            0.197214943364    -1.462517151209    -0.113562980518
    F           -0.337485236348    -0.233195943079    -1.756842462380

  Mulliken Charges: (a.u.)
   Center  Symbol    Alpha    Beta     Spin     Total
       1     H     0.42409  0.42409  0.00000  0.15183
       2     C     3.19584  3.19584  0.00000 -0.39169
       3     C     2.96014  2.96014  0.00000  0.07971
       4     H     0.42733  0.42733  0.00000  0.14534
       5     O     4.14452  4.14452  0.00000 -0.28903
       6     H     0.43291  0.43291  0.00000  0.13418
       7     C     3.01916  3.01916  0.00000 -0.03833
       8     C     2.67494  2.67494  0.00000  0.65013
       9     H     0.45551  0.45551  0.00000  0.08898
      10     H     0.43528  0.43528  0.00000  0.12945
      11     F     4.61239  4.61239  0.00000 -0.22477
      12     F     4.61107  4.61107  0.00000 -0.22214
      13     F     4.60682  4.60682  0.00000 -0.21364

   Total alpha = 32.00000, Total beta = 32.00000, Total charge = -0.00000

*** Psi4 exiting successfully. Buy a developer a beer!
