  ==> Input File <==

--------------------------------------------------------------------------
set {
	reference rhf
	basis cc-pvtz
}

set_num_threads( 4 )
memory 2 gb

molecule MOL {
0 1

H	 2.702020	 -0.925669	 0.327934
N	 2.326826	 -0.066186	 0.000000
C	 0.934676	 -0.005420	 0.000000
H	 2.773396	 0.709567	 0.431051
C	 0.226436	 -0.001077	 -1.195129
C	 0.226436	 -0.001077	 1.195129
H	 0.759091	 -0.011439	 -2.128123
C	 -1.153391	 0.009141	 -1.189028
H	 0.759091	 -0.011439	 2.128123
C	 -1.153391	 0.009141	 1.189028
H	 -1.680905	 0.012964	 -2.124348
C	 -1.857876	 0.014675	 0.000000
H	 -1.680905	 0.012964	 2.124348
H	 -2.930222	 0.022904	 0.000000

	symmetry c1
}
set optking {
	frozen_dihedral = ("
		1 2 3 5
	")
}

ee = optimize('scf')
oeprop('DIPOLE', 'QUADRUPOLE', 'MULLIKEN_CHARGES')
f=open( 'psi4out.xyz', 'w' )
f.write( "14  " )
f.write( str(ee) + "\n" )
f.write( MOL.save_string_xyz() )
f.close()
--------------------------------------------------------------------------

    Molecular point group: c1
  Charge       = 0
  Multiplicity = 1
  Basis Set: CC-PVTZ
  Basis Set:
  @DF-RHF Final Energy:  -285.82508760048233
    Total Energy =                       -285.8250876004822771
    Molecular point group: c1
  Basis Set: CC-PVTZ
  Basis Set:
  Basis Set: CC-PVTZ
  Basis Set:
  @DF-RHF Final Energy:  -285.82685638805646
    Total Energy =                       -285.8268563880562283
  Basis Set: CC-PVTZ
  Basis Set:
  Basis Set: CC-PVTZ
  Basis Set:
  @DF-RHF Final Energy:  -285.82727562154747
    Total Energy =                       -285.8272756215473009
  Basis Set: CC-PVTZ
  Basis Set:
  Basis Set: CC-PVTZ
  Basis Set:
  @DF-RHF Final Energy:  -285.82730166152641
    Total Energy =                       -285.8273016615268034
  Basis Set: CC-PVTZ
  Basis Set:
  Charge       = 0
  Multiplicity = 1
  Basis Set: CC-PVTZ
  Basis Set:

    Orbital Energies (a.u.)
    -----------------------

    Doubly Occupied:

       1A    -15.542860     2A    -11.259746     3A    -11.228690
       4A    -11.227055     5A    -11.224200     6A    -11.223919
       7A    -11.219640     8A     -1.210006     9A     -1.131959
      10A     -1.016091    11A     -0.990448    12A     -0.830879
      13A     -0.810879    14A     -0.705971    15A     -0.663625
      16A     -0.648775    17A     -0.630698    18A     -0.593959
      19A     -0.585924    20A     -0.509302    21A     -0.500216
      22A     -0.496597    23A     -0.414033    24A     -0.336497
      25A     -0.328441

  @DF-RHF Final Energy:  -285.82730302933248

   => Energetics <=

    Nuclear Repulsion Energy =            272.9453906701495498
    One-Electron Energy =                -926.8845638288698865
    Two-Electron Energy =                 368.1118701293876256
    DFT Exchange-Correlation Energy =       0.0000000000000000
    Empirical Dispersion Energy =           0.0000000000000000
    PCM Polarization Energy =               0.0000000000000000
    EFP Energy =                            0.0000000000000000
    Total Energy =                       -285.8273030293327110
    Molecular point group: c1
  Basis Set: CC-PVTZ
  Basis Set:

  -Total Gradient:
     Atom            X                  Y                   Z
    ------   -----------------  -----------------  -----------------
       1        0.000069197313     0.000395480577     0.001178362205
       2        0.000038930372    -0.000103041548    -0.001478842131
       3       -0.000152718077    -0.001194332777     0.000165054700
       4       -0.000002518424     0.000004106973     0.000023714156
       5        0.000095143990     0.000930423360    -0.000009948697
       6       -0.000000589961    -0.000031570207     0.000080587939
       7        0.000013429637     0.000012058918     0.000006055306
       8       -0.000035504762    -0.000070073334     0.000066379982
       9       -0.000011048729     0.000007551110    -0.000020384048
      10        0.000034678123    -0.000033940270    -0.000003879547
      11        0.000002422327     0.000006927018     0.000010866084
      12       -0.000016089040     0.000086007617    -0.000036738240
      13       -0.000030199783     0.000002566733    -0.000004886062
      14       -0.000005132987    -0.000012164170     0.000023658356

  **** Optimization is complete! (in 5 steps) ****
    Final optimized geometry and variables:
    Molecular point group: c1

    Geometry (in Angstrom), charge = 0, multiplicity = 1:

    H            2.721628816499    -0.901021154874     0.251545975437
    N            2.355383653670    -0.023215319688    -0.053139142879
    C            0.925446864596    -0.014773478465    -0.003507933991
    H            2.737912585344     0.678319639387     0.544880181334
    C            0.222352682411    -0.009007802017    -1.194486570308
    C            0.222321694372     0.005953246647     1.191630742709
    H            0.770896954337    -0.012478668666    -2.115876164171
    C           -1.160687099423     0.004139202088    -1.193134562618
    H            0.760229544306     0.004704812175     2.121715770614
    C           -1.158900166499     0.027995351839     1.193874373404
    H           -1.692991356513     0.005968451615    -2.125319208580
    C           -1.856095100248     0.024471895653     0.000029454267
    H           -1.689763495908     0.045778354094     2.126791622427
    H           -2.929102873940     0.039562396704     0.001208398908

  Mulliken Charges: (a.u.)
   Center  Symbol    Alpha    Beta     Spin     Total
       1     H     0.42344  0.42344  0.00000  0.15311
       2     N     3.69913  3.69913  0.00000 -0.39826
       3     C     2.90774  2.90774  0.00000  0.18451
       4     H     0.42275  0.42275  0.00000  0.15451
       5     C     3.09561  3.09561  0.00000 -0.19122
       6     C     3.11420  3.11420  0.00000 -0.22839
       7     H     0.41695  0.41695  0.00000  0.16610
       8     C     3.06595  3.06595  0.00000 -0.13191
       9     H     0.42620  0.42620  0.00000  0.14761
      10     C     3.07295  3.07295  0.00000 -0.14591
      11     H     0.42306  0.42306  0.00000  0.15388
      12     C     3.08478  3.08478  0.00000 -0.16957
      13     H     0.42358  0.42358  0.00000  0.15285
      14     H     0.42366  0.42366  0.00000  0.15268

   Total alpha = 25.00000, Total beta = 25.00000, Total charge = -0.00000
