                              Psi4 1.0.54 Driver

  ==> Input File <==

--------------------------------------------------------------------------
set {
	reference rhf
	basis cc-pvtz
}

set_num_threads( 4 )
memory 2 gb

molecule MOL {
0 1

H	 5.020713	 -0.319968	 2.146508
C	 4.491605	 -0.816490	 1.341289
C	 2.986860	 -0.595397	 1.451666
H	 4.873787	 -0.426292	 0.404327
H	 4.738220	 -1.872456	 1.385065
C	 2.206662	 -1.290599	 0.338133
H	 2.779094	 0.468207	 1.428909
H	 2.639879	 -0.962332	 2.414883
C	 0.696813	 -1.091991	 0.426446
H	 2.553425	 -0.934508	 -0.624044
H	 2.412688	 -2.356463	 0.373764
C	 0.219242	 0.306862	 0.074852
H	 0.195463	 -1.764785	 -0.264758
H	 0.327012	 -1.355282	 1.413078
C	 -1.180025	 0.697761	 0.509157
O	 0.902408	 1.064614	 -0.535371
C	 -2.285431	 -0.137488	 -0.145671
H	 -1.307622	 1.743301	 0.263386
H	 -1.244547	 0.597318	 1.589409
C	 -3.646545	 0.082747	 0.508954
H	 -2.348635	 0.118247	 -1.199806
H	 -2.034895	 -1.192387	 -0.096473
C	 -4.757412	 -0.737227	 -0.138149
H	 -3.900211	 1.137405	 0.459735
H	 -3.580878	 -0.166775	 1.564416
H	 -4.867876	 -0.486707	 -1.187777
H	 -4.549650	 -1.800049	 -0.072540
H	 -5.709585	 -0.556397	 0.346597

	symmetry c1
}
set optking {
	frozen_dihedral = ("
		12 15 17 21
	")
}

ee,wfn = optimize('scf', return_wfn=True)
oeprop( wfn, 'DIPOLE', 'QUADRUPOLE', 'MULLIKEN_CHARGES')
f=open( 'psi4out.xyz', 'w' )
f.write( "28  " )
f.write( str(ee) + "\n" )
f.write( MOL.save_string_xyz() )
f.close()
--------------------------------------------------------------------------

    Molecular point group: c1
  Charge       = 0
  Multiplicity = 1
  Basis Set: CC-PVTZ
  Basis Set:
  @DF-RHF Final Energy:  -426.31901196756985
    Total Energy =                       -426.3190119675703045
    Molecular point group: c1
  Basis Set: CC-PVTZ
  Basis Set:
  Basis Set: CC-PVTZ
  Basis Set:
  @DF-RHF Final Energy:  -426.31826650836001
    Total Energy =                       -426.3182665083597840
  Basis Set: CC-PVTZ
  Basis Set:
  Basis Set: CC-PVTZ
  Basis Set:
  @DF-RHF Final Energy:  -426.31876760423756
    Total Energy =                       -426.3187676042377916
  Basis Set: CC-PVTZ
  Basis Set:
  Basis Set: CC-PVTZ
  Basis Set:
  @DF-RHF Final Energy:  -426.31916377747530
    Total Energy =                       -426.3191637774755236
  Basis Set: CC-PVTZ
  Basis Set:
  @DF-RHF Final Energy:  -426.31916947660227
    Total Energy =                       -426.3191694766032924
  Basis Set: CC-PVTZ
  Basis Set:
  @DF-RHF Final Energy:  -426.31917497824350
    Total Energy =                       -426.3191749782437228
  Basis Set: CC-PVTZ
  Basis Set:
  Basis Set: CC-PVTZ
  Basis Set:
  @DF-RHF Final Energy:  -426.31917835361594
    Total Energy =                       -426.3191783536160528
  Basis Set: CC-PVTZ
  Basis Set:
  Basis Set: CC-PVTZ
  Basis Set:
  @DF-RHF Final Energy:  -426.31917946348278
    Total Energy =                       -426.3191794634832377
  Basis Set: CC-PVTZ
  Basis Set:
  Charge       = 0
  Multiplicity = 1
  Basis Set: CC-PVTZ
  Basis Set:

    Orbital Energies (a.u.)
    -----------------------

    Doubly Occupied:

       1A    -20.536222     2A    -11.316581     3A    -11.229653
       4A    -11.228270     5A    -11.227124     6A    -11.224017
       7A    -11.215038     8A    -11.214401     9A    -11.211763
      10A    -11.204548    11A     -1.396184    12A     -1.096288
      13A     -1.079205    14A     -1.023509    15A     -0.992061
      16A     -0.908146    17A     -0.874602    18A     -0.809636
      19A     -0.800691    20A     -0.723969    21A     -0.668584
      22A     -0.657971    23A     -0.627576    24A     -0.621875
      25A     -0.612162    26A     -0.589258    27A     -0.577710
      28A     -0.576349    29A     -0.544308    30A     -0.534341
      31A     -0.521752    32A     -0.507738    33A     -0.500146
      34A     -0.485830    35A     -0.479072    36A     -0.476749
      37A     -0.473344    38A     -0.466714    39A     -0.456888
      40A     -0.393992

  @DF-RHF Final Energy:  -426.31917972573558

   => Energetics <=

    Nuclear Repulsion Energy =            532.4036855954176417
    One-Electron Energy =               -1633.2772010185635736
    Two-Electron Energy =                 674.5543356974102380
    DFT Exchange-Correlation Energy =       0.0000000000000000
    Empirical Dispersion Energy =           0.0000000000000000
    PCM Polarization Energy =               0.0000000000000000
    EFP Energy =                            0.0000000000000000
    Total Energy =                       -426.3191797257355802
    Molecular point group: c1
  Basis Set: CC-PVTZ
  Basis Set:

  -Total Gradient:
     Atom            X                  Y                   Z
    ------   -----------------  -----------------  -----------------
       1       -0.000003992644    -0.000004247461    -0.000010381261
       2        0.000006454581     0.000009396141    -0.000000848495
       3        0.000004337289    -0.000022820627     0.000012292278
       4       -0.000003210927    -0.000004336795     0.000009622988
       5       -0.000003148860     0.000005289765     0.000000672663
       6        0.000016303451     0.000007394288    -0.000004049010
       7        0.000000146410    -0.000002917987    -0.000001565268
       8        0.000004639259     0.000004430142    -0.000007979638
       9       -0.000018892283    -0.000026390600     0.000020462039
      10       -0.000009056038    -0.000006059534     0.000010935535
      11        0.000001308927     0.000005848933     0.000005216709
      12        0.000139678556    -0.001274109325     0.001476747511
      13        0.000011223084     0.000017887192     0.000003509051
      14        0.000017551004     0.000000380250    -0.000017824880
      15       -0.000615338742     0.002262187281    -0.001942083995
      16       -0.000007632415    -0.000004019895    -0.000006980651
      17        0.002210995684    -0.002853225141    -0.000162118701
      18       -0.000002125721    -0.000000228068     0.000005253506
      19       -0.000001466687    -0.000002760051    -0.000009282579
      20        0.000002974659    -0.000005397313    -0.000001193164
      21       -0.001752154830     0.001886175759     0.000624111577
      22        0.000000809459     0.000004238366    -0.000001396169
      23        0.000001066830     0.000007515392    -0.000000312837
      24       -0.000000935290    -0.000004866004    -0.000000536622
      25        0.000000249816    -0.000001007338    -0.000007822761
      26        0.000000610204     0.000000229728     0.000006523199
      27        0.000003153589     0.000001710930     0.000001541501
      28       -0.000003548368    -0.000000298025    -0.000002512527

  **** Optimization is complete! (in 9 steps) ****
    Final optimized geometry and variables:
    Molecular point group: c1

    Geometry (in Angstrom), charge = 0, multiplicity = 1:

    H            4.968392071266     0.009592831131     1.889087690264
    C            4.496206077750    -0.480965438579     1.045769012045
    C            2.981151475444    -0.313548898621     1.088045616624
    H            4.909194683818    -0.051681400916     0.139528659685
    H            4.776653887450    -1.528958681198     1.073091592919
    C            2.280014077395    -1.000728038590    -0.081554633737
    H            2.738588676816     0.743224534502     1.084739487279
    H            2.600993312877    -0.719387533219     2.022643892859
    C            0.761090744447    -0.856261759387    -0.060218668956
    H            2.658148454442    -0.603544546001    -1.015164092330
    H            2.521756996067    -2.059493523361    -0.066864729361
    C            0.258326005589     0.543005001694    -0.378142679787
    H            0.321247357157    -1.511688523379    -0.807344779737
    H            0.354037641975    -1.177589502604     0.893506860002
    C           -1.129911592802     0.917403541845     0.102475922876
    O            0.922248337940     1.315259333973    -0.991594575903
    C           -2.256352998365     0.067289446607    -0.496419939692
    H           -1.284302065078     1.962759394472    -0.126134105402
    H           -1.138839187536     0.807792914181     1.184396079987
    C           -3.595590806566     0.309789272787     0.196916962344
    H           -2.362017636876     0.315145299395    -1.548447776824
    H           -2.013248750013    -0.987795723658    -0.437375114749
    C           -4.739866820040    -0.482314572285    -0.425917283052
    H           -3.829478572603     1.369921327000     0.162684204386
    H           -3.506612783347     0.050532362599     1.248183001292
    H           -4.878016771933    -0.216621325908    -1.468453839170
    H           -4.548531140176    -1.549304226506    -0.379982946533
    H           -5.673551240185    -0.291827339566     0.090108230827

  Mulliken Charges: (a.u.)
   Center  Symbol    Alpha    Beta     Spin     Total
       1     H     0.44860  0.44860  0.00000  0.10280
       2     C     3.15196  3.15196  0.00000 -0.30392
       3     C     3.08483  3.08483  0.00000 -0.16966
       4     H     0.45167  0.45167  0.00000  0.09666
       5     H     0.45663  0.45663  0.00000  0.08673
       6     C     3.08795  3.08795  0.00000 -0.17590
       7     H     0.44671  0.44671  0.00000  0.10659
       8     H     0.45837  0.45837  0.00000  0.08327
       9     C     3.13003  3.13003  0.00000 -0.26006
      10     H     0.44345  0.44345  0.00000  0.11310
      11     H     0.44756  0.44756  0.00000  0.10487
      12     C     2.86208  2.86208  0.00000  0.27584
      13     H     0.43451  0.43451  0.00000  0.13099
      14     H     0.44311  0.44311  0.00000  0.11378
      15     C     3.09417  3.09417  0.00000 -0.18834
      16     O     4.17889  4.17889  0.00000 -0.35778
      17     C     3.09985  3.09985  0.00000 -0.19971
      18     H     0.43700  0.43700  0.00000  0.12599
      19     H     0.45129  0.45129  0.00000  0.09741
      20     C     3.08790  3.08790  0.00000 -0.17580
      21     H     0.44535  0.44535  0.00000  0.10931
      22     H     0.44912  0.44912  0.00000  0.10177
      23     C     3.14912  3.14912  0.00000 -0.29824
      24     H     0.45062  0.45062  0.00000  0.09876
      25     H     0.45389  0.45389  0.00000  0.09221
      26     H     0.45337  0.45337  0.00000  0.09327
      27     H     0.45509  0.45509  0.00000  0.08982
      28     H     0.44688  0.44688  0.00000  0.10624

   Total alpha = 40.00000, Total beta = 40.00000, Total charge = -0.00000

*** Psi4 exiting successfully. Buy a developer a beer!
