  ==> Input File <==

--------------------------------------------------------------------------
set {
	reference rhf
	basis cc-pvtz
}

set_num_threads( 4 )
memory 2 gb

molecule MOL {
0 1

O	 0.466542	 1.126552	 -1.059144
C	 0.401738	 0.054547	 -0.560692
C	 1.535763	 -0.936016	 -0.479248
O	 -0.695554	 -0.422406	 0.000602
C	 2.823725	 -0.433919	 -1.111722
H	 1.195942	 -1.852216	 -0.949407
H	 1.677771	 -1.175858	 0.568724
H	 2.681606	 -0.211623	 -2.160819
H	 3.599022	 -1.185189	 -1.023078
H	 3.167829	 0.470900	 -0.628897
C	 -1.852370	 0.402254	 0.000718
C	 -3.063338	 -0.501097	 -0.000437
H	 -1.831732	 1.039442	 -0.872158
H	 -1.832493	 1.038301	 0.874430
H	 -3.071944	 -1.133732	 -0.879113
H	 -3.966302	 0.097976	 -0.000483
H	 -3.072764	 -1.134834	 0.877435

	symmetry c1
}
set optking {
	frozen_dihedral = ("
		2 4 11 13
	")
}

ee = optimize('scf')
oeprop('DIPOLE', 'QUADRUPOLE', 'MULLIKEN_CHARGES')
f=open( 'psi4out.xyz', 'w' )
f.write( "17  " )
f.write( str(ee) + "\n" )
f.write( MOL.save_string_xyz() )
f.close()
--------------------------------------------------------------------------

    Molecular point group: c1
  Charge       = 0
  Multiplicity = 1
  Basis Set: CC-PVTZ
  Basis Set:
  @DF-RHF Final Energy:  -345.03932051028949
    Total Energy =                       -345.0393205102895990
    Molecular point group: c1
  Basis Set: CC-PVTZ
  Basis Set:
  Basis Set: CC-PVTZ
  Basis Set:
  @DF-RHF Final Energy:  -345.03942518534365
    Total Energy =                       -345.0394251853435890
  Basis Set: CC-PVTZ
  Basis Set:
  Basis Set: CC-PVTZ
  Basis Set:
  @DF-RHF Final Energy:  -345.03935973261520
    Total Energy =                       -345.0393597326153099
  Basis Set: CC-PVTZ
  Basis Set:
  Basis Set: CC-PVTZ
  Basis Set:
  @DF-RHF Final Energy:  -345.03957165847555
    Total Energy =                       -345.0395716584754950
  Basis Set: CC-PVTZ
  Basis Set:
  Charge       = 0
  Multiplicity = 1
  Basis Set: CC-PVTZ
  Basis Set:

    Orbital Energies (a.u.)
    -----------------------

    Doubly Occupied:

       1A    -20.592864     2A    -20.532558     3A    -11.364156
       4A    -11.281907     5A    -11.235603     6A    -11.220527
       7A    -11.213586     8A     -1.469184     9A     -1.365145
      10A     -1.070702    11A     -1.032324    12A     -0.912651
      13A     -0.848550    14A     -0.773680    15A     -0.700797
      16A     -0.688866    17A     -0.666507    18A     -0.629553
      19A     -0.587982    20A     -0.572546    21A     -0.558116
      22A     -0.527759    23A     -0.520592    24A     -0.515432
      25A     -0.502623    26A     -0.494034    27A     -0.454183
      28A     -0.438846

  @DF-RHF Final Energy:  -345.03957435717524

   => Energetics <=

    Nuclear Repulsion Energy =            315.2131937205436429
    One-Electron Energy =               -1094.9629932374273267
    Two-Electron Energy =                 434.7102251597082159
    DFT Exchange-Correlation Energy =       0.0000000000000000
    Empirical Dispersion Energy =           0.0000000000000000
    PCM Polarization Energy =               0.0000000000000000
    EFP Energy =                            0.0000000000000000
    Total Energy =                       -345.0395743571755247
    Molecular point group: c1
  Basis Set: CC-PVTZ
  Basis Set:

  -Total Gradient:
     Atom            X                  Y                   Z
    ------   -----------------  -----------------  -----------------
       1       -0.000120341906    -0.000073548820     0.000091850151
       2       -0.000273119009    -0.000527930456    -0.001385002272
       3       -0.000020883058    -0.000028090134    -0.000007686867
       4        0.000726862666     0.001281373160     0.002109107728
       5        0.000003301245     0.000008924882     0.000007084524
       6        0.000010997434    -0.000013601895     0.000014428041
       7        0.000009334643    -0.000005921064     0.000005388182
       8       -0.000000528394    -0.000000808763     0.000000966243
       9       -0.000005371621    -0.000004288376     0.000002487530
      10       -0.000001122399    -0.000003204954    -0.000003537007
      11       -0.001237896905    -0.001763373502    -0.001804774761
      12       -0.000013794517    -0.000012097502     0.000044273630
      13        0.000837370479     0.001145051977     0.000895663934
      14        0.000062843603    -0.000011489149     0.000049927162
      15        0.000022137662     0.000001707155    -0.000017112723
      16        0.000010690263     0.000006559029     0.000002842061
      17       -0.000010480184     0.000000738409    -0.000005905556

  **** Optimization is complete! (in 5 steps) ****
    Final optimized geometry and variables:
    Molecular point group: c1

    Geometry (in Angstrom), charge = 0, multiplicity = 1:

    O            0.562860628594     1.239678444346    -0.586609186336
    C            0.475966439293     0.163415972509    -0.101394549326
    C            1.594900552159    -0.845045517716    -0.024491774759
    O           -0.628688180928    -0.308223716003     0.451129532977
    C            2.894547375407    -0.355205201552    -0.642460824591
    H            1.244913908345    -1.751039952695    -0.506667628871
    H            1.726165628083    -1.098258275471     1.021739526337
    H            2.763252052287    -0.119232221303    -1.689980552323
    H            3.657869544419    -1.119007771590    -0.556885244626
    H            3.248686055006     0.538929423656    -0.147203994640
    C           -1.802990041270     0.492792982016     0.438915549827
    C           -3.002705199026    -0.425255020161     0.473053715768
    H           -1.796645506922     1.124630182510    -0.434359444982
    H           -1.780281280922     1.136309545439     1.309580665659
    H           -3.028408617129    -1.057741924883    -0.405587027194
    H           -3.912605426419     0.162869071325     0.498900726454
    H           -2.979963608833    -1.059069794310     1.350539446803

  Mulliken Charges: (a.u.)
   Center  Symbol    Alpha    Beta     Spin     Total
       1     O     4.19777  4.19777  0.00000 -0.39553
       2     C     2.80528  2.80528  0.00000  0.38944
       3     C     3.09474  3.09474  0.00000 -0.18948
       4     O     4.15334  4.15334  0.00000 -0.30668
       5     C     3.13995  3.13995  0.00000 -0.27991
       6     H     0.44207  0.44207  0.00000  0.11586
       7     H     0.44132  0.44132  0.00000  0.11735
       8     H     0.44860  0.44860  0.00000  0.10279
       9     H     0.45062  0.45062  0.00000  0.09876
      10     H     0.44838  0.44838  0.00000  0.10323
      11     C     2.98504  2.98504  0.00000  0.02992
      12     C     3.13253  3.13253  0.00000 -0.26506
      13     H     0.44636  0.44636  0.00000  0.10729
      14     H     0.45640  0.45640  0.00000  0.08720
      15     H     0.45190  0.45190  0.00000  0.09620
      16     H     0.45445  0.45445  0.00000  0.09110
      17     H     0.45124  0.45124  0.00000  0.09751

   Total alpha = 28.00000, Total beta = 28.00000, Total charge = -0.00000
