  ==> Input File <==

--------------------------------------------------------------------------
set {
	reference rhf
	basis cc-pvtz
}

set_num_threads( 4 )
memory 2 gb

molecule MOL {
0 1

H	 -3.144994	 -1.202467	 -0.018751
O	 -2.321472	 -0.864941	 -0.318626
C	 -2.021813	 0.336996	 0.342658
C	 -0.669613	 0.837286	 -0.127252
H	 -2.780861	 1.084746	 0.127159
H	 -2.006390	 0.184138	 1.420053
C	 0.490865	 -0.082543	 0.241244
H	 -0.708709	 0.967192	 -1.204587
H	 -0.507562	 1.822272	 0.303070
C	 0.766417	 -0.124607	 1.741547
H	 1.382784	 0.241760	 -0.282555
H	 0.274837	 -1.089116	 -0.111266
C	 1.921078	 -1.049648	 2.111473
H	 0.984118	 0.880066	 2.093598
H	 -0.131202	 -0.442587	 2.265816
H	 2.841531	 -0.736507	 1.630200
H	 2.092871	 -1.056123	 3.181870
H	 1.719364	 -2.070222	 1.802951

	symmetry c1
}
set optking {
	frozen_dihedral = ("
		10 7 4 8
	")
}

ee = optimize('scf')
oeprop('DIPOLE', 'QUADRUPOLE', 'MULLIKEN_CHARGES')
f=open( 'psi4out.xyz', 'w' )
f.write( "18  " )
f.write( str(ee) + "\n" )
f.write( MOL.save_string_xyz() )
f.close()
--------------------------------------------------------------------------

    Molecular point group: c1
  Charge       = 0
  Multiplicity = 1
  Basis Set: CC-PVTZ
  Basis Set:
  @DF-RHF Final Energy:  -271.28476433158619
    Total Energy =                       -271.2847643315864161
    Molecular point group: c1
  Basis Set: CC-PVTZ
  Basis Set:
  Basis Set: CC-PVTZ
  Basis Set:
  @DF-RHF Final Energy:  -271.28519071685372
    Total Energy =                       -271.2851907168535490
  Basis Set: CC-PVTZ
  Basis Set:
  Basis Set: CC-PVTZ
  Basis Set:
  @DF-RHF Final Energy:  -271.28532877036719
    Total Energy =                       -271.2853287703673004
  Basis Set: CC-PVTZ
  Basis Set:
  Basis Set: CC-PVTZ
  Basis Set:
  @DF-RHF Final Energy:  -271.28533393586872
    Total Energy =                       -271.2853339358689482
  Basis Set: CC-PVTZ
  Basis Set:
  Charge       = 0
  Multiplicity = 1
  Basis Set: CC-PVTZ
  Basis Set:

    Orbital Energies (a.u.)
    -----------------------

    Doubly Occupied:

       1A    -20.546460     2A    -11.265375     3A    -11.210839
       4A    -11.209371     5A    -11.204934     6A    -11.203180
       7A     -1.364240     8A     -1.076047     9A     -1.008515
      10A     -0.914711    11A     -0.830796    12A     -0.772610
      13A     -0.706622    14A     -0.648709    15A     -0.624721
      16A     -0.585911    17A     -0.565371    18A     -0.555906
      19A     -0.536485    20A     -0.502530    21A     -0.488328
      22A     -0.467239    23A     -0.456872    24A     -0.449443
      25A     -0.430831

  @DF-RHF Final Energy:  -271.28533430487983

   => Energetics <=

    Nuclear Repulsion Energy =            253.1248374022648022
    One-Electron Energy =                -869.5682438772380465
    Two-Electron Energy =                 345.1580721700934760
    DFT Exchange-Correlation Energy =       0.0000000000000000
    Empirical Dispersion Energy =           0.0000000000000000
    PCM Polarization Energy =               0.0000000000000000
    EFP Energy =                            0.0000000000000000
    Total Energy =                       -271.2853343048797683
    Molecular point group: c1
  Basis Set: CC-PVTZ
  Basis Set:

  -Total Gradient:
     Atom            X                  Y                   Z
    ------   -----------------  -----------------  -----------------
       1        0.000005179515     0.000001554282     0.000006826531
       2       -0.000026817136     0.000023254054    -0.000034702646
       3        0.000031366581    -0.000000582205     0.000049338728
       4       -0.000259654135    -0.000372850338    -0.000064583915
       5       -0.000010650263    -0.000031843308    -0.000015608999
       6       -0.000000897289     0.000011945683     0.000003348629
       7       -0.000269448369    -0.000305030713     0.000051234145
       8        0.000290968868     0.000392241791     0.000033736541
       9       -0.000007413006     0.000008342369    -0.000002119754
      10        0.000245416236     0.000283814122    -0.000065253637
      11        0.000007967093    -0.000003815056     0.000002206594
      12        0.000008320163    -0.000000227716     0.000003100023
      13       -0.000005225415    -0.000001908095     0.000018086354
      14       -0.000003025214    -0.000002482821     0.000005776095
      15       -0.000002939630    -0.000003523706     0.000007498767
      16       -0.000007883485     0.000004252742    -0.000000629859
      17        0.000007953479    -0.000005417423     0.000003459494
      18       -0.000003218000     0.000002276337    -0.000001713090

  **** Optimization is complete! (in 5 steps) ****
    Final optimized geometry and variables:
    Molecular point group: c1

    Geometry (in Angstrom), charge = 0, multiplicity = 1:

    H           -2.825602354746    -0.983285184292    -0.675375867734
    O           -1.978149386330    -0.681510589692    -0.944916623122
    C           -1.695877087830     0.559492629862    -0.351300841642
    C           -0.315969084154     1.015212465197    -0.790304681951
    H           -2.428903707199     1.300731872603    -0.659540091687
    H           -1.747686591249     0.482375148983     0.731168345429
    C            0.833654249743     0.086098073721    -0.396580901203
    H           -0.327789685552     1.125689996224    -1.869599456788
    H           -0.143975955846     2.006469443464    -0.378102603781
    C            1.123927640331     0.025823165062     1.101760795179
    H            1.730472016113     0.424725027895    -0.908225043407
    H            0.627139262378    -0.911570823356    -0.766807594077
    C            2.326121640929    -0.852838948216     1.432897458961
    H            1.299757891794     1.031424679184     1.475884415660
    H            0.256300463041    -0.351362752703     1.633474769434
    H            3.225317769579    -0.483557015216     0.950964650246
    H            2.511123514625    -0.881168553335     2.500771965281
    H            2.167897278125    -1.872167780257     1.097079669341

  Mulliken Charges: (a.u.)
   Center  Symbol    Alpha    Beta     Spin     Total
       1     H     0.39561  0.39561  0.00000  0.20878
       2     O     4.19899  4.19899  0.00000 -0.39799
       3     C     2.97424  2.97424  0.00000  0.05152
       4     C     3.09907  3.09907  0.00000 -0.19813
       5     H     0.46343  0.46343  0.00000  0.07313
       6     H     0.47277  0.47277  0.00000  0.05445
       7     C     3.09172  3.09172  0.00000 -0.18345
       8     H     0.44708  0.44708  0.00000  0.10584
       9     H     0.45448  0.45448  0.00000  0.09104
      10     C     3.08594  3.08594  0.00000 -0.17189
      11     H     0.45102  0.45102  0.00000  0.09795
      12     H     0.44574  0.44574  0.00000  0.10853
      13     C     3.14972  3.14972  0.00000 -0.29944
      14     H     0.45668  0.45668  0.00000  0.08664
      15     H     0.45486  0.45486  0.00000  0.09028
      16     H     0.45515  0.45515  0.00000  0.08970
      17     H     0.44964  0.44964  0.00000  0.10071
      18     H     0.45385  0.45385  0.00000  0.09231

   Total alpha = 25.00000, Total beta = 25.00000, Total charge =  0.00000
