  ==> Input File <==

--------------------------------------------------------------------------
set {
	reference rhf
	basis 6-31G*
}

set_num_threads( 4 )
memory 2 gb

molecule MOL {
0 1

H	 -0.699899	 1.973949	 -0.911572
C	 0.026033	 1.187518	 -1.123315
N	 0.538815	 0.649616	 0.000000
O	 0.306106	 0.869765	 -2.241260
C	 1.521968	 -0.411503	 0.000000
H	 0.219614	 1.006187	 0.871351
H	 2.150599	 -0.357004	 -0.881901
H	 0.999455	 -1.354525	 0.000000
H	 2.150599	 -0.357004	 0.881901

	symmetry c1
}
set optking {
	frozen_dihedral = ("
		6 3 5 7
	")
}

ee = optimize('scf')
oeprop('DIPOLE', 'QUADRUPOLE', 'MULLIKEN_CHARGES')
f=open( 'psi4out.xyz', 'w' )
f.write( "9  " )
f.write( str(ee) + "\n" )
f.write( MOL.save_string_xyz() )
f.close()
--------------------------------------------------------------------------

    Molecular point group: c1
  Charge       = 0
  Multiplicity = 1
  Basis Set: 6-31G*
  Basis Set:
  @DF-RHF Final Energy:  -207.96021535803004
    Total Energy =                       -207.9602153580300410
    Molecular point group: c1
  Basis Set: 6-31G*
  Basis Set:
  Basis Set: 6-31G*
  Basis Set:
  @DF-RHF Final Energy:  -207.96086467914034
    Total Energy =                       -207.9608646791403430
  Basis Set: 6-31G*
  Basis Set:
  Basis Set: 6-31G*
  Basis Set:
  @DF-RHF Final Energy:  -207.96099454964599
    Total Energy =                       -207.9609945496460455
  Basis Set: 6-31G*
  Basis Set:
  Basis Set: 6-31G*
  Basis Set:
  @DF-RHF Final Energy:  -207.96088577470613
    Total Energy =                       -207.9608857747060142
  Basis Set: 6-31G*
  Basis Set:
  Basis Set: 6-31G*
  Basis Set:
  @DF-RHF Final Energy:  -207.96103444666298
    Total Energy =                       -207.9610344466629499
  Basis Set: 6-31G*
  Basis Set:
  Basis Set: 6-31G*
  Basis Set:
  @DF-RHF Final Energy:  -207.96105835910566
    Total Energy =                       -207.9610583591056070
  Basis Set: 6-31G*
  Basis Set:
  Basis Set: 6-31G*
  Basis Set:
  @DF-RHF Final Energy:  -207.96106762772848
    Total Energy =                       -207.9610676277284540
  Basis Set: 6-31G*
  Basis Set:
  Charge       = 0
  Multiplicity = 1
  Basis Set: 6-31G*
  Basis Set:

    Orbital Energies (a.u.)
    -----------------------

    Doubly Occupied:

       1A    -20.526207     2A    -15.590549     3A    -11.343325
       4A    -11.260889     5A     -1.389489     6A     -1.236179
       7A     -0.967942     8A     -0.807626     9A     -0.746458
      10A     -0.641369    11A     -0.626701    12A     -0.592684
      13A     -0.556745    14A     -0.534086    15A     -0.424097
      16A     -0.391225

  @DF-RHF Final Energy:  -207.96106776878028

   => Energetics <=

    Nuclear Repulsion Energy =            122.6258466885800829
    One-Electron Energy =                -525.9026847250623860
    Two-Electron Energy =                 195.3157702677019643
    DFT Exchange-Correlation Energy =       0.0000000000000000
    Empirical Dispersion Energy =           0.0000000000000000
    PCM Polarization Energy =               0.0000000000000000
    EFP Energy =                            0.0000000000000000
    Total Energy =                       -207.9610677687803673
    Molecular point group: c1
  Basis Set: 6-31G*
  Basis Set:

  -Total Gradient:
     Atom            X                  Y                   Z
    ------   -----------------  -----------------  -----------------
       1       -0.000003668043     0.000006580951    -0.000007132351
       2       -0.000022089589     0.000026816188     0.000054565195
       3        0.000018596918     0.000026221556    -0.000030950316
       4        0.000019732918    -0.000020012103    -0.000003296547
       5        0.000039382730     0.000006156102     0.000016808356
       6       -0.000036756780    -0.000016132509    -0.000007023681
       7       -0.000011500509    -0.000028028534    -0.000022007105
       8       -0.000001343713    -0.000000692463     0.000001450136
       9       -0.000002353933    -0.000000909188    -0.000002413682

  **** Optimization is complete! (in 8 steps) ****
    Final optimized geometry and variables:
    Molecular point group: c1

    Geometry (in Angstrom), charge = 0, multiplicity = 1:

    H           -1.299459139576     1.424096144725    -0.093041909767
    C           -0.583925720732     0.623491965337    -0.287045228867
    N           -0.021387870159     0.144311144641     0.838517513069
    O           -0.337947125580     0.245287595005    -1.394088415724
    C            0.908655777021    -0.964508969207     0.824131374761
    H           -0.370477186347     0.468806339842     1.710554097995
    H            1.567672889834    -0.866050185108    -0.025345022834
    H            0.398951771519    -1.919926333401     0.755631925915
    H            1.497443200525    -0.944496647579     1.731746971023

  Mulliken Charges: (a.u.)
   Center  Symbol    Alpha    Beta     Spin     Total
       1     H     0.42701  0.42701  0.00000  0.14599
       2     C     2.74685  2.74685  0.00000  0.50630
       3     N     3.87422  3.87422  0.00000 -0.74845
       4     O     4.28312  4.28312  0.00000 -0.56623
       5     C     3.13927  3.13927  0.00000 -0.27854
       6     H     0.30886  0.30886  0.00000  0.38229
       7     H     0.39434  0.39434  0.00000  0.21132
       8     H     0.41138  0.41138  0.00000  0.17725
       9     H     0.41496  0.41496  0.00000  0.17007

   Total alpha = 16.00000, Total beta = 16.00000, Total charge = -0.00000
