  ==> Input File <==

--------------------------------------------------------------------------
set {
	reference rhf
	basis cc-pvtz
}

set_num_threads( 4 )
memory 2 gb

molecule MOL {
0 1

H	 -0.809092	 -2.470949	 0.493842
N	 -0.060784	 -1.820607	 0.381307
C	 -0.561396	 -0.500007	 0.035200
H	 0.533262	 -2.176511	 -0.338261
C	 0.575129	 0.507849	 -0.048832
H	 -1.253437	 -0.192905	 0.812365
H	 -1.119171	 -0.488828	 -0.902444
C	 1.951750	 -0.141983	 0.035101
H	 0.478254	 1.061643	 -0.975981
H	 0.467676	 1.231891	 0.755499
H	 2.101550	 -0.848142	 -0.774949
H	 2.738260	 0.600794	 -0.026526
H	 2.078939	 -0.679792	 0.968824

	symmetry c1
}
set optking {
	frozen_dihedral = ("
		6 3 5 9
	")
}

ee = optimize('scf')
oeprop('DIPOLE', 'QUADRUPOLE', 'MULLIKEN_CHARGES')
f=open( 'psi4out.xyz', 'w' )
f.write( "13  " )
f.write( str(ee) + "\n" )
f.write( MOL.save_string_xyz() )
f.close()
--------------------------------------------------------------------------

    Molecular point group: c1
  Charge       = 0
  Multiplicity = 1
  Basis Set: CC-PVTZ
  Basis Set:
  @DF-RHF Final Energy:  -173.34029100536225
    Total Energy =                       -173.3402910053622747
    Molecular point group: c1
  Basis Set: CC-PVTZ
  Basis Set:
  Basis Set: CC-PVTZ
  Basis Set:
  @DF-RHF Final Energy:  -173.34075960781877
    Total Energy =                       -173.3407596078186543
  Basis Set: CC-PVTZ
  Basis Set:
  Basis Set: CC-PVTZ
  Basis Set:
  @DF-RHF Final Energy:  -173.34304066406133
    Total Energy =                       -173.3430406640614478
  Basis Set: CC-PVTZ
  Basis Set:
  Basis Set: CC-PVTZ
  Basis Set:
  @DF-RHF Final Energy:  -173.34322772377615
    Total Energy =                       -173.3432277237762662
  Basis Set: CC-PVTZ
  Basis Set:
  Basis Set: CC-PVTZ
  Basis Set:
  @DF-RHF Final Energy:  -173.34324123017279
    Total Energy =                       -173.3432412301727936
  Basis Set: CC-PVTZ
  Basis Set:
  Basis Set: CC-PVTZ
  Basis Set:
  @DF-RHF Final Energy:  -173.34324463191774
    Total Energy =                       -173.3432446319175710
  Basis Set: CC-PVTZ
  Basis Set:
  Charge       = 0
  Multiplicity = 1
  Basis Set: CC-PVTZ
  Basis Set:

    Orbital Energies (a.u.)
    -----------------------

    Doubly Occupied:

       1A    -15.526252     2A    -11.239338     3A    -11.210738
       4A    -11.200916     5A     -1.176903     6A     -1.026447
       7A     -0.907213     8A     -0.785472     9A     -0.669743
      10A     -0.635803    11A     -0.586437    12A     -0.560959
      13A     -0.540146    14A     -0.486574    15A     -0.476751
      16A     -0.461850    17A     -0.380698

  @DF-RHF Final Energy:  -173.34324472568295

   => Energetics <=

    Nuclear Repulsion Energy =            133.9651189606170192
    One-Electron Energy =                -498.8722473393498831
    Two-Electron Energy =                 191.5638836530498565
    DFT Exchange-Correlation Energy =       0.0000000000000000
    Empirical Dispersion Energy =           0.0000000000000000
    PCM Polarization Energy =               0.0000000000000000
    EFP Energy =                            0.0000000000000000
    Total Energy =                       -173.3432447256830073
    Molecular point group: c1
  Basis Set: CC-PVTZ
  Basis Set:

  -Total Gradient:
     Atom            X                  Y                   Z
    ------   -----------------  -----------------  -----------------
       1       -0.000001580121    -0.000003985029    -0.000000242507
       2        0.000003198062     0.000013370379    -0.000016584388
       3       -0.001417617173     0.001453114831    -0.002650915532
       4        0.000008244683    -0.000009724941    -0.000001809806
       5       -0.001681847176     0.002020550924     0.002057545262
       6        0.001452142417    -0.001530306512     0.001939660327
       7       -0.000000618172    -0.000004811623    -0.000001833817
       8       -0.000017320627     0.000006323077    -0.000006027573
       9        0.001647667882    -0.001946075776    -0.001322580604
      10        0.000004471434     0.000006070821     0.000001015471
      11        0.000004054894    -0.000003280645    -0.000000650480
      12        0.000001039021     0.000001187770     0.000001091686
      13       -0.000001835122    -0.000002433273     0.000001331959

  **** Optimization is complete! (in 7 steps) ****
    Final optimized geometry and variables:
    Molecular point group: c1

    Geometry (in Angstrom), charge = 0, multiplicity = 1:

    H           -1.402735437000    -1.919913375187     0.456203206727
    N           -0.608555111122    -1.339168118613     0.290800556557
    C           -1.034385685805     0.006577704849    -0.073429996981
    H           -0.081351255863    -1.767624084596    -0.439923720208
    C            0.125894178986     1.031002906642    -0.129643198724
    H           -1.732143088334     0.315284034682     0.694744101747
    H           -1.573710769111     0.025357313057    -1.018423307086
    C            1.537151460169     0.448283844463    -0.065184665851
    H            0.044710075712     1.592639552405    -1.054156885713
    H            0.012908903403     1.744385832508     0.678354414848
    H            1.735653899267    -0.220401945430    -0.896579533443
    H            2.266677071617     1.248758922193    -0.116139262851
    H            1.700122106989    -0.103548865662     0.849536595547

  Mulliken Charges: (a.u.)
   Center  Symbol    Alpha    Beta     Spin     Total
       1     H     0.42921  0.42921  0.00000  0.14157
       2     N     3.68794  3.68794  0.00000 -0.37588
       3     C     3.03340  3.03340  0.00000 -0.06681
       4     H     0.42933  0.42933  0.00000  0.14133
       5     C     3.08479  3.08479  0.00000 -0.16958
       6     H     0.45666  0.45666  0.00000  0.08669
       7     H     0.46282  0.46282  0.00000  0.07436
       8     C     3.15468  3.15468  0.00000 -0.30936
       9     H     0.45447  0.45447  0.00000  0.09106
      10     H     0.45347  0.45347  0.00000  0.09306
      11     H     0.46024  0.46024  0.00000  0.07952
      12     H     0.44962  0.44962  0.00000  0.10076
      13     H     0.44336  0.44336  0.00000  0.11328

   Total alpha = 17.00000, Total beta = 17.00000, Total charge = -0.00000
