                              Psi4 1.0.54 Driver

  ==> Input File <==

--------------------------------------------------------------------------
set {
	reference rhf
	basis cc-pvtz
}

set_num_threads( 4 )
memory 2 gb

molecule MOL {
0 1

H	 0.714886	 2.687017	 4.771236
C	 0.826293	 2.213701	 3.814295
C	 0.224450	 2.765165	 2.697463
C	 1.570802	 1.054825	 3.701622
H	 -0.353281	 3.664691	 2.785677
C	 0.368062	 2.156380	 1.468134
H	 2.037134	 0.627958	 4.568335
C	 1.715528	 0.444063	 2.471369
H	 -0.091043	 2.569740	 0.593254
C	 1.113980	 0.993779	 1.350449
H	 2.291436	 -0.453508	 2.380666
C	 1.238974	 0.374429	 0.000004
O	 1.968286	 -0.725612	 -0.000027
O	 0.737645	 0.818492	 -0.978084
C	 3.373556	 -0.568203	 0.000011
H	 3.695416	 -0.031588	 -0.879663
H	 3.782700	 -1.565294	 -0.000152
H	 3.695405	 -0.031851	 0.879862

	symmetry c1
}
set optking {
	frozen_dihedral = ("
		10 12 13 15
	")
}

ee,wfn = optimize('scf', return_wfn=True)
oeprop( wfn, 'DIPOLE', 'QUADRUPOLE', 'MULLIKEN_CHARGES')
f=open( 'psi4out.xyz', 'w' )
f.write( "18  " )
f.write( str(ee) + "\n" )
f.write( MOL.save_string_xyz() )
f.close()
--------------------------------------------------------------------------

    Molecular point group: c1
  Charge       = 0
  Multiplicity = 1
  Basis Set: CC-PVTZ
  Basis Set:
  @DF-RHF Final Energy:  -457.48695340566189
    Total Energy =                       -457.4869534056614384
    Molecular point group: c1
  Basis Set: CC-PVTZ
  Basis Set:
  Basis Set: CC-PVTZ
  Basis Set:
  @DF-RHF Final Energy:  -457.48684259085047
    Total Energy =                       -457.4868425908503013
  Basis Set: CC-PVTZ
  Basis Set:
  Basis Set: CC-PVTZ
  Basis Set:
  @DF-RHF Final Energy:  -457.49042859220350
    Total Energy =                       -457.4904285922037843
  Basis Set: CC-PVTZ
  Basis Set:
  Basis Set: CC-PVTZ
  Basis Set:
  @DF-RHF Final Energy:  -457.49054535386961
    Total Energy =                       -457.4905453538699476
  Basis Set: CC-PVTZ
  Basis Set:
  Basis Set: CC-PVTZ
  Basis Set:
  @DF-RHF Final Energy:  -457.49039742788244
    Total Energy =                       -457.4903974278821579
  Basis Set: CC-PVTZ
  Basis Set:
  Basis Set: CC-PVTZ
  Basis Set:
  @DF-RHF Final Energy:  -457.49060544826585
    Total Energy =                       -457.4906054482655691
  Basis Set: CC-PVTZ
  Basis Set:
  Charge       = 0
  Multiplicity = 1
  Basis Set: CC-PVTZ
  Basis Set:

    Orbital Energies (a.u.)
    -----------------------

    Doubly Occupied:

       1A    -20.582519     2A    -20.545084     3A    -11.373825
       4A    -11.289766     5A    -11.250040     6A    -11.248719
       7A    -11.248489     8A    -11.245283     9A    -11.241842
      10A    -11.240607    11A     -1.464845    12A     -1.372255
      13A     -1.175563    14A     -1.050184    15A     -1.034466
      16A     -0.976724    17A     -0.875865    18A     -0.845124
      19A     -0.783607    20A     -0.741889    21A     -0.690015
      22A     -0.680563    23A     -0.666844    24A     -0.642196
      25A     -0.633378    26A     -0.612725    27A     -0.602002
      28A     -0.564260    29A     -0.534106    30A     -0.524987
      31A     -0.509276    32A     -0.498072    33A     -0.467007
      34A     -0.446885    35A     -0.355176    36A     -0.351685

  @DF-RHF Final Energy:  -457.49060673169930

   => Energetics <=

    Nuclear Repulsion Energy =            497.5306289559241009
    One-Electron Energy =               -1609.3107252890695236
    Two-Electron Energy =                 654.2894896014463484
    DFT Exchange-Correlation Energy =       0.0000000000000000
    Empirical Dispersion Energy =           0.0000000000000000
    PCM Polarization Energy =               0.0000000000000000
    EFP Energy =                            0.0000000000000000
    Total Energy =                       -457.4906067316990175
    Molecular point group: c1
  Basis Set: CC-PVTZ
  Basis Set:

  -Total Gradient:
     Atom            X                  Y                   Z
    ------   -----------------  -----------------  -----------------
       1        0.000002948551     0.000001209529    -0.000001692664
       2       -0.000016539324    -0.000007631241    -0.000020425619
       3       -0.000007495300    -0.000010346022     0.000009634924
       4        0.000018697097    -0.000011467625     0.000021389655
       5        0.000005960131     0.000006773986    -0.000005044646
       6        0.000026440271     0.000029847441    -0.000002118915
       7       -0.000005774780    -0.000001126520    -0.000005846668
       8       -0.000004743264     0.000014682850     0.000055630392
       9       -0.000008891375     0.000002658212     0.000004680663
      10        0.001088694950     0.000822239820    -0.000245716760
      11        0.000006887054     0.000012265913    -0.000013402008
      12       -0.001548037466    -0.001391200689     0.001129702986
      13        0.000398059332     0.000570939105    -0.002406933196
      14       -0.000033744650     0.000008888751    -0.000033644993
      15        0.000126239721    -0.000024888030     0.001483543506
      16       -0.000021224371    -0.000017666536     0.000026825593
      17        0.000002023869     0.000008397497     0.000002632540
      18       -0.000029500445    -0.000013576445     0.000000785212

  **** Optimization is complete! (in 7 steps) ****
    Final optimized geometry and variables:
    Molecular point group: c1

    Geometry (in Angstrom), charge = 0, multiplicity = 1:

    H           -0.851008286384     1.798941373533     3.376736309496
    C           -0.679967089740     1.324117529098     2.429459431525
    C           -0.981904917902     1.994738649617     1.256766028698
    C           -0.163165353710     0.043892054651     2.384041918518
    H           -1.385870424006     2.987831017323     1.293485121492
    C           -0.768466543579     1.382802058681     0.039986113746
    H            0.061674170160    -0.479453796645     3.293082033595
    C            0.061681472122    -0.565548853686     1.164365544648
    H           -1.008756582599     1.884324938375    -0.875601622263
    C           -0.237878609702     0.101720394495    -0.012176226627
    H            0.452998509865    -1.562050006033     1.127006575212
    C           -0.036785116879    -0.533527691570    -1.348982250374
    O            0.737067591700    -1.633942326642    -1.362248766299
    O           -0.532895257561    -0.125237985835    -2.335952564354
    C            2.135336479991    -1.438066144637    -1.337625688955
    H            2.459429494900    -0.934231040191    -2.239278441389
    H            2.582402602993    -2.417866770120    -1.294357565449
    H            2.440031661781    -0.864325845039    -0.471615470670

  Mulliken Charges: (a.u.)
   Center  Symbol    Alpha    Beta     Spin     Total
       1     H     0.41957  0.41957  0.00000  0.16085
       2     C     3.07069  3.07069  0.00000 -0.14139
       3     C     3.07297  3.07297  0.00000 -0.14593
       4     C     3.07497  3.07497  0.00000 -0.14995
       5     H     0.41984  0.41984  0.00000  0.16033
       6     C     3.08078  3.08078  0.00000 -0.16156
       7     H     0.42065  0.42065  0.00000  0.15869
       8     C     3.08959  3.08959  0.00000 -0.17918
       9     H     0.40724  0.40724  0.00000  0.18553
      10     C     3.03233  3.03233  0.00000 -0.06466
      11     H     0.40763  0.40763  0.00000  0.18474
      12     C     2.76531  2.76531  0.00000  0.46939
      13     O     4.16668  4.16668  0.00000 -0.33336
      14     O     4.17816  4.17816  0.00000 -0.35633
      15     C     3.04550  3.04550  0.00000 -0.09100
      16     H     0.44796  0.44796  0.00000  0.10409
      17     H     0.44200  0.44200  0.00000  0.11600
      18     H     0.45813  0.45813  0.00000  0.08375

   Total alpha = 36.00000, Total beta = 36.00000, Total charge = -0.00000

*** Psi4 exiting successfully. Buy a developer a beer!
