  ==> Input File <==

--------------------------------------------------------------------------
set {
	reference rhf
	basis 6-31G*
}

set_num_threads( 4 )
memory 2 gb

molecule MOL {
0 1

O	 0.391030	 1.298905	 0.000133
C	 0.503002	 0.111612	 0.000005
C	 -0.702327	 -0.811998	 -0.000075
C	 1.863306	 -0.554493	 0.000030
C	 -0.721117	 -1.791424	 1.167196
H	 -1.597494	 -0.192767	 0.000004
H	 -0.716501	 -1.342413	 -0.950456
H	 -0.732181	 -1.266139	 2.114389
H	 -1.601460	 -2.423573	 1.115825
H	 0.156621	 -2.425979	 1.155501
H	 1.974395	 -1.189404	 -0.874166
H	 2.638695	 0.198920	 -0.000196
H	 1.974487	 -1.188655	 0.874727

	symmetry c1
}
set optking {
	frozen_dihedral = ("
		6 3 2 1
	")
}

ee = optimize('scf')
oeprop('DIPOLE', 'QUADRUPOLE', 'MULLIKEN_CHARGES')
f=open( 'psi4out.xyz', 'w' )
f.write( "13  " )
f.write( str(ee) + "\n" )
f.write( MOL.save_string_xyz() )
f.close()
--------------------------------------------------------------------------

    Molecular point group: c1
  Charge       = 0
  Multiplicity = 1
  Basis Set: 6-31G*
  Basis Set:
  @DF-RHF Final Energy:  -230.99408294846461
    Total Energy =                       -230.9940829484644382
    Molecular point group: c1
  Basis Set: 6-31G*
  Basis Set:
  Basis Set: 6-31G*
  Basis Set:
  @DF-RHF Final Energy:  -230.99344253548765
    Total Energy =                       -230.9934425354877021
  Basis Set: 6-31G*
  Basis Set:
  Basis Set: 6-31G*
  Basis Set:
  @DF-RHF Final Energy:  -230.99395964601874
    Total Energy =                       -230.9939596460188795
  Basis Set: 6-31G*
  Basis Set:
  Basis Set: 6-31G*
  Basis Set:
  @DF-RHF Final Energy:  -230.99494531229763
    Total Energy =                       -230.9949453122976593
  Basis Set: 6-31G*
  Basis Set:
  @DF-RHF Final Energy:  -230.99501167907604
    Total Energy =                       -230.9950116790758727
  @DF-RHF Final Energy:  -230.99504095867948
    Total Energy =                       -230.9950409586791693
  Basis Set: 6-31G*
  Basis Set:
  @DF-RHF Final Energy:  -230.99504856083803
    Total Energy =                       -230.9950485608380859
  Basis Set: 6-31G*
  Basis Set:
  Basis Set: 6-31G*
  Basis Set:
  @DF-RHF Final Energy:  -230.99506093043468
    Total Energy =                       -230.9950609304345903
  Basis Set: 6-31G*
  Basis Set:
  Basis Set: 6-31G*
  Basis Set:
  @DF-RHF Final Energy:  -230.99506482271187
    Total Energy =                       -230.9950648227117540
  Basis Set: 6-31G*
  Basis Set:
  Charge       = 0
  Multiplicity = 1
  Basis Set: 6-31G*
  Basis Set:

    Orbital Energies (a.u.)
    -----------------------

    Doubly Occupied:

       1A    -20.549259     2A    -11.325599     3A    -11.233560
       4A    -11.230670     5A    -11.228525     6A     -1.394542
       7A     -1.068060     8A     -0.994137     9A     -0.888574
      10A     -0.733353    11A     -0.653182    12A     -0.647379
      13A     -0.614380    14A     -0.591654    15A     -0.560939
      16A     -0.542705    17A     -0.529136    18A     -0.504324
      19A     -0.482546    20A     -0.400021

  @DF-RHF Final Energy:  -230.99506486352314

   => Energetics <=

    Nuclear Repulsion Energy =            176.8681184325875222
    One-Electron Energy =                -663.3812745417384349
    Two-Electron Energy =                 255.5180912456279430
    DFT Exchange-Correlation Energy =       0.0000000000000000
    Empirical Dispersion Energy =           0.0000000000000000
    PCM Polarization Energy =               0.0000000000000000
    EFP Energy =                            0.0000000000000000
    Total Energy =                       -230.9950648635229982
    Molecular point group: c1
  Basis Set: 6-31G*
  Basis Set:

  -Total Gradient:
     Atom            X                  Y                   Z
    ------   -----------------  -----------------  -----------------
       1        0.000001748422     0.000000654990    -0.000081927641
       2        0.000000046718    -0.000005455423     0.000131490427
       3        0.000002366912     0.000002604434    -0.000126021324
       4       -0.000001013404     0.000005786970    -0.000009799759
       5       -0.000000276164    -0.000001465263     0.000002839263
       6        0.000000915171    -0.000001975987     0.000080411209
       7        0.000001224104    -0.000000732266    -0.000001652302
       8       -0.000000075323    -0.000000673079    -0.000001625153
       9       -0.000002022399    -0.000000122750    -0.000000786378
      10       -0.000000761564     0.000002210352    -0.000000562924
      11       -0.000001378527     0.000002514588     0.000001867128
      12        0.000000051855    -0.000001396117     0.000000646623
      13       -0.000000825802    -0.000001950451     0.000005120831

  **** Optimization is complete! (in 10 steps) ****
    Final optimized geometry and variables:
    Molecular point group: c1

    Geometry (in Angstrom), charge = 0, multiplicity = 1:

    O            0.119169603127     1.654153050388    -0.179276256725
    C            0.236913551088     0.467824300284    -0.228225716229
    C           -0.977029318188    -0.443163554712    -0.264694267588
    C            1.606729472016    -0.180146805014    -0.256244035733
    C           -1.016927539097    -1.463825795922     0.879055123530
    H           -1.853106957582     0.192193257959    -0.237770047428
    H           -0.977292301706    -0.968772275018    -1.217543257508
    H           -0.988683172100    -0.970149591954     1.845296901310
    H           -1.932663546264    -2.042176040470     0.830410321297
    H           -0.186612548386    -2.160112036975     0.831220674463
    H            1.648416724768    -0.993309204696    -0.973742332779
    H            2.350584279122     0.565707366641    -0.499857493887
    H            1.837810513656    -0.595121927130     0.720638403699

  Mulliken Charges: (a.u.)
   Center  Symbol    Alpha    Beta     Spin     Total
       1     O     4.26007  4.26007  0.00000 -0.52014
       2     C     2.73436  2.73436  0.00000  0.53129
       3     C     3.20386  3.20386  0.00000 -0.40771
       4     C     3.29084  3.29084  0.00000 -0.58169
       5     C     3.25124  3.25124  0.00000 -0.50248
       6     H     0.39816  0.39816  0.00000  0.20368
       7     H     0.41118  0.41118  0.00000  0.17764
       8     H     0.41176  0.41176  0.00000  0.17649
       9     H     0.41018  0.41018  0.00000  0.17963
      10     H     0.41662  0.41662  0.00000  0.16676
      11     H     0.41191  0.41191  0.00000  0.17619
      12     H     0.39578  0.39578  0.00000  0.20844
      13     H     0.40404  0.40404  0.00000  0.19192

   Total alpha = 20.00000, Total beta = 20.00000, Total charge =  0.00000
