  ==> Input File <==

--------------------------------------------------------------------------
set {
	reference rhf
	basis 6-31G*
}

set_num_threads( 1 )
memory 2 gb

molecule MOL {
0 1

O	 2.192748	 -0.313652	 -0.277758
C	 1.122059	 0.121804	 -0.000188
C	 -0.170150	 -0.657997	 -0.000612
O	 0.921263	 1.384510	 0.355098
C	 -1.412532	 0.227344	 -0.000452
H	 -0.153702	 -1.313099	 -0.867402
H	 -0.153924	 -1.313811	 0.865644
C	 -2.706999	 -0.587347	 -0.000541
H	 -1.388000	 0.879466	 -0.868000
H	 -1.387972	 0.879138	 0.867341
C	 -3.956778	 0.291888	 0.000910
H	 -2.726114	 -1.239230	 -0.871609
H	 -2.725217	 -1.240844	 0.869333
H	 -3.985213	 0.933254	 -0.875158
H	 -4.860123	 -0.309979	 0.000519
H	 -3.984618	 0.931166	 0.878514
C	 2.057232	 2.228909	 0.396384
H	 2.780051	 1.858922	 1.109217
H	 1.693734	 3.197912	 0.701099
H	 2.519587	 2.291831	 -0.578181

	symmetry c1
}
set optking {
	frozen_dihedral = ("
		9 5 8 12,
		9 5 3 6,
		1 2 4 17
	")
}

ee = energy('scf')
oeprop('DIPOLE', 'QUADRUPOLE', 'MULLIKEN_CHARGES')
f=open( 'psi4out.xyz', 'w' )
f.write( "20  " )
f.write( str(ee) + "\n" )
f.write( MOL.save_string_xyz() )
f.close()
--------------------------------------------------------------------------

    Molecular point group: c1

    Geometry (in Angstrom), charge = 0, multiplicity = 1:

       Center              X                  Y                   Z               Mass
    ------------   -----------------  -----------------  -----------------  -----------------
           O          2.412258904307    -0.677369519462    -0.339989036297    15.994914619560
           C          1.341569904307    -0.241913519462    -0.062419036297    12.000000000000
           C          0.049360904307    -1.021714519462    -0.062843036297    12.000000000000
           O          1.140773904307     1.020792480538     0.292866963703    15.994914619560
           C         -1.193021095693    -0.136373519462    -0.062683036297    12.000000000000
           H          0.065808904307    -1.676816519462    -0.929633036297     1.007825032070
           H          0.065586904307    -1.677528519462     0.803412963703     1.007825032070
           C         -2.487488095693    -0.951064519462    -0.062772036297    12.000000000000
           H         -1.168489095693     0.515748480538    -0.930231036297     1.007825032070
           H         -1.168461095693     0.515420480538     0.805109963703     1.007825032070
           C         -3.737267095693    -0.071829519462    -0.061321036297    12.000000000000
           H         -2.506603095693    -1.602947519462    -0.933840036297     1.007825032070
           H         -2.505706095693    -1.604561519462     0.807101963703     1.007825032070
           H         -3.765702095693     0.569536480538    -0.937389036297     1.007825032070
           H         -4.640612095693    -0.673696519462    -0.061712036297     1.007825032070
           H         -3.765107095693     0.567448480538     0.816282963703     1.007825032070
           C          2.276742904307     1.865191480538     0.334152963703    12.000000000000
           H          2.999561904307     1.495204480538     1.046985963703     1.007825032070
           H          1.913244904307     2.834194480538     0.638867963703     1.007825032070
           H          2.739097904307     1.928113480538    -0.640412036297     1.007825032070

  Charge       = 0
  Multiplicity = 1
  Basis Set: 6-31G*
  Basis Set:

    Orbital Energies (a.u.)
    -----------------------

    Doubly Occupied:

       1A    -20.605381     2A    -20.542808     3A    -11.372669
       4A    -11.281380     5A    -11.235571     6A    -11.221823
       7A    -11.221161     8A    -11.212682     9A     -1.470121
      10A     -1.362072    11A     -1.092446    12A     -1.024990
      13A     -0.965021    14A     -0.891379    15A     -0.805586
      16A     -0.774622    17A     -0.694702    18A     -0.684642
      19A     -0.671376    20A     -0.645967    21A     -0.593862
      22A     -0.591586    23A     -0.579529    24A     -0.542167
      25A     -0.532203    26A     -0.525060    27A     -0.503175
      28A     -0.492983    29A     -0.479195    30A     -0.472898
      31A     -0.452327    32A     -0.427605

  @DF-RHF Final Energy:  -383.93788130625109

   => Energetics <=

    Nuclear Repulsion Energy =            385.8067078152396903
    One-Electron Energy =               -1287.5513770135612504
    Two-Electron Energy =                 517.8067878920713838
    DFT Exchange-Correlation Energy =       0.0000000000000000
    Empirical Dispersion Energy =           0.0000000000000000
    PCM Polarization Energy =               0.0000000000000000
    EFP Energy =                            0.0000000000000000
    Total Energy =                       -383.9378813062502331

  Mulliken Charges: (a.u.)
   Center  Symbol    Alpha    Beta     Spin     Total
       1     O     4.28826  4.28826  0.00000 -0.57653
       2     C     2.60223  2.60223  0.00000  0.79554
       3     C     3.21397  3.21397  0.00000 -0.42794
       4     O     4.30479  4.30479  0.00000 -0.60957
       5     C     3.15109  3.15109  0.00000 -0.30219
       6     H     0.39811  0.39811  0.00000  0.20378
       7     H     0.39894  0.39894  0.00000  0.20212
       8     C     3.15423  3.15423  0.00000 -0.30846
       9     H     0.41685  0.41685  0.00000  0.16630
      10     H     0.40975  0.40975  0.00000  0.18049
      11     C     3.23929  3.23929  0.00000 -0.47857
      12     H     0.42222  0.42222  0.00000  0.15556
      13     H     0.42247  0.42247  0.00000  0.15507
      14     H     0.42076  0.42076  0.00000  0.15848
      15     H     0.41813  0.41813  0.00000  0.16375
      16     H     0.42070  0.42070  0.00000  0.15860
      17     C     3.09215  3.09215  0.00000 -0.18429
      18     H     0.40871  0.40871  0.00000  0.18259
      19     H     0.40883  0.40883  0.00000  0.18234
      20     H     0.40854  0.40854  0.00000  0.18292

   Total alpha = 32.00000, Total beta = 32.00000, Total charge =  0.00000
