                              Psi4 1.0.54 Driver

  ==> Input File <==

--------------------------------------------------------------------------
set {
	reference rhf
	basis cc-pvtz
}

set_num_threads( 4 )
memory 2 gb

molecule MOL {
0 1

H	 0.967898	 0.873609	 2.040483
C	 0.025621	 0.962157	 1.519921
O	 0.000000	 0.000000	 0.518769
H	 -0.783306	 0.817021	 2.232962
H	 -0.054607	 1.966627	 1.109483
C	 -1.165153	 0.000000	 -0.236961
H	 -1.229451	 0.882440	 -0.870223
H	 -2.002557	 0.000000	 0.445289
H	 -1.229451	 -0.882440	 -0.870223

	symmetry c1
}
set optking {
	frozen_dihedral = ("
		2 3 6 7
	")
}

ee,wfn = optimize('scf', return_wfn=True)
oeprop( wfn, 'DIPOLE', 'QUADRUPOLE', 'MULLIKEN_CHARGES')
f=open( 'psi4out.xyz', 'w' )
f.write( "9  " )
f.write( str(ee) + "\n" )
f.write( MOL.save_string_xyz() )
f.close()
--------------------------------------------------------------------------

    Molecular point group: c1
  Charge       = 0
  Multiplicity = 1
  Basis Set: CC-PVTZ
  Basis Set:
  @DF-RHF Final Energy:  -154.12588742022393
    Total Energy =                       -154.1258874202238189
    Molecular point group: c1
  Basis Set: CC-PVTZ
  Basis Set:
  Basis Set: CC-PVTZ
  Basis Set:
  @DF-RHF Final Energy:  -154.12674499146635
    Total Energy =                       -154.1267449914663530
  Basis Set: CC-PVTZ
  Basis Set:
  Basis Set: CC-PVTZ
  Basis Set:
  @DF-RHF Final Energy:  -154.12698055010205
    Total Energy =                       -154.1269805501018766
  Basis Set: CC-PVTZ
  Basis Set:
  Charge       = 0
  Multiplicity = 1
  Basis Set: CC-PVTZ
  Basis Set:

    Orbital Energies (a.u.)
    -----------------------

    Doubly Occupied:

       1A    -20.550238     2A    -11.263245     3A    -11.263129
       4A     -1.382675     5A     -0.975944     6A     -0.872632
       7A     -0.664163     8A     -0.655629     9A     -0.646929
      10A     -0.552389    11A     -0.529345    12A     -0.476808
      13A     -0.420264

  @DF-RHF Final Energy:  -154.12698188054742

   => Energetics <=

    Nuclear Repulsion Energy =             84.8478023310283476
    One-Electron Energy =                -377.4427855706473451
    Two-Electron Energy =                 138.4680013590715362
    DFT Exchange-Correlation Energy =       0.0000000000000000
    Empirical Dispersion Energy =           0.0000000000000000
    PCM Polarization Energy =               0.0000000000000000
    EFP Energy =                            0.0000000000000000
    Total Energy =                       -154.1269818805474756
    Molecular point group: c1
  Basis Set: CC-PVTZ
  Basis Set:

  -Total Gradient:
     Atom            X                  Y                   Z
    ------   -----------------  -----------------  -----------------
       1       -0.000007395884    -0.000065818884    -0.000058098288
       2       -0.000578079528    -0.000598168609     0.000624921674
       3        0.000750207884     0.000735112843    -0.001358999582
       4        0.000007319678    -0.000022074034     0.000005060713
       5        0.000016416616     0.000018884966     0.000023185224
       6       -0.000953116277     0.000584736642     0.001685554528
       7        0.000685922699    -0.000650717074    -0.000967322062
       8        0.000022031717    -0.000000411460     0.000017713030
       9        0.000056693095    -0.000001544388     0.000027984762

  **** Optimization is complete! (in 4 steps) ****
    Final optimized geometry and variables:
    Molecular point group: c1

    Geometry (in Angstrom), charge = 0, multiplicity = 1:

    H            1.394438862293     0.516723333504     1.413623049854
    C            0.442587705121     0.620860377819     0.913387594638
    O            0.383504102840    -0.335717371865    -0.091760610691
    H           -0.353471083299     0.481467559694     1.641706795065
    H            0.367682566097     1.629580050627     0.511682338383
    C           -0.793140643455    -0.313588982589    -0.829302102813
    H           -0.851901745900     0.572831393461    -1.457620015705
    H           -1.670050289822    -0.345594634006    -0.186659023770
    H           -0.799212942191    -1.185557250088    -1.467617209068

  Mulliken Charges: (a.u.)
   Center  Symbol    Alpha    Beta     Spin     Total
       1     H     0.44843  0.44843  0.00000  0.10313
       2     C     3.02191  3.02191  0.00000 -0.04382
       3     O     4.16743  4.16743  0.00000 -0.33486
       4     H     0.47246  0.47246  0.00000  0.05508
       5     H     0.47362  0.47362  0.00000  0.05277
       6     C     3.02171  3.02171  0.00000 -0.04342
       7     H     0.47115  0.47115  0.00000  0.05770
       8     H     0.47445  0.47445  0.00000  0.05110
       9     H     0.44884  0.44884  0.00000  0.10232

   Total alpha = 13.00000, Total beta = 13.00000, Total charge =  0.00000

*** Psi4 exiting successfully. Buy a developer a beer!
