  ==> Input File <==

--------------------------------------------------------------------------
set {
	reference rhf
	basis 6-31G*
}

set_num_threads( 4 )
memory 2 gb

molecule MOL {
0 1

H	 2.332609	 0.878551	 -1.051851
C	 2.357710	 0.000000	 -0.417167
C	 1.175432	 0.000000	 0.532082
H	 3.291263	 0.000000	 0.136880
H	 2.332609	 -0.878551	 -1.051851
O	 0.000000	 0.000000	 -0.221444
H	 1.206604	 0.877321	 1.177902
H	 1.206604	 -0.877321	 1.177902
C	 -1.175432	 0.000000	 0.532082
C	 -1.859866	 1.341863	 0.359425
H	 -0.947040	 -0.177706	 1.582798
H	 -1.831182	 -0.806133	 0.203617
H	 -1.211679	 2.142742	 0.696697
H	 -2.780465	 1.376777	 0.933678
H	 -2.097061	 1.513434	 -0.684418

	symmetry c1
}
set optking {
	frozen_dihedral = ("
		11 9 6 3
	")
}

ee = optimize('scf')
oeprop('DIPOLE', 'QUADRUPOLE', 'MULLIKEN_CHARGES')
f=open( 'psi4out.xyz', 'w' )
f.write( "15  " )
f.write( str(ee) + "\n" )
f.write( MOL.save_string_xyz() )
f.close()
--------------------------------------------------------------------------

    Molecular point group: c1
  Charge       = 0
  Multiplicity = 1
  Basis Set: 6-31G*
  Basis Set:
  @DF-RHF Final Energy:  -232.14035061135721
    Total Energy =                       -232.1403506113571211
    Molecular point group: c1
  Basis Set: 6-31G*
  Basis Set:
  Basis Set: 6-31G*
  Basis Set:
  @DF-RHF Final Energy:  -232.14084993332835
    Total Energy =                       -232.1408499333285818
  Basis Set: 6-31G*
  Basis Set:
  Basis Set: 6-31G*
  Basis Set:
  @DF-RHF Final Energy:  -232.14098969730199
    Total Energy =                       -232.1409896973019045
  Basis Set: 6-31G*
  Basis Set:
  Charge       = 0
  Multiplicity = 1
  Basis Set: 6-31G*
  Basis Set:

    Orbital Energies (a.u.)
    -----------------------

    Doubly Occupied:

       1A    -20.547969     2A    -11.269010     3A    -11.267790
       4A    -11.208831     5A    -11.208496     6A     -1.372865
       7A     -1.041967     8A     -0.983657     9A     -0.853763
      10A     -0.820927    11A     -0.670166    12A     -0.657737
      13A     -0.632648    14A     -0.573925    15A     -0.551895
      16A     -0.539072    17A     -0.522571    18A     -0.500693
      19A     -0.486270    20A     -0.461457    21A     -0.404337

  @DF-RHF Final Energy:  -232.14099094461835

   => Energetics <=

    Nuclear Repulsion Energy =            191.6738856367287553
    One-Electron Energy =                -694.4776571823919085
    Two-Electron Energy =                 270.6627806010448580
    DFT Exchange-Correlation Energy =       0.0000000000000000
    Empirical Dispersion Energy =           0.0000000000000000
    PCM Polarization Energy =               0.0000000000000000
    EFP Energy =                            0.0000000000000000
    Total Energy =                       -232.1409909446182951
    Molecular point group: c1
  Basis Set: 6-31G*
  Basis Set:

  -Total Gradient:
     Atom            X                  Y                   Z
    ------   -----------------  -----------------  -----------------
       1        0.000000994042    -0.000003135303    -0.000002072447
       2        0.000014073760     0.000027498578     0.000014144575
       3        0.000026940065    -0.000681345572    -0.000026484545
       4        0.000035332566    -0.000001884105    -0.000003146813
       5       -0.000012527893     0.000012687276     0.000021379800
       6       -0.000022339939     0.001108167216     0.000029342776
       7       -0.000023983267    -0.000011431299    -0.000041037357
       8        0.000004279311     0.000007462169     0.000021352627
       9       -0.000017791574    -0.001143302777    -0.000153733067
      10       -0.000052309154    -0.000047024337     0.000013253445
      11        0.000055594834     0.000728398943     0.000131973545
      12       -0.000023363199     0.000033863841     0.000005356374
      13        0.000015061488    -0.000038205400     0.000001775567
      14       -0.000010844105     0.000010687794    -0.000002793158
      15        0.000010883065    -0.000002437023    -0.000009311324

  **** Optimization is complete! (in 4 steps) ****
    Final optimized geometry and variables:
    Molecular point group: c1

    Geometry (in Angstrom), charge = 0, multiplicity = 1:

    H            2.227986423546     0.612820139712    -1.209930882989
    C            2.262349620596    -0.276641675454    -0.591032958051
    C            1.096694825568    -0.291530694600     0.378084893847
    H            3.205583395210    -0.288540892704    -0.053363918130
    H            2.223439737366    -1.143902262215    -1.240372313489
    O           -0.090709790613    -0.282325856350    -0.359594758008
    H            1.142203232855     0.575934151866     1.035540358120
    H            1.140843509382    -1.178405627313     1.008649791631
    C           -1.280791093643    -0.248513056532     0.382416413253
    C           -1.994022451164     1.080134744812     0.189182728896
    H           -1.077144744273    -0.411483127448     1.437675598989
    H           -1.909514597891    -1.065137341944     0.043079632479
    H           -1.380860359230     1.901609812396     0.545792670777
    H           -2.935061176288     1.095145374535     0.731762779522
    H           -2.200768129508     1.245830093261    -0.862200898146

  Mulliken Charges: (a.u.)
   Center  Symbol    Alpha    Beta     Spin     Total
       1     H     0.41362  0.41362  0.00000  0.17277
       2     C     3.24438  3.24438  0.00000 -0.48877
       3     C     2.98839  2.98839  0.00000  0.02322
       4     H     0.42280  0.42280  0.00000  0.15440
       5     H     0.41308  0.41308  0.00000  0.17384
       6     O     4.31213  4.31213  0.00000 -0.62425
       7     H     0.43291  0.43291  0.00000  0.13418
       8     H     0.43124  0.43124  0.00000  0.13751
       9     C     2.99103  2.99103  0.00000  0.01793
      10     C     3.24282  3.24282  0.00000 -0.48564
      11     H     0.43061  0.43061  0.00000  0.13877
      12     H     0.42037  0.42037  0.00000  0.15927
      13     H     0.41947  0.41947  0.00000  0.16105
      14     H     0.42429  0.42429  0.00000  0.15141
      15     H     0.41285  0.41285  0.00000  0.17430

   Total alpha = 21.00000, Total beta = 21.00000, Total charge = -0.00000
