  ==> Input File <==

--------------------------------------------------------------------------
set {
	reference rhf
	basis cc-pvtz
}

set_num_threads( 4 )
memory 2 gb

molecule MOL {
0 1

H	 -3.034039	 -0.667848	 0.004703
O	 -2.240597	 -1.171748	 0.000934
C	 -1.159675	 -0.364500	 0.000370
C	 -1.222405	 0.956243	 -0.394746
C	 0.043111	 -0.913945	 0.416867
H	 -2.153354	 1.383664	 -0.719867
C	 -0.068447	 1.720432	 -0.369771
H	 0.058218	 -1.944270	 0.715425
C	 1.192359	 -0.149809	 0.443397
H	 -0.112665	 2.747567	 -0.679301
C	 1.129060	 1.181028	 0.042333
C	 2.495570	 -0.740717	 0.918913
H	 2.015227	 1.786876	 0.053152
H	 3.315090	 -0.441624	 0.277234
H	 2.455664	 -1.821405	 0.935263
H	 2.725274	 -0.400747	 1.923054

	symmetry c1
}
set optking {
	frozen_dihedral = ("
		5 3 2 1
	")
}

ee = optimize('scf')
oeprop('DIPOLE', 'QUADRUPOLE', 'MULLIKEN_CHARGES')
f=open( 'psi4out.xyz', 'w' )
f.write( "16  " )
f.write( str(ee) + "\n" )
f.write( MOL.save_string_xyz() )
f.close()
--------------------------------------------------------------------------

    Molecular point group: c1
  Charge       = 0
  Multiplicity = 1
  Basis Set: CC-PVTZ
  Basis Set:
  @DF-RHF Final Energy:  -344.72019259147993
    Total Energy =                       -344.7201925914800427
    Molecular point group: c1
  Basis Set: CC-PVTZ
  Basis Set:
  Basis Set: CC-PVTZ
  Basis Set:
  @DF-RHF Final Energy:  -344.72020865161642
    Total Energy =                       -344.7202086516166446
  Basis Set: CC-PVTZ
  Basis Set:
  Basis Set: CC-PVTZ
  Basis Set:
  @DF-RHF Final Energy:  -344.72021240887017
    Total Energy =                       -344.7202124088703385
  Basis Set: CC-PVTZ
  Basis Set:
  Charge       = 0
  Multiplicity = 1
  Basis Set: CC-PVTZ
  Basis Set:

    Orbital Energies (a.u.)
    -----------------------

    Doubly Occupied:

       1A    -20.581307     2A    -11.294210     3A    -11.240533
       4A    -11.232678     5A    -11.219760     6A    -11.219037
       7A    -11.214247     8A    -11.213447     9A     -1.411593
      10A     -1.154179    11A     -1.046278    12A     -1.008509
      13A     -0.938660    14A     -0.827520    15A     -0.826168
      16A     -0.717664    17A     -0.684100    18A     -0.657547
      19A     -0.613742    20A     -0.595463    21A     -0.575744
      22A     -0.570936    23A     -0.564782    24A     -0.532738
      25A     -0.507144    26A     -0.484686    27A     -0.472367
      28A     -0.333408    29A     -0.311604

  @DF-RHF Final Energy:  -344.72021270031422

   => Energetics <=

    Nuclear Repulsion Energy =            346.3489174853316968
    One-Electron Energy =               -1154.0381560284658917
    Two-Electron Energy =                 462.9690258428202583
    DFT Exchange-Correlation Energy =       0.0000000000000000
    Empirical Dispersion Energy =           0.0000000000000000
    PCM Polarization Energy =               0.0000000000000000
    EFP Energy =                            0.0000000000000000
    Total Energy =                       -344.7202127003139935
    Molecular point group: c1
  Basis Set: CC-PVTZ
  Basis Set:

  -Total Gradient:
     Atom            X                  Y                   Z
    ------   -----------------  -----------------  -----------------
       1        0.000010352777    -0.000002798213     0.001997873610
       2       -0.000130645768     0.000174003904    -0.001854972907
       3        0.000390509083    -0.000511822229    -0.001485985497
       4       -0.000017019072    -0.000051326575     0.000010490124
       5       -0.000230580851     0.000407583673     0.001340868954
       6        0.000003960036     0.000001008102    -0.000004456949
       7        0.000072843626     0.000006423938    -0.000008575144
       8       -0.000007712380    -0.000007649334     0.000014158425
       9       -0.000022447980    -0.000084984432    -0.000027976458
      10       -0.000009909091     0.000004160540     0.000010926388
      11       -0.000050877132     0.000062218478    -0.000004287616
      12       -0.000004553272     0.000006549369     0.000009298325
      13        0.000002192684    -0.000003662176    -0.000003368795
      14       -0.000009233379     0.000005353824     0.000002637905
      15        0.000000138331    -0.000000681473    -0.000004716812
      16        0.000002982389    -0.000004377395     0.000008086448

  **** Optimization is complete! (in 4 steps) ****
    Final optimized geometry and variables:
    Molecular point group: c1

    Geometry (in Angstrom), charge = 0, multiplicity = 1:

    H           -3.020120237962    -0.687243649764    -0.144711119222
    O           -2.227469846299    -1.192501042438    -0.146246058446
    C           -1.143993660505    -0.384680615227    -0.139492373681
    C           -1.207597059518     0.936270815212    -0.533540739187
    C            0.057488912932    -0.932817594045     0.280252816636
    H           -2.137567704778     1.359834614141    -0.865672081965
    C           -0.054613524220     1.701442625207    -0.506280757488
    H            0.071178112949    -1.961466299075     0.584676321832
    C            1.208667170391    -0.170474412343     0.300799707465
    H           -0.099001998660     2.729098107180    -0.814027448624
    C            1.143980318354     1.160451291534    -0.098175674112
    C            2.512260390877    -0.761128894150     0.775772110730
    H            2.030241293080     1.766296564754    -0.088460354519
    H            3.330178066177    -0.466750954348     0.129840127222
    H            2.470606079277    -1.841664266986     0.797337815182
    H            2.746175677798    -0.416677531102     1.777418486214

  Mulliken Charges: (a.u.)
   Center  Symbol    Alpha    Beta     Spin     Total
       1     H     0.38654  0.38654  0.00000  0.22692
       2     O     4.17777  4.17777  0.00000 -0.35554
       3     C     2.84040  2.84040  0.00000  0.31919
       4     C     3.14631  3.14631  0.00000 -0.29263
       5     C     3.14034  3.14034  0.00000 -0.28069
       6     H     0.43304  0.43304  0.00000  0.13392
       7     C     3.05747  3.05747  0.00000 -0.11494
       8     H     0.42169  0.42169  0.00000  0.15661
       9     C     2.93590  2.93590  0.00000  0.12820
      10     H     0.42292  0.42292  0.00000  0.15415
      11     C     3.11785  3.11785  0.00000 -0.23570
      12     C     3.14666  3.14666  0.00000 -0.29332
      13     H     0.42780  0.42780  0.00000  0.14441
      14     H     0.44813  0.44813  0.00000  0.10374
      15     H     0.45013  0.45013  0.00000  0.09975
      16     H     0.44705  0.44705  0.00000  0.10591

   Total alpha = 29.00000, Total beta = 29.00000, Total charge = -0.00000
