  ==> Input File <==

--------------------------------------------------------------------------
set {
	reference rhf
	basis 6-31G*
}

set_num_threads( 4 )
memory 2 gb

molecule MOL {
0 1

H	 1.850705	 0.753294	 0.679707
C	 0.998033	 0.828979	 0.019006
O	 0.000000	 0.000000	 0.521119
H	 0.672535	 1.867411	 -0.018415
H	 1.300637	 0.527254	 -0.982534
C	 -1.165642	 0.000000	 -0.238270
H	 -1.228672	 0.883184	 -0.872070
H	 -2.003012	 0.000000	 0.445920
H	 -1.228672	 -0.883184	 -0.872070

	symmetry c1
}
set optking {
	frozen_dihedral = ("
		2 3 6 7
	")
}

ee = optimize('scf')
oeprop('DIPOLE', 'QUADRUPOLE', 'MULLIKEN_CHARGES')
f=open( 'psi4out.xyz', 'w' )
f.write( "9  " )
f.write( str(ee) + "\n" )
f.write( MOL.save_string_xyz() )
f.close()
--------------------------------------------------------------------------

    Molecular point group: c1
  Charge       = 0
  Multiplicity = 1
  Basis Set: 6-31G*
  Basis Set:
  @DF-RHF Final Energy:  -154.06125525921340
    Total Energy =                       -154.0612552592134250
    Molecular point group: c1
  Basis Set: 6-31G*
  Basis Set:
  Basis Set: 6-31G*
  Basis Set:
  @DF-RHF Final Energy:  -154.06145290333922
    Total Energy =                       -154.0614529033391875
  Basis Set: 6-31G*
  Basis Set:
  Basis Set: 6-31G*
  Basis Set:
  @DF-RHF Final Energy:  -154.06153255047752
    Total Energy =                       -154.0615325504774944
  Basis Set: 6-31G*
  Basis Set:
  Charge       = 0
  Multiplicity = 1
  Basis Set: 6-31G*
  Basis Set:

    Orbital Energies (a.u.)
    -----------------------

    Doubly Occupied:

       1A    -20.553100     2A    -11.265615     3A    -11.264801
       4A     -1.375173     5A     -0.974911     6A     -0.872934
       7A     -0.657451     8A     -0.653492     9A     -0.643445
      10A     -0.557154    11A     -0.528566    12A     -0.473538
      13A     -0.412612

  @DF-RHF Final Energy:  -154.06153306627942

   => Energetics <=

    Nuclear Repulsion Energy =             84.5406923500595013
    One-Electron Energy =                -376.7388644933554929
    Two-Electron Energy =                 138.1366390770165253
    DFT Exchange-Correlation Energy =       0.0000000000000000
    Empirical Dispersion Energy =           0.0000000000000000
    PCM Polarization Energy =               0.0000000000000000
    EFP Energy =                            0.0000000000000000
    Total Energy =                       -154.0615330662794804
    Molecular point group: c1
  Basis Set: 6-31G*
  Basis Set:

  -Total Gradient:
     Atom            X                  Y                   Z
    ------   -----------------  -----------------  -----------------
       1        0.000038119134     0.000025095843    -0.000011297751
       2       -0.000651183220     0.001687600221     0.001224594821
       3        0.001369336503    -0.002751157875    -0.002394262735
       4       -0.000030794937    -0.000032812885    -0.000002099492
       5       -0.000031800105     0.000000808549     0.000017322417
       6       -0.001996614273     0.002404930323     0.003174635868
       7        0.001322590150    -0.001342257106    -0.001997860905
       8       -0.000036253436     0.000004962791    -0.000006998528
       9        0.000016600183     0.000002830138    -0.000004033696

  **** Optimization is complete! (in 4 steps) ****
    Final optimized geometry and variables:
    Molecular point group: c1

    Geometry (in Angstrom), charge = 0, multiplicity = 1:

    H            1.911814916587     0.459250807810     0.601701814743
    C            1.068175548130     0.541359743605    -0.069924882988
    O            0.058617147735    -0.278796646545     0.425581560402
    H            0.751913429887     1.581703433302    -0.110966928412
    H            1.384802275081     0.237208239404    -1.066197492419
    C           -1.122461572380    -0.286565973371    -0.318672664005
    H           -1.204105586083     0.588651903400    -0.957643740147
    H           -1.963502413752    -0.310026986090     0.362598596863
    H           -1.164844903040    -1.165868071259    -0.956816032194

  Mulliken Charges: (a.u.)
   Center  Symbol    Alpha    Beta     Spin     Total
       1     H     0.41252  0.41252  0.00000  0.17496
       2     C     3.07923  3.07923  0.00000 -0.15847
       3     O     4.29921  4.29921  0.00000 -0.59842
       4     H     0.42966  0.42966  0.00000  0.14069
       5     H     0.43046  0.43046  0.00000  0.13908
       6     C     3.07783  3.07783  0.00000 -0.15566
       7     H     0.43077  0.43077  0.00000  0.13846
       8     H     0.41570  0.41570  0.00000  0.16860
       9     H     0.42463  0.42463  0.00000  0.15075

   Total alpha = 13.00000, Total beta = 13.00000, Total charge =  0.00000
