                              Psi4 1.0.54 Driver

  ==> Input File <==

--------------------------------------------------------------------------
set {
	reference rhf
	basis cc-pvtz
}

set_num_threads( 4 )
memory 2 gb

molecule MOL {
0 1

H	 -2.564233	 1.857287	 1.760576
C	 -2.055369	 0.970447	 2.131328
O	 -0.771436	 0.867159	 1.613266
H	 -1.973610	 1.040470	 3.206177
H	 -2.658341	 0.098929	 1.882803
C	 -0.718530	 0.758693	 0.228682
C	 0.718529	 0.758687	 -0.228709
H	 -1.192096	 -0.167886	 -0.095598
H	 -1.243765	 1.586589	 -0.242642
O	 1.401606	 -0.295166	 0.366636
H	 0.748705	 0.673477	 -1.312803
H	 1.176496	 1.708671	 0.046552
C	 2.714315	 -0.441627	 -0.061017
H	 2.765292	 -0.641548	 -1.128869
H	 3.305661	 0.447341	 0.150952
H	 3.143725	 -1.278506	 0.470147

	symmetry c1
}
set optking {
	frozen_dihedral = ("
		3 6 7 11
	")
}

ee,wfn = optimize('scf', return_wfn=True)
oeprop( wfn, 'DIPOLE', 'QUADRUPOLE', 'MULLIKEN_CHARGES')
f=open( 'psi4out.xyz', 'w' )
f.write( "16  " )
f.write( str(ee) + "\n" )
f.write( MOL.save_string_xyz() )
f.close()
--------------------------------------------------------------------------

    Molecular point group: c1
  Charge       = 0
  Multiplicity = 1
  Basis Set: CC-PVTZ
  Basis Set:
  @DF-RHF Final Energy:  -307.09666025256882
    Total Energy =                       -307.0966602525689950
    Molecular point group: c1
  Basis Set: CC-PVTZ
  Basis Set:
  Basis Set: CC-PVTZ
  Basis Set:
  @DF-RHF Final Energy:  -307.09699866668689
    Total Energy =                       -307.0969986666868863
  Basis Set: CC-PVTZ
  Basis Set:
  Basis Set: CC-PVTZ
  Basis Set:
  @DF-RHF Final Energy:  -307.09710096412806
    Total Energy =                       -307.0971009641280034
  Basis Set: CC-PVTZ
  Basis Set:
  Charge       = 0
  Multiplicity = 1
  Basis Set: CC-PVTZ
  Basis Set:

    Orbital Energies (a.u.)
    -----------------------

    Doubly Occupied:

       1A    -20.547155     2A    -20.546630     3A    -11.268136
       4A    -11.267445     5A    -11.261277     6A    -11.261093
       7A     -1.392160     8A     -1.373460     9A     -1.031850
      10A     -0.936232    11A     -0.893768    12A     -0.822412
      13A     -0.688258    14A     -0.681119    15A     -0.659757
      16A     -0.640526    17A     -0.628163    18A     -0.597286
      19A     -0.557928    20A     -0.531133    21A     -0.509500
      22A     -0.478065    23A     -0.465563    24A     -0.419936
      25A     -0.415239

  @DF-RHF Final Energy:  -307.09710498630670

   => Energetics <=

    Nuclear Repulsion Energy =            259.5982241879062258
    One-Electron Energy =                -933.6424755012146761
    Two-Electron Energy =                 366.9471463270019740
    DFT Exchange-Correlation Energy =       0.0000000000000000
    Empirical Dispersion Energy =           0.0000000000000000
    PCM Polarization Energy =               0.0000000000000000
    EFP Energy =                            0.0000000000000000
    Total Energy =                       -307.0971049863064763
    Molecular point group: c1
  Basis Set: CC-PVTZ
  Basis Set:

  -Total Gradient:
     Atom            X                  Y                   Z
    ------   -----------------  -----------------  -----------------
       1        0.000036401750    -0.000074982808     0.000051099913
       2       -0.000187690887     0.000025667087    -0.000104229626
       3        0.000080365523    -0.002938501847     0.000411367574
       4        0.000069725775    -0.000016501143    -0.000089894034
       5        0.000039079132     0.000066518461     0.000025725913
       6       -0.000034628344     0.002975692083    -0.000403281521
       7        0.000107683039     0.003688215917    -0.000348750030
       8        0.000019996927     0.000027789308     0.000011843389
       9        0.000023404012     0.000010126584     0.000050217060
      10       -0.000024357068    -0.000028490304     0.000076598383
      11       -0.000046134250    -0.003734544673     0.000403901253
      12       -0.000043977503    -0.000041986822    -0.000018285392
      13        0.000097514193     0.000004010595    -0.000124828639
      14        0.000008414320     0.000015358012     0.000063096780
      15       -0.000066873611    -0.000037347059    -0.000004958384
      16       -0.000078923008     0.000058976608     0.000000377362

  **** Optimization is complete! (in 4 steps) ****
    Final optimized geometry and variables:
    Molecular point group: c1

    Geometry (in Angstrom), charge = 0, multiplicity = 1:

    H           -2.845057566533     1.326023047575     1.086177581742
    C           -2.241092363119     0.508221064445     1.474713535313
    O           -0.964022829861     0.511809970483     0.930429896030
    H           -2.144109702291     0.625905396006     2.543964498045
    H           -2.757593583556    -0.427073333091     1.271173787209
    C           -0.930691818293     0.365423076868    -0.449298430712
    C            0.498363448510     0.310873465939    -0.930587405852
    H           -1.440143812562    -0.550744805790    -0.742831953616
    H           -1.433837454725     1.198858334807    -0.939670490693
    O            1.143467627309    -0.778841972463    -0.357943359076
    H            0.488725599956     0.195932201321    -2.014640143578
    H            1.011817843165     1.236586557531    -0.680619513027
    C            2.482852535771    -0.895304881763    -0.702983988353
    H            2.611323746204    -1.014201891339    -1.777369453559
    H            3.053517378674    -0.026291779372    -0.383269595975
    H            2.876501272103    -1.770608451415    -0.207478748031

  Mulliken Charges: (a.u.)
   Center  Symbol    Alpha    Beta     Spin     Total
       1     H     0.47359  0.47359  0.00000  0.05283
       2     C     3.03195  3.03195  0.00000 -0.06390
       3     O     4.16749  4.16749  0.00000 -0.33498
       4     H     0.44606  0.44606  0.00000  0.10789
       5     H     0.47090  0.47090  0.00000  0.05820
       6     C     2.96201  2.96201  0.00000  0.07598
       7     C     2.96297  2.96297  0.00000  0.07406
       8     H     0.47209  0.47209  0.00000  0.05583
       9     H     0.47577  0.47577  0.00000  0.04846
      10     O     4.16774  4.16774  0.00000 -0.33548
      11     H     0.47579  0.47579  0.00000  0.04842
      12     H     0.47075  0.47075  0.00000  0.05849
      13     C     3.03176  3.03176  0.00000 -0.06353
      14     H     0.47403  0.47403  0.00000  0.05193
      15     H     0.47095  0.47095  0.00000  0.05809
      16     H     0.44614  0.44614  0.00000  0.10772

   Total alpha = 25.00000, Total beta = 25.00000, Total charge =  0.00000

*** Psi4 exiting successfully. Buy a developer a beer!
