                              Psi4 1.0.54 Driver

  ==> Input File <==

--------------------------------------------------------------------------
set {
	reference rhf
	basis cc-pvtz
}

set_num_threads( 4 )
memory 2 gb

molecule MOL {
0 1

H	 2.646708	 0.758099	 0.000000
O	 2.258158	 -0.097743	 0.000000
C	 0.911162	 -0.015915	 0.000000
C	 0.284807	 0.235812	 -1.209593
C	 0.159878	 -0.173327	 1.149441
H	 0.883529	 0.355134	 -2.090952
C	 -1.089340	 0.327816	 -1.257862
H	 0.645831	 -0.368688	 2.088235
C	 -1.219042	 -0.078359	 1.086037
H	 -1.569320	 0.523055	 -2.198022
C	 -1.852971	 0.171943	 -0.112885
H	 -1.794948	 -0.201908	 1.983475
H	 -2.921853	 0.244902	 -0.158318

	symmetry c1
}
set optking {
	frozen_dihedral = ("
		4 3 2 1
	")
}

ee,wfn = optimize('scf', return_wfn=True)
oeprop( wfn, 'DIPOLE', 'QUADRUPOLE', 'MULLIKEN_CHARGES')
f=open( 'psi4out.xyz', 'w' )
f.write( "13  " )
f.write( str(ee) + "\n" )
f.write( MOL.save_string_xyz() )
f.close()
--------------------------------------------------------------------------

    Molecular point group: c1
  Charge       = 0
  Multiplicity = 1
  Basis Set: CC-PVTZ
  Basis Set:
  @DF-RHF Final Energy:  -305.66532572654097
    Total Energy =                       -305.6653257265409138
    Molecular point group: c1
  Basis Set: CC-PVTZ
  Basis Set:
  Basis Set: CC-PVTZ
  Basis Set:
  @DF-RHF Final Energy:  -305.66632589386734
    Total Energy =                       -305.6663258938671106
  Basis Set: CC-PVTZ
  Basis Set:
  Basis Set: CC-PVTZ
  Basis Set:
  @DF-RHF Final Energy:  -305.66639018246860
    Total Energy =                       -305.6663901824686604
  Basis Set: CC-PVTZ
  Basis Set:
  Basis Set: CC-PVTZ
  Basis Set:
  @DF-RHF Final Energy:  -305.66639693981722
    Total Energy =                       -305.6663969398172185
  Basis Set: CC-PVTZ
  Basis Set:
  Charge       = 0
  Multiplicity = 1
  Basis Set: CC-PVTZ
  Basis Set:

    Orbital Energies (a.u.)
    -----------------------

    Doubly Occupied:

       1A    -20.571379     2A    -11.288948     3A    -11.233517
       4A    -11.233133     5A    -11.225945     6A    -11.225638
       7A    -11.224876     8A     -1.398195     9A     -1.153312
      10A     -1.022355    11A     -1.008347    12A     -0.840021
      13A     -0.828542    14A     -0.738118    15A     -0.684275
      16A     -0.651633    17A     -0.632317    18A     -0.596923
      19A     -0.592046    20A     -0.526722    21A     -0.517731
      22A     -0.498444    23A     -0.471916    24A     -0.341863
      25A     -0.329183

  @DF-RHF Final Energy:  -305.66639830958445

   => Energetics <=

    Nuclear Repulsion Energy =            273.3164656523463236
    One-Electron Energy =                -956.2949657399824446
    Two-Electron Energy =                 377.3121017780513284
    DFT Exchange-Correlation Energy =       0.0000000000000000
    Empirical Dispersion Energy =           0.0000000000000000
    PCM Polarization Energy =               0.0000000000000000
    EFP Energy =                            0.0000000000000000
    Total Energy =                       -305.6663983095847925
    Molecular point group: c1
  Basis Set: CC-PVTZ
  Basis Set:

  -Total Gradient:
     Atom            X                  Y                   Z
    ------   -----------------  -----------------  -----------------
       1       -0.000027678893     0.000005962353     0.000893503983
       2        0.000176641939    -0.000321074256    -0.001186378417
       3       -0.000171166312     0.000914656602     0.000551521223
       4       -0.000022399510    -0.000634196283    -0.000184404109
       5        0.000158746916     0.000003903756    -0.000016542141
       6       -0.000034372472    -0.000008894039     0.000021483196
       7        0.000065457903     0.000049722592    -0.000031916843
       8        0.000040972020    -0.000007954151    -0.000023334386
       9       -0.000158888970     0.000061798847    -0.000079252265
      10       -0.000042832016    -0.000008546426     0.000007616663
      11        0.000009801214    -0.000059026738     0.000117852708
      12        0.000011994154    -0.000001866517    -0.000019322572
      13       -0.000006275966     0.000005514259    -0.000050827040

  **** Optimization is complete! (in 5 steps) ****
    Final optimized geometry and variables:
    Molecular point group: c1

    Geometry (in Angstrom), charge = 0, multiplicity = 1:

    H            2.675135542744     0.669294718106     0.080339348271
    O            2.264123654481    -0.177155879226     0.088984164343
    C            0.903587259893    -0.051056177067     0.035108556051
    C            0.273469302184     0.186399446223    -1.171741569085
    C            0.160755281761    -0.218990719294     1.186835072924
    H            0.864210558817     0.293180969098    -2.061082971408
    C           -1.104867944761     0.271470412623    -1.219510773567
    H            0.667857883252    -0.418066081688     2.110727034319
    C           -1.218160894337    -0.138032459684     1.130297898314
    H           -1.592223688208     0.457137847577    -2.157680926372
    C           -1.855903393380     0.110417745492    -0.070164746872
    H           -1.793395722782    -0.270038215506     2.026801267576
    H           -2.926136267210     0.172510958450    -0.111412298746

  Mulliken Charges: (a.u.)
   Center  Symbol    Alpha    Beta     Spin     Total
       1     H     0.38802  0.38802  0.00000  0.22397
       2     O     4.19214  4.19214  0.00000 -0.38427
       3     C     2.87264  2.87264  0.00000  0.25471
       4     C     3.11312  3.11312  0.00000 -0.22624
       5     C     3.10776  3.10776  0.00000 -0.21551
       6     H     0.41835  0.41835  0.00000  0.16331
       7     C     3.06946  3.06946  0.00000 -0.13891
       8     H     0.41656  0.41656  0.00000  0.16689
       9     C     3.06866  3.06866  0.00000 -0.13733
      10     H     0.42170  0.42170  0.00000  0.15660
      11     C     3.08694  3.08694  0.00000 -0.17389
      12     H     0.42160  0.42160  0.00000  0.15680
      13     H     0.42306  0.42306  0.00000  0.15388

   Total alpha = 25.00000, Total beta = 25.00000, Total charge = -0.00000

*** Psi4 exiting successfully. Buy a developer a beer!
