  ==> Input File <==

--------------------------------------------------------------------------
set {
	reference rhf
	basis 6-31G*
}

set_num_threads( 4 )
memory 2 gb

molecule MOL {
0 1

H	 -1.147385	 0.320209	 0.746983
N	 -0.712432	 0.000013	 -0.096310
C	 0.734192	 -0.000004	 0.040609
H	 -0.998556	 0.623643	 -0.825746
H	 1.139899	 -0.873598	 -0.456463
H	 1.139939	 0.873831	 -0.456100
H	 1.096456	 -0.000300	 1.069655

	symmetry c1
}
set optking {
	frozen_dihedral = ("
		1 2 3 7
	")
}

ee = optimize('scf')
oeprop('DIPOLE', 'QUADRUPOLE', 'MULLIKEN_CHARGES')
f=open( 'psi4out.xyz', 'w' )
f.write( "7  " )
f.write( str(ee) + "\n" )
f.write( MOL.save_string_xyz() )
f.close()
--------------------------------------------------------------------------

    Molecular point group: c1
  Charge       = 0
  Multiplicity = 1
  Basis Set: 6-31G*
  Basis Set:
  @DF-RHF Final Energy:   -95.20543131134748
    Total Energy =                        -95.2054313113474535
    Molecular point group: c1
  Basis Set: 6-31G*
  Basis Set:
  Basis Set: 6-31G*
  Basis Set:
  @DF-RHF Final Energy:   -95.20670653629199
    Total Energy =                        -95.2067065362920175
  Basis Set: 6-31G*
  Basis Set:
  Basis Set: 6-31G*
  Basis Set:
  @DF-RHF Final Energy:   -95.20693243867146
    Total Energy =                        -95.2069324386713873
  Basis Set: 6-31G*
  Basis Set:
  Basis Set: 6-31G*
  Basis Set:
  @DF-RHF Final Energy:   -95.20694039440541
    Total Energy =                        -95.2069403944054216
  Basis Set: 6-31G*
  Basis Set:
  Charge       = 0
  Multiplicity = 1
  Basis Set: 6-31G*
  Basis Set:

    Orbital Energies (a.u.)
    -----------------------

    Doubly Occupied:

       1A    -15.531485     2A    -11.237298     3A     -1.167045
       4A     -0.896984     5A     -0.665419     6A     -0.599578
       7A     -0.560038     8A     -0.518101     9A     -0.377950

  @DF-RHF Final Energy:   -95.20694119732349

   => Energetics <=

    Nuclear Repulsion Energy =             42.2798017128988235
    One-Electron Energy =                -211.8656919434442898
    Two-Electron Energy =                  74.3789490332219714
    DFT Exchange-Correlation Energy =       0.0000000000000000
    Empirical Dispersion Energy =           0.0000000000000000
    PCM Polarization Energy =               0.0000000000000000
    EFP Energy =                            0.0000000000000000
    Total Energy =                        -95.2069411973234878
    Molecular point group: c1
  Basis Set: 6-31G*
  Basis Set:

  -Total Gradient:
     Atom            X                  Y                   Z
    ------   -----------------  -----------------  -----------------
       1       -0.000112095802    -0.002594317110     0.000899804492
       2       -0.000008816735     0.003941517034    -0.001147345763
       3        0.000106033989    -0.003900065932     0.000223837484
       4       -0.000000783741    -0.000010004726     0.000014914075
       5        0.000001839392     0.000043026311    -0.000003228256
       6       -0.000014053038    -0.000006053413     0.000000204694
       7        0.000027875935     0.002525897835     0.000011813274

  **** Optimization is complete! (in 5 steps) ****
    Final optimized geometry and variables:
    Molecular point group: c1

    Geometry (in Angstrom), charge = 0, multiplicity = 1:

    H           -1.143604874170     0.288224045560     0.793446045543
    N           -0.717225188823    -0.024797972031    -0.053475708804
    C            0.736004775433    -0.032182739868     0.043098401636
    H           -1.043136220656     0.552817998201    -0.800346768575
    H            1.147553777239    -0.913757306569    -0.436165564558
    H            1.200883766368     0.841467637232    -0.410691289690
    H            1.040198774527    -0.041006294895     1.083602521419

  Mulliken Charges: (a.u.)
   Center  Symbol    Alpha    Beta     Spin     Total
       1     H     0.33094  0.33094  0.00000  0.33813
       2     N     3.92565  3.92565  0.00000 -0.85131
       3     C     3.14437  3.14437  0.00000 -0.28874
       4     H     0.33096  0.33096  0.00000  0.33807
       5     H     0.41667  0.41667  0.00000  0.16666
       6     H     0.42957  0.42957  0.00000  0.14087
       7     H     0.42184  0.42184  0.00000  0.15631

   Total alpha =  9.00000, Total beta =  9.00000, Total charge =  0.00000
