                              Psi4 1.0.54 Driver

  ==> Input File <==

--------------------------------------------------------------------------
set {
	reference rhf
	basis cc-pvtz
}

set_num_threads( 4 )
memory 2 gb

molecule MOL {
0 1

H	 -2.698799	 -0.000846	 0.036018
C	 -1.694291	 -0.000483	 0.434279
O	 -0.828718	 -0.000608	 -0.655022
H	 -1.576855	 0.881100	 1.056504
H	 -1.576401	 -0.881658	 1.057001
C	 0.557892	 0.000078	 -0.420099
C	 1.160033	 -1.399835	 -0.464163
C	 1.303737	 0.979631	 -1.319233
H	 0.636232	 0.361132	 0.597801
H	 0.584584	 -2.077347	 0.154622
H	 2.176042	 -1.374846	 -0.087537
H	 1.195048	 -1.799509	 -1.470948
H	 0.828005	 1.952284	 -1.293381
H	 2.325018	 1.091051	 -0.973772
H	 1.342465	 0.643145	 -2.348708

	symmetry c1
}
set optking {
	frozen_dihedral = ("
		9 6 3 2
	")
}

ee,wfn = optimize('scf', return_wfn=True)
oeprop( wfn, 'DIPOLE', 'QUADRUPOLE', 'MULLIKEN_CHARGES')
f=open( 'psi4out.xyz', 'w' )
f.write( "15  " )
f.write( str(ee) + "\n" )
f.write( MOL.save_string_xyz() )
f.close()
--------------------------------------------------------------------------

    Molecular point group: c1
  Charge       = 0
  Multiplicity = 1
  Basis Set: CC-PVTZ
  Basis Set:
  @DF-RHF Final Energy:  -232.22553875406828
    Total Energy =                       -232.2255387540683387
    Molecular point group: c1
  Basis Set: CC-PVTZ
  Basis Set:
  Basis Set: CC-PVTZ
  Basis Set:
  @DF-RHF Final Energy:  -232.22063585560170
    Total Energy =                       -232.2206358556017562
  Basis Set: CC-PVTZ
  Basis Set:
  Basis Set: CC-PVTZ
  Basis Set:
  @DF-RHF Final Energy:  -232.22892560580075
    Total Energy =                       -232.2289256058007823
  Basis Set: CC-PVTZ
  Basis Set:
  Basis Set: CC-PVTZ
  Basis Set:
  @DF-RHF Final Energy:  -232.22934674867795
    Total Energy =                       -232.2293467486779264
  Basis Set: CC-PVTZ
  Basis Set:
  Basis Set: CC-PVTZ
  Basis Set:
  @DF-RHF Final Energy:  -232.22937589501771
    Total Energy =                       -232.2293758950179381
  Basis Set: CC-PVTZ
  Basis Set:
  Basis Set: CC-PVTZ
  Basis Set:
  @DF-RHF Final Energy:  -232.22937910970057
    Total Energy =                       -232.2293791097006306
  Basis Set: CC-PVTZ
  Basis Set:
  Charge       = 0
  Multiplicity = 1
  Basis Set: CC-PVTZ
  Basis Set:

    Orbital Energies (a.u.)
    -----------------------

    Doubly Occupied:

       1A    -20.542838     2A    -11.272524     3A    -11.261900
       4A    -11.206083     5A    -11.205149     6A     -1.377332
       7A     -1.053614     8A     -0.938031     9A     -0.918196
      10A     -0.795685    11A     -0.671328    12A     -0.643258
      13A     -0.637484    14A     -0.582308    15A     -0.552408
      16A     -0.541260    17A     -0.535700    18A     -0.498301
      19A     -0.488951    20A     -0.458543    21A     -0.408117

  @DF-RHF Final Energy:  -232.22937922546836

   => Energetics <=

    Nuclear Repulsion Energy =            197.2311515650067406
    One-Electron Energy =                -705.7430468891388955
    Two-Electron Energy =                 276.2825160986636774
    DFT Exchange-Correlation Energy =       0.0000000000000000
    Empirical Dispersion Energy =           0.0000000000000000
    PCM Polarization Energy =               0.0000000000000000
    EFP Energy =                            0.0000000000000000
    Total Energy =                       -232.2293792254685059
    Molecular point group: c1
  Basis Set: CC-PVTZ
  Basis Set:

  -Total Gradient:
     Atom            X                  Y                   Z
    ------   -----------------  -----------------  -----------------
       1       -0.000000940100    -0.000001772236    -0.000006154183
       2        0.000077832977     0.001179462996    -0.000111924101
       3       -0.000146453086    -0.002028188759     0.000356469075
       4        0.000009637717     0.000001291487    -0.000007227254
       5        0.000004696377     0.000002155139    -0.000008428316
       6        0.000145354157     0.002119587741    -0.000903096023
       7        0.000015360953     0.000000691712     0.000024814015
       8        0.000017968184     0.000020589262     0.000007919937
       9       -0.000102120725    -0.001299767901     0.000649711952
      10       -0.000006507184    -0.000018608201     0.000010043431
      11       -0.000004439368    -0.000001405382     0.000002184883
      12       -0.000001911992     0.000017357548    -0.000004078937
      13        0.000001608163     0.000013619163    -0.000010689783
      14       -0.000003694341     0.000004403042    -0.000000803561
      15       -0.000006391733    -0.000009415610     0.000001258867

  **** Optimization is complete! (in 7 steps) ****
    Final optimized geometry and variables:
    Molecular point group: c1

    Geometry (in Angstrom), charge = 0, multiplicity = 1:

    H           -2.604816130901     0.396691421648     0.951534405170
    C           -1.544125667927     0.356036421553     1.154498643378
    O           -0.890066566040     0.159739363634    -0.055143122598
    H           -1.244028499781     1.290425154993     1.623151480746
    H           -1.359802902173    -0.454413564544     1.855975214798
    C            0.510401593093     0.053025503727     0.008407063549
    C            0.921249326799    -1.413099734360    -0.016355757200
    C            1.094822176773     0.835728165929    -1.153754962557
    H            0.858499657633     0.490256609770     0.941978374339
    H            0.474697384588    -1.954212759977     0.809423675107
    H            1.998336360963    -1.514398736111     0.058190115555
    H            0.594426304698    -1.877295392416    -0.939456778948
    H            0.804846907754     1.877247984372    -1.093823249121
    H            2.177405693942     0.777714892548    -1.153061048499
    H            0.729794989876     0.436838855668    -2.092961963715

  Mulliken Charges: (a.u.)
   Center  Symbol    Alpha    Beta     Spin     Total
       1     H     0.44883  0.44883  0.00000  0.10235
       2     C     3.03375  3.03375  0.00000 -0.06749
       3     O     4.18699  4.18699  0.00000 -0.37399
       4     H     0.46974  0.46974  0.00000  0.06052
       5     H     0.47193  0.47193  0.00000  0.05614
       6     C     2.92029  2.92029  0.00000  0.15942
       7     C     3.14101  3.14101  0.00000 -0.28203
       8     C     3.13911  3.13911  0.00000 -0.27823
       9     H     0.46890  0.46890  0.00000  0.06220
      10     H     0.45159  0.45159  0.00000  0.09681
      11     H     0.45505  0.45505  0.00000  0.08989
      12     H     0.45278  0.45278  0.00000  0.09444
      13     H     0.44951  0.44951  0.00000  0.10099
      14     H     0.45835  0.45835  0.00000  0.08330
      15     H     0.45217  0.45217  0.00000  0.09567

   Total alpha = 21.00000, Total beta = 21.00000, Total charge = -0.00000

*** Psi4 exiting successfully. Buy a developer a beer!
