  ==> Input File <==

--------------------------------------------------------------------------
set {
	reference rhf
	basis 6-31G*
}

set_num_threads( 4 )
memory 2 gb

molecule MOL {
0 1

H	 -3.892951	 0.981613	 -0.358725
C	 -3.196921	 0.361773	 0.172313
C	 -2.076860	 -0.007332	 -0.404944
H	 -3.439953	 0.057760	 1.173024
O	 -1.374624	 -1.092924	 0.013642
H	 -1.660266	 0.511479	 -1.250213
C	 -0.118578	 -1.312403	 -0.530442
C	 0.956456	 -0.562765	 0.223639
H	 -0.064578	 -1.021499	 -1.573588
H	 0.095393	 -2.367980	 -0.450061
F	 2.138985	 -0.833041	 -0.309635
F	 0.777604	 0.746411	 0.161195
F	 0.997426	 -0.902450	 1.495381

	symmetry c1
}
set optking {
	frozen_dihedral = ("
		6 3 2 1
	")
}

ee = optimize('scf')
oeprop('DIPOLE', 'QUADRUPOLE', 'MULLIKEN_CHARGES')
f=open( 'psi4out.xyz', 'w' )
f.write( "13  " )
f.write( str(ee) + "\n" )
f.write( MOL.save_string_xyz() )
f.close()
--------------------------------------------------------------------------

    Molecular point group: c1
  Charge       = 0
  Multiplicity = 1
  Basis Set: 6-31G*
  Basis Set:
  @DF-RHF Final Energy:  -527.52741250330132
    Total Energy =                       -527.5274125033012069
    Molecular point group: c1
  Basis Set: 6-31G*
  Basis Set:
  Basis Set: 6-31G*
  Basis Set:
  @DF-RHF Final Energy:  -527.53279235921354
    Total Energy =                       -527.5327923592137722
  Basis Set: 6-31G*
  Basis Set:
  Basis Set: 6-31G*
  Basis Set:
  @DF-RHF Final Energy:  -527.53289462278644
    Total Energy =                       -527.5328946227866709
  Basis Set: 6-31G*
  Basis Set:
  Basis Set: 6-31G*
  Basis Set:
  @DF-RHF Final Energy:  -527.53306304304124
    Total Energy =                       -527.5330630430413521
  Basis Set: 6-31G*
  Basis Set:
  Basis Set: 6-31G*
  Basis Set:
  @DF-RHF Final Energy:  -527.53306471376277
    Total Energy =                       -527.5330647137623146
  Basis Set: 6-31G*
  Basis Set:
  Charge       = 0
  Multiplicity = 1
  Basis Set: 6-31G*
  Basis Set:

    Orbital Energies (a.u.)
    -----------------------

    Doubly Occupied:

       1A    -26.344505     2A    -26.343539     3A    -26.340530
       4A    -20.608553     5A    -11.503088     6A    -11.318756
       7A    -11.300158     8A    -11.216173     9A     -1.741648
      10A     -1.639728    11A     -1.638212    12A     -1.438273
      13A     -1.084084    14A     -1.016430    15A     -0.925202
      16A     -0.836670    17A     -0.830869    18A     -0.821219
      19A     -0.792118    20A     -0.721306    21A     -0.711211
      22A     -0.695764    23A     -0.675532    24A     -0.660604
      25A     -0.654566    26A     -0.643009    27A     -0.636125
      28A     -0.583455    29A     -0.563275    30A     -0.521163
      31A     -0.514135    32A     -0.351597

  @DF-RHF Final Energy:  -527.53306510927723

   => Energetics <=

    Nuclear Repulsion Energy =            414.1128987837574300
    One-Electron Energy =               -1551.9489377276468076
    Two-Electron Energy =                 610.3029738346120894
    DFT Exchange-Correlation Energy =       0.0000000000000000
    Empirical Dispersion Energy =           0.0000000000000000
    PCM Polarization Energy =               0.0000000000000000
    EFP Energy =                            0.0000000000000000
    Total Energy =                       -527.5330651092773451
    Molecular point group: c1
  Basis Set: 6-31G*
  Basis Set:

  -Total Gradient:
     Atom            X                  Y                   Z
    ------   -----------------  -----------------  -----------------
       1       -0.005349017992    -0.007050283727    -0.003525812138
       2        0.010265259489     0.012175452636     0.007597530769
       3       -0.010812375662    -0.010090627851    -0.010237734132
       4        0.000001715732    -0.000024910831    -0.000004481953
       5        0.000040701362     0.000003124738     0.000137760141
       6        0.005880170749     0.005022955976     0.006051792601
       7       -0.000019536758    -0.000031761482    -0.000021499860
       8       -0.000000628535     0.000003088847     0.000020129528
       9        0.000001676224    -0.000001692215     0.000001541277
      10        0.000002220236    -0.000005304054    -0.000006015674
      11       -0.000020189491     0.000001236059     0.000013337527
      12       -0.000000675538     0.000023539777    -0.000023754992
      13        0.000010680182    -0.000024817877    -0.000002793098

  **** Optimization is complete! (in 6 steps) ****
    Final optimized geometry and variables:
    Molecular point group: c1

    Geometry (in Angstrom), charge = 0, multiplicity = 1:

    H           -3.698417207319     1.565106751906    -0.371101445407
    C           -3.046673034218     0.842152505901     0.080594193760
    C           -2.008684281558     0.383240525221    -0.582782512594
    H           -3.377750700575     0.363392771823     0.983656317428
    O           -1.293970490187    -0.684700130009    -0.139008053828
    H           -1.580160373838     0.897042507392    -1.425659335488
    C           -0.025525046635    -0.889502351004    -0.659895184861
    C            1.024970153282    -0.104973168730     0.093321519040
    H            0.037466971757    -0.617196719285    -1.707702635394
    H            0.207233347071    -1.938927229786    -0.555944811396
    F            2.220332667183    -0.370317728958    -0.413205634240
    F            0.828036122014     1.199325028806    -0.005063468528
    F            1.049098893952    -0.412699486901     1.373580617473

  Mulliken Charges: (a.u.)
   Center  Symbol    Alpha    Beta     Spin     Total
       1     H     0.40748  0.40748  0.00000  0.18505
       2     C     3.23234  3.23234  0.00000 -0.46468
       3     C     2.89771  2.89771  0.00000  0.20458
       4     H     0.40264  0.40264  0.00000  0.19472
       5     O     4.30051  4.30051  0.00000 -0.60103
       6     H     0.40716  0.40716  0.00000  0.18567
       7     C     3.06373  3.06373  0.00000 -0.12745
       8     C     2.45580  2.45580  0.00000  1.08841
       9     H     0.40575  0.40575  0.00000  0.18849
      10     H     0.39017  0.39017  0.00000  0.21965
      11     F     4.68281  4.68281  0.00000 -0.36562
      12     F     4.67946  4.67946  0.00000 -0.35891
      13     F     4.67444  4.67444  0.00000 -0.34888

   Total alpha = 32.00000, Total beta = 32.00000, Total charge = -0.00000
