  ==> Input File <==

--------------------------------------------------------------------------
set {
	reference rhf
	basis 6-31G*
}

set_num_threads( 4 )
memory 2 gb

molecule MOL {
0 1

O	 1.214711	 1.306902	 -0.000018
C	 1.122059	 0.121804	 -0.000188
C	 -0.170150	 -0.657997	 -0.000612
O	 2.172624	 -0.688929	 0.000216
C	 -1.412532	 0.227344	 -0.000452
H	 -0.153702	 -1.313099	 -0.867402
H	 -0.153924	 -1.313811	 0.865644
C	 -1.199853	 1.527741	 -0.777048
H	 -1.692333	 0.452059	 1.024106
H	 -2.245281	 -0.323674	 -0.426375
C	 -2.440173	 2.420251	 -0.783054
H	 -0.363904	 2.075519	 -0.346693
H	 -0.917190	 1.296808	 -1.802154
H	 -2.728146	 2.697072	 0.226944
H	 -2.262732	 3.335132	 -1.339636
H	 -3.285195	 1.913035	 -1.239464
C	 3.452279	 -0.082609	 0.000533
H	 3.583069	 0.529321	 -0.880332
H	 4.163299	 -0.894027	 0.001117
H	 3.582335	 0.529955	 0.881077

	symmetry c1
}
set optking {
	frozen_dihedral = ("
		9 5 3 6
	")
}

ee = optimize('scf')
oeprop('DIPOLE', 'QUADRUPOLE', 'MULLIKEN_CHARGES')
f=open( 'psi4out.xyz', 'w' )
f.write( "20  " )
f.write( str(ee) + "\n" )
f.write( MOL.save_string_xyz() )
f.close()
--------------------------------------------------------------------------

    Molecular point group: c1
  Charge       = 0
  Multiplicity = 1
  Basis Set: 6-31G*
  Basis Set:
  @DF-RHF Final Energy:  -383.91838763298125
    Total Energy =                       -383.9183876329808527
    Molecular point group: c1
  Basis Set: 6-31G*
  Basis Set:
  Basis Set: 6-31G*
  Basis Set:
  @DF-RHF Final Energy:  -383.93151953850838
    Total Energy =                       -383.9315195385084962
  Basis Set: 6-31G*
  Basis Set:
  Basis Set: 6-31G*
  Basis Set:
  @DF-RHF Final Energy:  -383.93437588472693
    Total Energy =                       -383.9343758847267054
  Basis Set: 6-31G*
  Basis Set:
  Basis Set: 6-31G*
  Basis Set:
  @DF-RHF Final Energy:  -383.93068373481680
    Total Energy =                       -383.9306837348171939
  Basis Set: 6-31G*
  Basis Set:
  @DF-RHF Final Energy:  -383.93574978652322
    Total Energy =                       -383.9357497865235018
  @DF-RHF Final Energy:  -383.93632155299673
    Total Energy =                       -383.9363215529970148
  @DF-RHF Final Energy:  -383.93673262921970
    Total Energy =                       -383.9367326292198186
  Basis Set: 6-31G*
  Basis Set:
  @DF-RHF Final Energy:  -383.93684146925131
    Total Energy =                       -383.9368414692514762
  Basis Set: 6-31G*
  Basis Set:
  Basis Set: 6-31G*
  Basis Set:
  @DF-RHF Final Energy:  -383.93687230086834
    Total Energy =                       -383.9368723008678899
  Basis Set: 6-31G*
  Basis Set:
  Basis Set: 6-31G*
  Basis Set:
  @DF-RHF Final Energy:  -383.93687623462108
    Total Energy =                       -383.9368762346208541
  Basis Set: 6-31G*
  Basis Set:
  Charge       = 0
  Multiplicity = 1
  Basis Set: 6-31G*
  Basis Set:

    Orbital Energies (a.u.)
    -----------------------

    Doubly Occupied:

       1A    -20.605657     2A    -20.543855     3A    -11.373366
       4A    -11.281300     5A    -11.235795     6A    -11.223828
       7A    -11.213397     8A    -11.207868     9A     -1.470369
      10A     -1.362555    11A     -1.085431    12A     -1.022102
      13A     -0.969337    14A     -0.885975    15A     -0.808602
      16A     -0.766558    17A     -0.696557    18A     -0.680161
      19A     -0.671373    20A     -0.637191    21A     -0.599741
      22A     -0.589358    23A     -0.582285    24A     -0.539919
      25A     -0.536013    26A     -0.518342    27A     -0.506926
      28A     -0.479973    29A     -0.470968    30A     -0.463266
      31A     -0.454690    32A     -0.432543

  @DF-RHF Final Energy:  -383.93687705656174

   => Energetics <=

    Nuclear Repulsion Energy =            389.8083133982899540
    One-Electron Energy =               -1295.6597753417472632
    Two-Electron Energy =                 521.9145848868959092
    DFT Exchange-Correlation Energy =       0.0000000000000000
    Empirical Dispersion Energy =           0.0000000000000000
    PCM Polarization Energy =               0.0000000000000000
    EFP Energy =                            0.0000000000000000
    Total Energy =                       -383.9368770565613431
    Molecular point group: c1
  Basis Set: 6-31G*
  Basis Set:

  -Total Gradient:
     Atom            X                  Y                   Z
    ------   -----------------  -----------------  -----------------
       1        0.000006742294     0.000028875649    -0.000049479563
       2       -0.000002908468    -0.000104777312     0.000022390344
       3        0.003532413553     0.004196005914    -0.004433386137
       4       -0.000054910469     0.000079173022     0.000049103128
       5        0.004039265480     0.005324503177     0.000523474634
       6       -0.003545654995    -0.004319028838     0.003583668025
       7       -0.000021549200     0.000008393672    -0.000005742651
       8       -0.000046606112    -0.000019228215     0.000016922031
       9       -0.004005307300    -0.005168758000     0.000319499769
      10       -0.000011372546    -0.000001405401    -0.000016535663
      11        0.000010387771     0.000013241608     0.000007243142
      12        0.000026673458    -0.000027417177     0.000025752646
      13        0.000004116249    -0.000009776828    -0.000017599541
      14        0.000004572598    -0.000001323604    -0.000009885929
      15       -0.000006296132    -0.000001237543     0.000003096918
      16        0.000018584161    -0.000005218592     0.000006228218
      17        0.000027645453     0.000008070048    -0.000036982077
      18        0.000015144743    -0.000002682166     0.000005537302
      19        0.000013031676     0.000004849785     0.000006046360
      20       -0.000003972228    -0.000002259198     0.000000649042

  **** Optimization is complete! (in 11 steps) ****
    Final optimized geometry and variables:
    Molecular point group: c1

    Geometry (in Angstrom), charge = 0, multiplicity = 1:

    O            0.990017705093     0.563446927495     0.998385398599
    C            0.790042851127    -0.440621330266     0.392008515380
    C           -0.554649255032    -1.106704466015     0.243447137599
    O            1.754210078978    -1.138272270376    -0.191098441581
    C           -1.768806907660    -0.166484824342     0.184369902349
    H           -0.548470497862    -1.800716622537    -0.587519659158
    H           -0.651264709916    -1.738121835460     1.125608257797
    C           -1.627199882982     1.055107499063    -0.724662781177
    H           -2.060136462140     0.121310777784     1.189497401801
    H           -2.598891166362    -0.769366698106    -0.179325897638
    C           -2.934005084907     1.838355102479    -0.845270427342
    H           -0.848959544380     1.705748558601    -0.345854927666
    H           -1.311405944509     0.728600383676    -1.714569842416
    H           -3.266100306927     2.194605315379     0.125706301176
    H           -2.812746861535     2.703372218653    -1.489655360358
    H           -3.727458120586     1.223825000314    -1.261522493778
    C            3.075292573229    -0.645753866516    -0.055094542898
    H            3.158502259447     0.340933525624    -0.487207360331
    H            3.705447113255    -1.341687918678    -0.586516142764
    H            3.359191795566    -0.602640756012     0.986534486312

  Mulliken Charges: (a.u.)
   Center  Symbol    Alpha    Beta     Spin     Total
       1     O     4.28844  4.28844  0.00000 -0.57688
       2     C     2.60393  2.60393  0.00000  0.79214
       3     C     3.21357  3.21357  0.00000 -0.42713
       4     O     4.30497  4.30497  0.00000 -0.60994
       5     C     3.14868  3.14868  0.00000 -0.29736
       6     H     0.39935  0.39935  0.00000  0.20131
       7     H     0.39843  0.39843  0.00000  0.20313
       8     C     3.16309  3.16309  0.00000 -0.32618
       9     H     0.41254  0.41254  0.00000  0.17491
      10     H     0.41991  0.41991  0.00000  0.16019
      11     C     3.24066  3.24066  0.00000 -0.48132
      12     H     0.40122  0.40122  0.00000  0.19755
      13     H     0.42533  0.42533  0.00000  0.14935
      14     H     0.41983  0.41983  0.00000  0.16034
      15     H     0.41812  0.41812  0.00000  0.16376
      16     H     0.42327  0.42327  0.00000  0.15346
      17     C     3.09298  3.09298  0.00000 -0.18596
      18     H     0.40847  0.40847  0.00000  0.18306
      19     H     0.40827  0.40827  0.00000  0.18346
      20     H     0.40893  0.40893  0.00000  0.18213

   Total alpha = 32.00000, Total beta = 32.00000, Total charge = -0.00000
