  ==> Input File <==

--------------------------------------------------------------------------
set {
	reference rhf
	basis cc-pvtz
}

set_num_threads( 4 )
memory 2 gb

molecule MOL {
0 1

O	 -2.440701	 -0.934798	 -0.415053
C	 -1.922978	 0.063265	 -0.045005
C	 -2.632749	 1.372204	 0.158357
O	 -0.637375	 0.157174	 0.243149
H	 -2.187724	 2.129143	 -0.474664
H	 -3.677681	 1.257276	 -0.079438
H	 -2.516788	 1.693160	 1.185542
C	 0.162530	 -1.009518	 0.097799
C	 1.587210	 -0.664190	 0.477086
H	 0.096803	 -1.356267	 -0.924704
H	 -0.233803	 -1.785900	 0.736810
C	 2.256770	 0.342732	 -0.454344
H	 2.154716	 -1.590834	 0.479041
H	 1.598751	 -0.289614	 1.496104
C	 1.252759	 1.123712	 -1.295564
H	 2.848981	 1.036016	 0.137045
H	 2.949884	 -0.176209	 -1.106369
H	 1.753815	 1.833117	 -1.943695
H	 0.562043	 1.678787	 -0.669310
H	 0.667702	 0.459387	 -1.922778

	symmetry c1
}
set optking {
	frozen_dihedral = ("
		16 12 9 8
	")
}

ee = optimize('scf')
oeprop('DIPOLE', 'QUADRUPOLE', 'MULLIKEN_CHARGES')
f=open( 'psi4out.xyz', 'w' )
f.write( "20  " )
f.write( str(ee) + "\n" )
f.write( MOL.save_string_xyz() )
f.close()
--------------------------------------------------------------------------

    Molecular point group: c1
  Charge       = 0
  Multiplicity = 1
  Basis Set: CC-PVTZ
  Basis Set:
  @DF-RHF Final Energy:  -384.06946655500667
    Total Energy =                       -384.0694665550065565
    Molecular point group: c1
  Basis Set: CC-PVTZ
  Basis Set:
  Basis Set: CC-PVTZ
  Basis Set:
  @DF-RHF Final Energy:  -384.07573086822975
    Total Energy =                       -384.0757308682296980
  Basis Set: CC-PVTZ
  Basis Set:
  Basis Set: CC-PVTZ
  Basis Set:
  @DF-RHF Final Energy:  -384.07724852438736
    Total Energy =                       -384.0772485243874144
  Basis Set: CC-PVTZ
  Basis Set:
  Basis Set: CC-PVTZ
  Basis Set:
  @DF-RHF Final Energy:  -384.07525505240267
    Total Energy =                       -384.0752550524025537
  Basis Set: CC-PVTZ
  Basis Set:
  @DF-RHF Final Energy:  -384.07803521512341
    Total Energy =                       -384.0780352151238048
  @DF-RHF Final Energy:  -384.07818585494459
    Total Energy =                       -384.0781858549441949
  Basis Set: CC-PVTZ
  Basis Set:
  @DF-RHF Final Energy:  -384.07823087047461
    Total Energy =                       -384.0782308704746129
  Basis Set: CC-PVTZ
  Basis Set:
  Basis Set: CC-PVTZ
  Basis Set:
  @DF-RHF Final Energy:  -384.07823677454144
    Total Energy =                       -384.0782367745407555
  Basis Set: CC-PVTZ
  Basis Set:
  Basis Set: CC-PVTZ
  Basis Set:
  @DF-RHF Final Energy:  -384.07823868917012
    Total Energy =                       -384.0782386891698934
  Basis Set: CC-PVTZ
  Basis Set:
  Charge       = 0
  Multiplicity = 1
  Basis Set: CC-PVTZ
  Basis Set:

    Orbital Energies (a.u.)
    -----------------------

    Doubly Occupied:

       1A    -20.594036     2A    -20.532697     3A    -11.366664
       4A    -11.280281     5A    -11.231771     6A    -11.224314
       7A    -11.221036     8A    -11.208440     9A     -1.471124
      10A     -1.365215    11A     -1.082433    12A     -1.027028
      13A     -0.980537    14A     -0.893347    15A     -0.799266
      16A     -0.777666    17A     -0.692294    18A     -0.691040
      19A     -0.666850    20A     -0.627834    21A     -0.611845
      22A     -0.582736    23A     -0.571045    24A     -0.555917
      25A     -0.550318    26A     -0.528103    27A     -0.519840
      28A     -0.480206    29A     -0.476513    30A     -0.465947
      31A     -0.448714    32A     -0.440894

  @DF-RHF Final Energy:  -384.07823879691387

   => Energetics <=

    Nuclear Repulsion Energy =            395.0887562764243057
    One-Electron Energy =               -1306.4020865602706181
    Two-Electron Energy =                 527.2350914869321059
    DFT Exchange-Correlation Energy =       0.0000000000000000
    Empirical Dispersion Energy =           0.0000000000000000
    PCM Polarization Energy =               0.0000000000000000
    EFP Energy =                            0.0000000000000000
    Total Energy =                       -384.0782387969142064
    Molecular point group: c1
  Basis Set: CC-PVTZ
  Basis Set:

  -Total Gradient:
     Atom            X                  Y                   Z
    ------   -----------------  -----------------  -----------------
       1        0.000010695744    -0.000018004419     0.000000839079
       2        0.000018591813     0.000032205519     0.000016293329
       3       -0.000006484191     0.000009760764    -0.000015568131
       4       -0.000039616145    -0.000015835125    -0.000014218727
       5        0.000001101435     0.000001564222     0.000008109358
       6       -0.000000367983    -0.000001121996     0.000001557017
       7       -0.000003560128    -0.000003374948     0.000003806587
       8       -0.001028890046     0.002427681068     0.001537954871
       9        0.000874502555    -0.003023258609    -0.002243779878
      10       -0.000002452947     0.000002633244    -0.000001697798
      11       -0.000005376564     0.000002122597    -0.000000157938
      12        0.003202075262    -0.001978563919     0.000781740247
      13        0.000008356067     0.000002511423    -0.000001033202
      14       -0.000001284800    -0.000002098825    -0.000003972454
      15       -0.000006987338    -0.000002367891    -0.000006932841
      16       -0.003028687228     0.002555037681    -0.000062135122
      17       -0.000004085652     0.000000508058     0.000001540198
      18        0.000009246780     0.000001759724    -0.000003717394
      19       -0.000002482400     0.000003424919     0.000001401593
      20        0.000005705769     0.000005416514    -0.000000028793

  **** Optimization is complete! (in 10 steps) ****
    Final optimized geometry and variables:
    Molecular point group: c1

    Geometry (in Angstrom), charge = 0, multiplicity = 1:

    O           -2.168557105079    -1.028382161330    -0.246391079498
    C           -1.685790077838    -0.032867311621     0.174400044653
    C           -2.445080739051     1.231276524227     0.462888446544
    O           -0.400172397151     0.097914407607     0.447758609842
    H           -2.057115371556     2.034513595313    -0.150493142020
    H           -3.491599386410     1.079572472692     0.254440950779
    H           -2.306639034932     1.512032729584     1.498843572006
    C            0.440846964538    -1.026768772617     0.226025162174
    C            1.861435767656    -0.666560319454     0.618077893797
    H            0.358800097444    -1.333891912731    -0.806751342972
    H            0.085426777197    -1.844776038877     0.836585463303
    C            2.666273250864     0.265548679988    -0.320138902605
    H            2.403183393489    -1.599105691913     0.731203771102
    H            1.811367022300    -0.228345343988     1.608618237545
    C            1.874532187237     1.112891317009    -1.317536149481
    H            3.233601166664     0.952083371026     0.297762949578
    H            3.386830273854    -0.326549747709    -0.873072352625
    H            2.560019028817     1.699720055619    -1.918315923676
    H            1.201750819084     1.795854444966    -0.816648034295
    H            1.288069115578     0.506167863360    -1.997182064947

  Mulliken Charges: (a.u.)
   Center  Symbol    Alpha    Beta     Spin     Total
       1     O     4.19718  4.19718  0.00000 -0.39436
       2     C     2.80806  2.80806  0.00000  0.38388
       3     C     3.13921  3.13921  0.00000 -0.27843
       4     O     4.15332  4.15332  0.00000 -0.30665
       5     H     0.44612  0.44612  0.00000  0.10777
       6     H     0.43712  0.43712  0.00000  0.12575
       7     H     0.44549  0.44549  0.00000  0.10903
       8     C     3.00613  3.00613  0.00000 -0.01226
       9     C     3.09068  3.09068  0.00000 -0.18137
      10     H     0.44511  0.44511  0.00000  0.10977
      11     H     0.43926  0.43926  0.00000  0.12148
      12     C     3.08876  3.08876  0.00000 -0.17753
      13     H     0.44684  0.44684  0.00000  0.10633
      14     H     0.45154  0.45154  0.00000  0.09693
      15     C     3.15466  3.15466  0.00000 -0.30932
      16     H     0.45091  0.45091  0.00000  0.09819
      17     H     0.45093  0.45093  0.00000  0.09813
      18     H     0.44503  0.44503  0.00000  0.10994
      19     H     0.44859  0.44859  0.00000  0.10282
      20     H     0.45506  0.45506  0.00000  0.08988

   Total alpha = 32.00000, Total beta = 32.00000, Total charge =  0.00000
