  ==> Input File <==

--------------------------------------------------------------------------
set {
	reference rhf
	basis cc-pvtz
}

set_num_threads( 4 )
memory 2 gb

molecule MOL {
0 1

H	 -2.518174	 -0.988339	 0.329841
O	 -2.313989	 -0.142475	 -0.025864
C	 -0.943808	 -0.065018	 -0.330000
H	 -0.812293	 -0.225641	 -1.398673
C	 -0.231030	 -1.182113	 0.407592
C	 -0.353797	 1.300461	 0.050970
H	 -0.312800	 -0.992012	 1.473041
H	 -0.738841	 -2.119564	 0.220514
C	 1.246176	 -1.268044	 -0.015480
H	 -0.539537	 2.008579	 -0.751815
H	 -0.889989	 1.662858	 0.920677
C	 1.153605	 1.231851	 0.356834
H	 1.823096	 -1.684665	 0.802361
H	 1.352335	 -1.958223	 -0.845114
C	 1.826409	 0.100723	 -0.416008
H	 1.622968	 2.181508	 0.128734
H	 1.301983	 1.066493	 1.419367
H	 2.897299	 0.112407	 -0.249665
H	 1.683458	 0.265621	 -1.480024

	symmetry c1
}
set optking {
	frozen_dihedral = ("
		1 2 3 4
	")
}

ee = optimize('scf')
oeprop('DIPOLE', 'QUADRUPOLE', 'MULLIKEN_CHARGES')
f=open( 'psi4out.xyz', 'w' )
f.write( "19  " )
f.write( str(ee) + "\n" )
f.write( MOL.save_string_xyz() )
f.close()
--------------------------------------------------------------------------

    Molecular point group: c1
  Charge       = 0
  Multiplicity = 1
  Basis Set: CC-PVTZ
  Basis Set:
  @DF-RHF Final Energy:  -309.16019024517152
    Total Energy =                       -309.1601902451716342
    Molecular point group: c1
  Basis Set: CC-PVTZ
  Basis Set:
  Basis Set: CC-PVTZ
  Basis Set:
  @DF-RHF Final Energy:  -309.16163097750979
    Total Energy =                       -309.1616309775099580
  Basis Set: CC-PVTZ
  Basis Set:
  Basis Set: CC-PVTZ
  Basis Set:
  @DF-RHF Final Energy:  -309.16192076620268
    Total Energy =                       -309.1619207662027975
  Basis Set: CC-PVTZ
  Basis Set:
  Basis Set: CC-PVTZ
  Basis Set:
  @DF-RHF Final Energy:  -309.16192649872568
    Total Energy =                       -309.1619264987255633
  Basis Set: CC-PVTZ
  Basis Set:
  Charge       = 0
  Multiplicity = 1
  Basis Set: CC-PVTZ
  Basis Set:

    Orbital Energies (a.u.)
    -----------------------

    Doubly Occupied:

       1A    -20.541200     2A    -11.267177     3A    -11.218939
       4A    -11.217931     5A    -11.214876     6A    -11.213272
       7A    -11.206457     8A     -1.361653     9A     -1.111640
      10A     -1.005351    11A     -0.990049    12A     -0.852777
      13A     -0.833220    14A     -0.741581    15A     -0.691209
      16A     -0.663704    17A     -0.622519    18A     -0.608730
      19A     -0.575769    20A     -0.549730    21A     -0.531213
      22A     -0.522261    23A     -0.499988    24A     -0.490549
      25A     -0.467188    26A     -0.449450    27A     -0.427205
      28A     -0.415354

  @DF-RHF Final Energy:  -309.16192695357756

   => Energetics <=

    Nuclear Repulsion Energy =            331.9923870234021024
    One-Electron Energy =               -1077.7266432914470897
    Two-Electron Energy =                 436.5723293144679928
    DFT Exchange-Correlation Energy =       0.0000000000000000
    Empirical Dispersion Energy =           0.0000000000000000
    PCM Polarization Energy =               0.0000000000000000
    EFP Energy =                            0.0000000000000000
    Total Energy =                       -309.1619269535769945
    Molecular point group: c1
  Basis Set: CC-PVTZ
  Basis Set:

  -Total Gradient:
     Atom            X                  Y                   Z
    ------   -----------------  -----------------  -----------------
       1        0.000356595780     0.000592763685     0.001785291273
       2       -0.000445604991    -0.000360127667    -0.002251990836
       3        0.000116725930    -0.001832298799     0.000706885533
       4       -0.000018624097     0.001609002779    -0.000218212198
       5       -0.000000266714     0.000007085771    -0.000026002619
       6        0.000005025866    -0.000004809769     0.000001597941
       7        0.000003263910    -0.000001360576    -0.000011334125
       8        0.000004384550     0.000004235594    -0.000001136960
       9       -0.000002253233    -0.000002670028     0.000023690917
      10        0.000006650379     0.000005731785    -0.000005294600
      11       -0.000000543948    -0.000007003404    -0.000000007603
      12        0.000006369358     0.000008876915    -0.000009839346
      13        0.000018535968    -0.000009450792     0.000009188009
      14       -0.000003283422     0.000001150930     0.000006303504
      15       -0.000025303205    -0.000000511288    -0.000012174789
      16       -0.000012057696     0.000006926218     0.000005223130
      17       -0.000003873347    -0.000001941990     0.000003402303
      18       -0.000007059963    -0.000021979145    -0.000000196254
      19        0.000001318868     0.000006379778    -0.000005393281

  **** Optimization is complete! (in 5 steps) ****
    Final optimized geometry and variables:
    Molecular point group: c1

    Geometry (in Angstrom), charge = 0, multiplicity = 1:

    H           -2.606053070790    -0.892575040099     0.275118141938
    O           -2.327716649184    -0.059763086333    -0.057160324764
    C           -0.945840231093    -0.074245536540    -0.324050557818
    H           -0.814411053638    -0.223688256774    -1.393206665822
    C           -0.214697085881    -1.185309209215     0.411777900621
    C           -0.366282240791     1.294483262462     0.051935834425
    H           -0.287235197968    -0.997596298139     1.479293360033
    H           -0.702465967374    -2.138428300544     0.228033477354
    C            1.260206517168    -1.260560657106    -0.022282842391
    H           -0.568000857727     1.994480947224    -0.750963953857
    H           -0.904078135127     1.654208180367     0.920272738928
    C            1.143129796768     1.237954550985     0.348030606375
    H            1.846123737745    -1.671510653367     0.791954940431
    H            1.363819958141    -1.951085997339    -0.851650062852
    C            1.823093639986     0.113598650967    -0.428293321331
    H            1.602517143513     2.191430333288     0.116105524605
    H            1.302475158809     1.075006908217     1.409830144699
    H            2.894763518305     0.133969102284    -0.268327219194
    H            1.671298671254     0.274952116405    -1.491237733100

  Mulliken Charges: (a.u.)
   Center  Symbol    Alpha    Beta     Spin     Total
       1     H     0.39245  0.39245  0.00000  0.21510
       2     O     4.20761  4.20761  0.00000 -0.41521
       3     C     2.92562  2.92562  0.00000  0.14875
       4     H     0.45891  0.45891  0.00000  0.08217
       5     C     3.11156  3.11156  0.00000 -0.22312
       6     C     3.10959  3.10959  0.00000 -0.21918
       7     H     0.45149  0.45149  0.00000  0.09703
       8     H     0.44906  0.44906  0.00000  0.10187
       9     C     3.11353  3.11353  0.00000 -0.22705
      10     H     0.44619  0.44619  0.00000  0.10762
      11     H     0.44527  0.44527  0.00000  0.10946
      12     C     3.10144  3.10144  0.00000 -0.20289
      13     H     0.44694  0.44694  0.00000  0.10613
      14     H     0.44668  0.44668  0.00000  0.10665
      15     C     3.10187  3.10187  0.00000 -0.20374
      16     H     0.44185  0.44185  0.00000  0.11630
      17     H     0.45426  0.45426  0.00000  0.09148
      18     H     0.44275  0.44275  0.00000  0.11450
      19     H     0.45293  0.45293  0.00000  0.09414

   Total alpha = 28.00000, Total beta = 28.00000, Total charge = -0.00000
