  ==> Input File <==

--------------------------------------------------------------------------
set {
	reference rhf
	basis 6-31G*
}

set_num_threads( 4 )
memory 2 gb

molecule MOL {
0 1

H	 -0.987972	 0.468722	 -0.937286
N	 -0.712432	 0.000013	 -0.096310
C	 0.734192	 -0.000004	 0.040609
H	 -1.061796	 -0.936483	 -0.157771
H	 1.139899	 -0.873598	 -0.456463
H	 1.139939	 0.873831	 -0.456100
H	 1.096456	 -0.000300	 1.069655

	symmetry c1
}
set optking {
	frozen_dihedral = ("
		1 2 3 7
	")
}

ee = optimize('scf')
oeprop('DIPOLE', 'QUADRUPOLE', 'MULLIKEN_CHARGES')
f=open( 'psi4out.xyz', 'w' )
f.write( "7  " )
f.write( str(ee) + "\n" )
f.write( MOL.save_string_xyz() )
f.close()
--------------------------------------------------------------------------

    Molecular point group: c1
  Charge       = 0
  Multiplicity = 1
  Basis Set: 6-31G*
  Basis Set:
  @DF-RHF Final Energy:   -95.20618204199184
    Total Energy =                        -95.2061820419918519
    Molecular point group: c1
  Basis Set: 6-31G*
  Basis Set:
  Basis Set: 6-31G*
  Basis Set:
  @DF-RHF Final Energy:   -95.20787040570357
    Total Energy =                        -95.2078704057035736
  Basis Set: 6-31G*
  Basis Set:
  Basis Set: 6-31G*
  Basis Set:
  @DF-RHF Final Energy:   -95.20805775079859
    Total Energy =                        -95.2080577507985311
  Basis Set: 6-31G*
  Basis Set:
  Basis Set: 6-31G*
  Basis Set:
  @DF-RHF Final Energy:   -95.20806267196129
    Total Energy =                        -95.2080626719612724
  Basis Set: 6-31G*
  Basis Set:
  Charge       = 0
  Multiplicity = 1
  Basis Set: 6-31G*
  Basis Set:

    Orbital Energies (a.u.)
    -----------------------

    Doubly Occupied:

       1A    -15.532416     2A    -11.237149     3A     -1.168190
       4A     -0.896759     5A     -0.665512     6A     -0.600947
       7A     -0.559877     8A     -0.516694     9A     -0.379527

  @DF-RHF Final Energy:   -95.20806320380242

   => Energetics <=

    Nuclear Repulsion Energy =             42.3094676859398362
    One-Electron Energy =                -211.9209214727697201
    Two-Electron Energy =                  74.4033905830274307
    DFT Exchange-Correlation Energy =       0.0000000000000000
    Empirical Dispersion Energy =           0.0000000000000000
    PCM Polarization Energy =               0.0000000000000000
    EFP Energy =                            0.0000000000000000
    Total Energy =                        -95.2080632038024532
    Molecular point group: c1
  Basis Set: 6-31G*
  Basis Set:

  -Total Gradient:
     Atom            X                  Y                   Z
    ------   -----------------  -----------------  -----------------
       1       -0.000078982766     0.002779104057     0.001584729774
       2        0.000032659274    -0.002756386226    -0.001996748160
       3        0.000017206278    -0.003016588511     0.000463705622
       4       -0.000000459752     0.000024507228    -0.000003695936
       5       -0.000017993508     0.000034946959     0.000006227812
       6        0.000002341296    -0.000000739419     0.000001135337
       7        0.000045229178     0.002935155913    -0.000055354448

  **** Optimization is complete! (in 5 steps) ****
    Final optimized geometry and variables:
    Molecular point group: c1

    Geometry (in Angstrom), charge = 0, multiplicity = 1:

    H           -1.010654478525     0.483872529423    -0.869900560792
    N           -0.717383825990     0.024647295394    -0.032360359280
    C            0.732089280406     0.000328283381     0.082558231254
    H           -1.110582454456    -0.894298640368    -0.025022840732
    H            1.209065340264    -0.847932510891    -0.406326329872
    H            1.138649391979     0.903215813017    -0.359242556617
    H            1.024242712922     0.008775839474     1.127111738682

  Mulliken Charges: (a.u.)
   Center  Symbol    Alpha    Beta     Spin     Total
       1     H     0.33175  0.33175  0.00000  0.33650
       2     N     3.92308  3.92308  0.00000 -0.84616
       3     C     3.14528  3.14528  0.00000 -0.29056
       4     H     0.33179  0.33179  0.00000  0.33642
       5     H     0.43094  0.43094  0.00000  0.13812
       6     H     0.42055  0.42055  0.00000  0.15891
       7     H     0.41661  0.41661  0.00000  0.16677

   Total alpha =  9.00000, Total beta =  9.00000, Total charge =  0.00000
