  ==> Input File <==

--------------------------------------------------------------------------
set {
	reference rhf
	basis 6-31G*
}

set_num_threads( 1 )
memory 2 gb

molecule MOL {
0 1

H	 -3.892951	 0.981613	 -0.358725
C	 -3.196921	 0.361773	 0.172313
C	 -2.076860	 -0.007332	 -0.404944
H	 -3.439953	 0.057760	 1.173024
O	 -1.836089	 0.222131	 -1.722607
H	 -1.279714	 -0.492534	 0.130156
C	 -0.711084	 -0.351731	 -2.294355
C	 -0.986694	 -1.755489	 -2.784043
H	 0.125894	 -0.392443	 -1.606238
H	 -0.433081	 0.248238	 -3.148309
F	 0.104631	 -2.245911	 -3.353518
F	 -1.320229	 -2.564635	 -1.792142
F	 -1.957962	 -1.787881	 -3.672851

	symmetry c1
}
set optking {
	frozen_dihedral = ("
		11 8 7 9,
		3 5 7 9,
		6 3 5 7
	")
}

ee = energy('scf')
oeprop('DIPOLE', 'QUADRUPOLE', 'MULLIKEN_CHARGES')
f=open( 'psi4out.xyz', 'w' )
f.write( "13  " )
f.write( str(ee) + "\n" )
f.write( MOL.save_string_xyz() )
f.close()
--------------------------------------------------------------------------

    Molecular point group: c1

    Geometry (in Angstrom), charge = 0, multiplicity = 1:

       Center              X                  Y                   Z               Mass
    ------------   -----------------  -----------------  -----------------  -----------------
           H         -2.446390214488     2.111780595270     1.725416855448     1.007825032070
           C         -1.750360214488     1.491940595270     2.256454855448    12.000000000000
           C         -0.630299214488     1.122835595270     1.679197855448    12.000000000000
           H         -1.993392214488     1.187927595270     3.257165855448     1.007825032070
           O         -0.389528214488     1.352298595270     0.361534855448    15.994914619560
           H          0.166846785512     0.637633595270     2.214297855448     1.007825032070
           C          0.735476785512     0.778436595270    -0.210213144552    12.000000000000
           C          0.459866785512    -0.625321404730    -0.699901144552    12.000000000000
           H          1.572454785512     0.737724595270     0.477903855448     1.007825032070
           H          1.013479785512     1.378405595270    -1.064167144552     1.007825032070
           F          1.551191785512    -1.115743404730    -1.269376144552    18.998403224000
           F          0.126331785512    -1.434467404730     0.291999855448    18.998403224000
           F         -0.511401214488    -0.657713404730    -1.588709144552    18.998403224000

  Charge       = 0
  Multiplicity = 1
  Basis Set: 6-31G*
  Basis Set:

    Orbital Energies (a.u.)
    -----------------------

    Doubly Occupied:

       1A    -26.344707     2A    -26.343410     3A    -26.340466
       4A    -20.608477     5A    -11.503215     6A    -11.319282
       7A    -11.299695     8A    -11.215337     9A     -1.741649
      10A     -1.639801    11A     -1.638116    12A     -1.438453
      13A     -1.084333    14A     -1.016259    15A     -0.925233
      16A     -0.836505    17A     -0.830872    18A     -0.821318
      19A     -0.791853    20A     -0.721848    21A     -0.711214
      22A     -0.696495    23A     -0.675761    24A     -0.660186
      25A     -0.654537    26A     -0.642994    27A     -0.634032
      28A     -0.585985    29A     -0.562849    30A     -0.524981
      31A     -0.513173    32A     -0.349587

  @DF-RHF Final Energy:  -527.53337129492513

   => Energetics <=

    Nuclear Repulsion Energy =            413.5345757487860965
    One-Electron Energy =               -1550.7905105235331575
    Two-Electron Energy =                 609.7225634798223837
    DFT Exchange-Correlation Energy =       0.0000000000000000
    Empirical Dispersion Energy =           0.0000000000000000
    PCM Polarization Energy =               0.0000000000000000
    EFP Energy =                            0.0000000000000000
    Total Energy =                       -527.5333712949245637

  Mulliken Charges: (a.u.)
   Center  Symbol    Alpha    Beta     Spin     Total
       1     H     0.40306  0.40306  0.00000  0.19388
       2     C     3.23778  3.23778  0.00000 -0.47556
       3     C     2.89400  2.89400  0.00000  0.21199
       4     H     0.40518  0.40518  0.00000  0.18965
       5     O     4.30189  4.30189  0.00000 -0.60377
       6     H     0.40691  0.40691  0.00000  0.18619
       7     C     3.06390  3.06390  0.00000 -0.12780
       8     C     2.45536  2.45536  0.00000  1.08927
       9     H     0.40544  0.40544  0.00000  0.18912
      10     H     0.38975  0.38975  0.00000  0.22049
      11     F     4.68280  4.68280  0.00000 -0.36559
      12     F     4.67951  4.67951  0.00000 -0.35903
      13     F     4.67442  4.67442  0.00000 -0.34885

   Total alpha = 32.00000, Total beta = 32.00000, Total charge =  0.00000
