  ==> Input File <==

--------------------------------------------------------------------------
set {
	reference rhf
	basis 6-31G*
}

set_num_threads( 4 )
memory 2 gb

molecule MOL {
0 1

H	 -3.420663	 1.227371	 -1.044276
O	 -3.452007	 0.283848	 -0.965577
C	 -3.181085	 -0.079926	 0.364119
C	 -1.765924	 0.277073	 0.805136
H	 -3.327791	 -1.152017	 0.410903
H	 -3.905698	 0.375695	 1.036898
C	 -0.677594	 -0.417312	 -0.014550
H	 -1.637766	 1.358238	 0.744969
H	 -1.659588	 0.017670	 1.857098
C	 0.738335	 -0.034840	 0.421385
H	 -0.814977	 -0.178223	 -1.064632
H	 -0.802730	 -1.495410	 0.071702
C	 1.822265	 -0.738362	 -0.399735
H	 0.853533	 1.043532	 0.342250
H	 0.871597	 -0.279636	 1.474438
C	 3.258060	 -0.455774	 0.057203
H	 1.718003	 -0.459167	 -1.447053
H	 1.651028	 -1.811884	 -0.354513
C	 4.007390	 0.568344	 -0.797251
H	 3.813029	 -1.390750	 0.046315
H	 3.246769	 -0.122644	 1.093109
H	 4.023931	 0.267557	 -1.841469
H	 5.036837	 0.666879	 -0.466543
H	 3.553648	 1.552417	 -0.743555

	symmetry c1
}
set optking {
	frozen_dihedral = ("
		20 16 13 17
	")
}

ee = optimize('scf')
oeprop('DIPOLE', 'QUADRUPOLE', 'MULLIKEN_CHARGES')
f=open( 'psi4out.xyz', 'w' )
f.write( "24  " )
f.write( str(ee) + "\n" )
f.write( MOL.save_string_xyz() )
f.close()
--------------------------------------------------------------------------

    Molecular point group: c1
  Charge       = 0
  Multiplicity = 1
  Basis Set: 6-31G*
  Basis Set:
  @DF-RHF Final Energy:  -349.24417479094268
    Total Energy =                       -349.2441747909429637
    Molecular point group: c1
  Basis Set: 6-31G*
  Basis Set:
  Basis Set: 6-31G*
  Basis Set:
  @DF-RHF Final Energy:  -349.24489597048063
    Total Energy =                       -349.2448959704808544
  Basis Set: 6-31G*
  Basis Set:
  Basis Set: 6-31G*
  Basis Set:
  @DF-RHF Final Energy:  -349.24495873579133
    Total Energy =                       -349.2449587357914425
  Basis Set: 6-31G*
  Basis Set:
  Basis Set: 6-31G*
  Basis Set:
  @DF-RHF Final Energy:  -349.24496190966278
    Total Energy =                       -349.2449619096627202
  Basis Set: 6-31G*
  Basis Set:
  Basis Set: 6-31G*
  Basis Set:
  @DF-RHF Final Energy:  -349.24496831969083
    Total Energy =                       -349.2449683196904289
  Basis Set: 6-31G*
  Basis Set:
  Basis Set: 6-31G*
  Basis Set:
  @DF-RHF Final Energy:  -349.24496939454104
    Total Energy =                       -349.2449693945411013
  Basis Set: 6-31G*
  Basis Set:
  Charge       = 0
  Multiplicity = 1
  Basis Set: 6-31G*
  Basis Set:

    Orbital Energies (a.u.)
    -----------------------

    Doubly Occupied:

       1A    -20.553597     2A    -11.267713     3A    -11.217503
       4A    -11.213461     5A    -11.212874     6A    -11.211265
       7A    -11.210932     8A    -11.208055     9A     -1.360192
      10A     -1.087966    11A     -1.047870    12A     -0.986752
      13A     -0.913848    14A     -0.845518    15A     -0.799256
      16A     -0.784163    17A     -0.678985    18A     -0.653963
      19A     -0.624011    20A     -0.618286    21A     -0.597815
      22A     -0.583176    23A     -0.557480    24A     -0.536538
      25A     -0.521300    26A     -0.509853    27A     -0.493836
      28A     -0.473674    29A     -0.467499    30A     -0.457888
      31A     -0.456824    32A     -0.451525    33A     -0.418180

  @DF-RHF Final Energy:  -349.24496935097659

   => Energetics <=

    Nuclear Repulsion Energy =            383.1128908825679673
    One-Electron Energy =               -1232.6721207164096086
    Two-Electron Energy =                 500.3142604828652793
    DFT Exchange-Correlation Energy =       0.0000000000000000
    Empirical Dispersion Energy =           0.0000000000000000
    PCM Polarization Energy =               0.0000000000000000
    EFP Energy =                            0.0000000000000000
    Total Energy =                       -349.2449693509763620
    Molecular point group: c1
  Basis Set: 6-31G*
  Basis Set:

  -Total Gradient:
     Atom            X                  Y                   Z
    ------   -----------------  -----------------  -----------------
       1        0.000000515539    -0.000001119200    -0.000000174379
       2        0.000007664485    -0.000003872188    -0.000002364563
       3       -0.000002784391     0.000005398478     0.000002686780
       4        0.000000751646    -0.000017795166     0.000013530083
       5       -0.000000485601     0.000000827504     0.000002029566
       6       -0.000000261792     0.000001822247    -0.000000330339
       7        0.000003972709     0.000011911361    -0.000010545009
       8       -0.000001988109    -0.000006422814    -0.000002934953
       9       -0.000000210459     0.000000788769     0.000006201073
      10        0.000001807504     0.000003469525    -0.000000398813
      11       -0.000005976202     0.000009052066    -0.000006160624
      12        0.000005728491     0.000005149483    -0.000006571333
      13        0.001113297703    -0.003808852645    -0.000217711025
      14        0.000003449391    -0.000002020254    -0.000003490702
      15       -0.000018426400     0.000000493586    -0.000001812144
      16        0.000704179581     0.001342804216    -0.003725471721
      17       -0.001048454088     0.002984058489     0.000821555850
      18        0.000011761647    -0.000009529982    -0.000000569183
      19       -0.000003363668     0.000002607669    -0.000003705951
      20       -0.000776598819    -0.000519482101     0.003145310884
      21       -0.000002852579     0.000003304351    -0.000005373550
      22        0.000002956026    -0.000000244967    -0.000003792040
      23       -0.000002754263    -0.000003783382     0.000000646765
      24        0.000008071652     0.000001434955    -0.000000554675

  **** Optimization is complete! (in 7 steps) ****
    Final optimized geometry and variables:
    Molecular point group: c1

    Geometry (in Angstrom), charge = 0, multiplicity = 1:

    H           -3.371898674735     1.385441906555    -0.950088298083
    O           -3.437969858252     0.441725030363    -0.901336119366
    C           -3.204364996881     0.028181474499     0.420890847733
    C           -1.785480058550     0.319887279509     0.896610860043
    H           -3.390064251868    -1.038726447248     0.431825149520
    H           -3.924242356218     0.489076486461     1.095089865869
    C           -0.707997816654    -0.386575644266     0.072833627786
    H           -1.618063190906     1.397103990204     0.873397631032
    H           -1.706959009803     0.023697416235     1.941258428241
    C            0.712235249034    -0.064967751441     0.539919247197
    H           -0.821557508138    -0.113514425141    -0.971749071727
    H           -0.869671415188    -1.462134012810     0.126049316858
    C            1.792230366538    -0.793478025074    -0.266738383255
    H            0.877676082084     1.009735669206     0.475640863457
    H            0.816021674794    -0.324972024493     1.592115507523
    C            3.225043093048    -0.403698586180     0.147358339939
    H            1.642966833365    -0.557111412175    -1.318279227670
    H            1.647845821473    -1.865281872214    -0.162355115867
    C            3.847430172064     0.673289947701    -0.740555126193
    H            3.861191735479    -1.284430848189     0.159954519151
    H            3.213336544680    -0.049759262075     1.176192604652
    H            3.948491476447     0.324862558065    -1.764340214949
    H            4.834673407982     0.954275175127    -0.386537038770
    H            3.235597732272     1.571123903104    -0.757426511807

  Mulliken Charges: (a.u.)
   Center  Symbol    Alpha    Beta     Spin     Total
       1     H     0.28339  0.28339  0.00000  0.43323
       2     O     4.36829  4.36829  0.00000 -0.73658
       3     C     2.99615  2.99615  0.00000  0.00771
       4     C     3.16900  3.16900  0.00000 -0.33800
       5     H     0.41632  0.41632  0.00000  0.16736
       6     H     0.42815  0.42815  0.00000  0.14369
       7     C     3.15246  3.15246  0.00000 -0.30491
       8     H     0.42830  0.42830  0.00000  0.14340
       9     H     0.42231  0.42231  0.00000  0.15537
      10     C     3.15345  3.15345  0.00000 -0.30691
      11     H     0.41200  0.41200  0.00000  0.17600
      12     H     0.42363  0.42363  0.00000  0.15274
      13     C     3.15413  3.15413  0.00000 -0.30826
      14     H     0.42501  0.42501  0.00000  0.14998
      15     H     0.42461  0.42461  0.00000  0.15079
      16     C     3.15519  3.15519  0.00000 -0.31038
      17     H     0.42157  0.42157  0.00000  0.15686
      18     H     0.42057  0.42057  0.00000  0.15886
      19     C     3.23952  3.23952  0.00000 -0.47904
      20     H     0.42025  0.42025  0.00000  0.15950
      21     H     0.42216  0.42216  0.00000  0.15568
      22     H     0.42098  0.42098  0.00000  0.15804
      23     H     0.42022  0.42022  0.00000  0.15956
      24     H     0.42234  0.42234  0.00000  0.15531

   Total alpha = 33.00000, Total beta = 33.00000, Total charge = -0.00000
