  ==> Input File <==

--------------------------------------------------------------------------
set {
	reference rhf
	basis cc-pvtz
}

set_num_threads( 4 )
memory 2 gb

molecule MOL {
0 1

H	 2.204345	 -0.689865	 -0.323816
C	 1.523030	 -1.079695	 -1.091603
C	 0.224382	 -0.334673	 -1.230361
O	 1.833230	 -2.022592	 -1.733753
C	 -0.554654	 -0.292621	 0.086567
H	 -0.355485	 -0.799703	 -2.016705
H	 0.463094	 0.680405	 -1.541024
C	 -1.846385	 0.513195	 -0.016346
H	 -0.786157	 -1.307544	 0.396851
H	 0.072389	 0.132479	 0.866169
C	 -3.089953	 -0.365049	 -0.098564
H	 -1.798267	 1.154820	 -0.891143
H	 -1.925398	 1.173265	 0.842889
H	 -3.055079	 -1.012299	 -0.968245
H	 -3.988403	 0.236438	 -0.170014
H	 -3.183055	 -0.995885	 0.779079

	symmetry c1
}
set optking {
	frozen_dihedral = ("
		9 5 8 12
	")
}

ee = optimize('scf')
oeprop('DIPOLE', 'QUADRUPOLE', 'MULLIKEN_CHARGES')
f=open( 'psi4out.xyz', 'w' )
f.write( "16  " )
f.write( str(ee) + "\n" )
f.write( MOL.save_string_xyz() )
f.close()
--------------------------------------------------------------------------

    Molecular point group: c1
  Charge       = 0
  Multiplicity = 1
  Basis Set: CC-PVTZ
  Basis Set:
  @DF-RHF Final Energy:  -270.11396982087922
    Total Energy =                       -270.1139698208789355
    Molecular point group: c1
  Basis Set: CC-PVTZ
  Basis Set:
  Basis Set: CC-PVTZ
  Basis Set:
  @DF-RHF Final Energy:  -270.11427550405813
    Total Energy =                       -270.1142755040580141
  Basis Set: CC-PVTZ
  Basis Set:
  Basis Set: CC-PVTZ
  Basis Set:
  @DF-RHF Final Energy:  -270.11436728850998
    Total Energy =                       -270.1143672885099249
  Basis Set: CC-PVTZ
  Basis Set:
  Basis Set: CC-PVTZ
  Basis Set:
  @DF-RHF Final Energy:  -270.11433335156744
    Total Energy =                       -270.1143333515675522
  Basis Set: CC-PVTZ
  Basis Set:
  @DF-RHF Final Energy:  -270.11434437845332
    Total Energy =                       -270.1143443784536657
  Basis Set: CC-PVTZ
  Basis Set:
  @DF-RHF Final Energy:  -270.11436446617995
    Total Energy =                       -270.1143644661799499
  Basis Set: CC-PVTZ
  Basis Set:
  Basis Set: CC-PVTZ
  Basis Set:
  @DF-RHF Final Energy:  -270.11437123370115
    Total Energy =                       -270.1143712337012630
  Basis Set: CC-PVTZ
  Basis Set:
  Basis Set: CC-PVTZ
  Basis Set:
  @DF-RHF Final Energy:  -270.11437473568583
    Total Energy =                       -270.1143747356854874
  Basis Set: CC-PVTZ
  Basis Set:
  Charge       = 0
  Multiplicity = 1
  Basis Set: CC-PVTZ
  Basis Set:

    Orbital Energies (a.u.)
    -----------------------

    Doubly Occupied:

       1A    -20.552148     2A    -11.321084     3A    -11.234696
       4A    -11.234082     5A    -11.227295     6A    -11.216037
       7A     -1.406781     8A     -1.096054     9A     -1.017942
      10A     -0.907621    11A     -0.811961    12A     -0.794142
      13A     -0.679277    14A     -0.650840    15A     -0.624689
      16A     -0.611566    17A     -0.584888    18A     -0.549003
      19A     -0.532870    20A     -0.512310    21A     -0.488150
      22A     -0.478861    23A     -0.475931    24A     -0.411343

  @DF-RHF Final Energy:  -270.11437545665797

   => Energetics <=

    Nuclear Repulsion Energy =            231.0479912220179983
    One-Electron Energy =                -823.4855880288369008
    Two-Electron Energy =                 322.3232213501610204
    DFT Exchange-Correlation Energy =       0.0000000000000000
    Empirical Dispersion Energy =           0.0000000000000000
    PCM Polarization Energy =               0.0000000000000000
    EFP Energy =                            0.0000000000000000
    Total Energy =                       -270.1143754566578536
    Molecular point group: c1
  Basis Set: CC-PVTZ
  Basis Set:

  -Total Gradient:
     Atom            X                  Y                   Z
    ------   -----------------  -----------------  -----------------
       1       -0.000002268442    -0.000009240553     0.000002957243
       2       -0.000006517485     0.000015765124    -0.000008987048
       3       -0.000000504161    -0.000011493177     0.000021934553
       4        0.000012844190    -0.000005845277    -0.000009153756
       5        0.000039360953     0.000528696702     0.003271594856
       6        0.000002538366    -0.000001116238     0.000003401033
       7        0.000000334576     0.000002933021    -0.000008964363
       8        0.001452819392     0.002604528052     0.001429152120
       9       -0.000274095280    -0.000849552039    -0.002973010841
      10        0.000000711330    -0.000002729441    -0.000003168872
      11        0.000000188453     0.000004684888    -0.000000250226
      12       -0.001221514817    -0.002277692999    -0.001725222446
      13       -0.000004472717     0.000001005093    -0.000000496666
      14        0.000000739908     0.000001456248     0.000000144341
      15       -0.000002631730     0.000000164702     0.000001227430
      16        0.000002467465    -0.000001564109    -0.000001157361

  **** Optimization is complete! (in 9 steps) ****
    Final optimized geometry and variables:
    Molecular point group: c1

    Geometry (in Angstrom), charge = 0, multiplicity = 1:

    H            2.548796632227    -0.110955187750     0.329805704507
    C            1.840127421434    -0.488535445232    -0.419190590937
    C            0.561200052235     0.292790102223    -0.538680811226
    O            2.108647735030    -1.447619301761    -1.056401269875
    C           -0.198977951041     0.351931441603     0.791918861196
    H           -0.042201174735    -0.154930157139    -1.317678919487
    H            0.822039573346     1.301948567925    -0.849414245621
    C           -1.518464974965     1.139202036876     0.687646039469
    H           -0.409252370795    -0.666844651914     1.101121792688
    H            0.442972462618     0.788615872260     1.549163358399
    C           -2.744303354768     0.236197765303     0.568022939895
    H           -1.486836074903     1.783228528178    -0.185048123651
    H           -1.634733963119     1.783806078127     1.550843638518
    H           -2.664393352414    -0.422525580405    -0.290364509537
    H           -3.649793780470     0.820461532341     0.452459223169
    H           -2.859313961784    -0.384367106101     1.449899899656

  Mulliken Charges: (a.u.)
   Center  Symbol    Alpha    Beta     Spin     Total
       1     H     0.46503  0.46503  0.00000  0.06995
       2     C     2.91091  2.91091  0.00000  0.17817
       3     C     3.07744  3.07744  0.00000 -0.15488
       4     O     4.16395  4.16395  0.00000 -0.32790
       5     C     3.10971  3.10971  0.00000 -0.21941
       6     H     0.44268  0.44268  0.00000  0.11464
       7     H     0.44981  0.44981  0.00000  0.10039
       8     C     3.08930  3.08930  0.00000 -0.17860
       9     H     0.44647  0.44647  0.00000  0.10707
      10     H     0.44437  0.44437  0.00000  0.11126
      11     C     3.14682  3.14682  0.00000 -0.29364
      12     H     0.45374  0.45374  0.00000  0.09252
      13     H     0.44576  0.44576  0.00000  0.10848
      14     H     0.45256  0.45256  0.00000  0.09487
      15     H     0.44784  0.44784  0.00000  0.10432
      16     H     0.45361  0.45361  0.00000  0.09278

   Total alpha = 24.00000, Total beta = 24.00000, Total charge =  0.00000
