  ==> Input File <==

--------------------------------------------------------------------------
set {
	reference rhf
	basis 6-31G*
}

set_num_threads( 4 )
memory 2 gb

molecule MOL {
0 1

H	 -2.177276	 0.597986	 2.459417
C	 -1.678770	 -0.128520	 3.098027
O	 -0.471301	 -0.546115	 2.547599
H	 -1.460230	 0.334358	 4.050459
H	 -2.355660	 -0.966111	 3.261397
C	 -0.595162	 -1.173024	 1.310307
C	 0.780252	 -1.480455	 0.766313
H	 -1.156451	 -2.102706	 1.411999
H	 -1.125580	 -0.536319	 0.605135
O	 1.392611	 -0.295398	 0.366430
H	 1.366841	 -1.978916	 1.535375
H	 0.686847	 -2.162093	 -0.080055
C	 2.706965	 -0.449871	 -0.062409
H	 2.756559	 -0.644779	 -1.131878
H	 3.305899	 0.433456	 0.155466
H	 3.125548	 -1.294566	 0.467107

	symmetry c1
}
set optking {
	frozen_dihedral = ("
		7 10 13 14
	")
}

ee = optimize('scf')
oeprop('DIPOLE', 'QUADRUPOLE', 'MULLIKEN_CHARGES')
f=open( 'psi4out.xyz', 'w' )
f.write( "16  " )
f.write( str(ee) + "\n" )
f.write( MOL.save_string_xyz() )
f.close()
--------------------------------------------------------------------------

    Molecular point group: c1
  Charge       = 0
  Multiplicity = 1
  Basis Set: 6-31G*
  Basis Set:
  @DF-RHF Final Energy:  -306.97435675712279
    Total Energy =                       -306.9743567571225640
    Molecular point group: c1
  Basis Set: 6-31G*
  Basis Set:
  Basis Set: 6-31G*
  Basis Set:
  @DF-RHF Final Energy:  -306.97549086703197
    Total Energy =                       -306.9754908670320788
  Basis Set: 6-31G*
  Basis Set:
  Basis Set: 6-31G*
  Basis Set:
  @DF-RHF Final Energy:  -306.97581191341482
    Total Energy =                       -306.9758119134148728
  Basis Set: 6-31G*
  Basis Set:
  Charge       = 0
  Multiplicity = 1
  Basis Set: 6-31G*
  Basis Set:

    Orbital Energies (a.u.)
    -----------------------

    Doubly Occupied:

       1A    -20.553343     2A    -20.551740     3A    -11.269129
       4A    -11.268262     5A    -11.263395     6A    -11.263079
       7A     -1.387023     8A     -1.369081     9A     -1.030740
      10A     -0.936223    11A     -0.891809    12A     -0.823691
      13A     -0.683058    14A     -0.679691    15A     -0.656453
      16A     -0.635283    17A     -0.628730    18A     -0.596452
      19A     -0.552682    20A     -0.535915    21A     -0.508517
      22A     -0.477079    23A     -0.462009    24A     -0.418600
      25A     -0.408700

  @DF-RHF Final Energy:  -306.97581436322400

   => Energetics <=

    Nuclear Repulsion Energy =            258.7013257982563346
    One-Electron Energy =                -931.6529128684506986
    Two-Electron Energy =                 365.9757727069701332
    DFT Exchange-Correlation Energy =       0.0000000000000000
    Empirical Dispersion Energy =           0.0000000000000000
    PCM Polarization Energy =               0.0000000000000000
    EFP Energy =                            0.0000000000000000
    Total Energy =                       -306.9758143632242309
    Molecular point group: c1
  Basis Set: 6-31G*
  Basis Set:

  -Total Gradient:
     Atom            X                  Y                   Z
    ------   -----------------  -----------------  -----------------
       1        0.000001287470    -0.000000045757    -0.000001456145
       2       -0.000000798348    -0.000003737365    -0.000003364173
       3        0.000005780136    -0.000000325748     0.000015884356
       4        0.000003674145    -0.000001602181    -0.000002650281
       5       -0.000000449556    -0.000000677696     0.000000042715
       6       -0.000006621189     0.000045315758    -0.000020630039
       7        0.000801451151     0.000262016606     0.002276699006
       8        0.000015342045    -0.000005882320     0.000002167121
       9       -0.000000501671    -0.000004854892    -0.000006557194
      10       -0.001017911497     0.000458863775    -0.003608996591
      11        0.000034460073     0.000027300698     0.000005375732
      12       -0.000001654070     0.000009862355     0.000018742846
      13        0.000121230877    -0.003851211654     0.001814745677
      14        0.000016841157     0.003086890919    -0.000482251939
      15       -0.000022217537     0.000021637943    -0.000018182514
      16        0.000050086814    -0.000043550441     0.000010431427

  **** Optimization is complete! (in 4 steps) ****
    Final optimized geometry and variables:
    Molecular point group: c1

    Geometry (in Angstrom), charge = 0, multiplicity = 1:

    H           -2.519073783633     1.295179088398     1.120127459157
    C           -2.029727109936     0.560464912146     1.756437683145
    O           -0.828564571490     0.127862842486     1.203782510145
    H           -1.804192133118     1.017962522964     2.709836413880
    H           -2.717522092956    -0.268465023554     1.918118480334
    C           -0.962203646769    -0.494544602762    -0.034840854300
    C            0.408291943610    -0.818898448958    -0.581675776831
    H           -1.535162139148    -1.417257234533     0.065603830690
    H           -1.485818389265     0.150396012541    -0.737478610442
    O            1.037105648850     0.361733171019    -0.970448597957
    H            0.987709204594    -1.329173196114     0.184122174050
    H            0.301559892951    -1.495528033431    -1.430569878980
    C            2.357867749189     0.221018806871    -1.393004066018
    H            2.409427782497     0.038243381932    -2.464203509008
    H            2.870710343111     1.152056128060    -1.187877119644
    H            2.870880462404    -0.579709030483    -0.867441662212

  Mulliken Charges: (a.u.)
   Center  Symbol    Alpha    Beta     Spin     Total
       1     H     0.42809  0.42809  0.00000  0.14383
       2     C     3.07945  3.07945  0.00000 -0.15890
       3     O     4.30087  4.30087  0.00000 -0.60174
       4     H     0.41136  0.41136  0.00000  0.17728
       5     H     0.43193  0.43193  0.00000  0.13613
       6     C     2.99354  2.99354  0.00000  0.01292
       7     C     2.99308  2.99308  0.00000  0.01383
       8     H     0.43237  0.43237  0.00000  0.13527
       9     H     0.42277  0.42277  0.00000  0.15447
      10     O     4.30329  4.30329  0.00000 -0.60658
      11     H     0.42217  0.42217  0.00000  0.15566
      12     H     0.43270  0.43270  0.00000  0.13460
      13     C     3.07740  3.07740  0.00000 -0.15481
      14     H     0.42791  0.42791  0.00000  0.14419
      15     H     0.41312  0.41312  0.00000  0.17376
      16     H     0.42995  0.42995  0.00000  0.14009

   Total alpha = 25.00000, Total beta = 25.00000, Total charge =  0.00000
