  ==> Input File <==

--------------------------------------------------------------------------
set {
	reference rhf
	basis cc-pvtz
}

set_num_threads( 4 )
memory 2 gb

molecule MOL {
0 1

H	 -2.757398	 -0.636861	 1.153709
C	 -2.707493	 -0.455675	 0.082464
O	 -1.395611	 -0.309427	 -0.347789
H	 -3.132134	 -1.304278	 -0.433715
H	 -3.303833	 0.426035	 -0.145245
C	 -0.718530	 0.758693	 0.228682
C	 0.718529	 0.758687	 -0.228709
H	 -1.181844	 1.701026	 -0.063411
H	 -0.748278	 0.692613	 1.314121
O	 1.401606	 -0.295166	 0.366636
H	 0.748705	 0.673477	 -1.312803
H	 1.176496	 1.708671	 0.046552
C	 2.714315	 -0.441627	 -0.061017
H	 2.765292	 -0.641548	 -1.128869
H	 3.305661	 0.447341	 0.150952
H	 3.143725	 -1.278506	 0.470147

	symmetry c1
}
set optking {
	frozen_dihedral = ("
		3 6 7 11
	")
}

ee = optimize('scf')
oeprop('DIPOLE', 'QUADRUPOLE', 'MULLIKEN_CHARGES')
f=open( 'psi4out.xyz', 'w' )
f.write( "16  " )
f.write( str(ee) + "\n" )
f.write( MOL.save_string_xyz() )
f.close()
--------------------------------------------------------------------------

    Molecular point group: c1
  Charge       = 0
  Multiplicity = 1
  Basis Set: CC-PVTZ
  Basis Set:
  @DF-RHF Final Energy:  -307.09794951388602
    Total Energy =                       -307.0979495138857374
    Molecular point group: c1
  Basis Set: CC-PVTZ
  Basis Set:
  Charge       = 0
  Multiplicity = 1
  Basis Set: CC-PVTZ
  Basis Set:

    Orbital Energies (a.u.)
    -----------------------

    Doubly Occupied:

       1A    -20.547859     2A    -20.547787     3A    -11.267636
       4A    -11.266957     5A    -11.261631     6A    -11.261604
       7A     -1.391881     8A     -1.374574     9A     -1.032149
      10A     -0.937173    11A     -0.892397    12A     -0.824298
      13A     -0.686623    14A     -0.682771    15A     -0.659576
      16A     -0.638413    17A     -0.632087    18A     -0.598583
      19A     -0.551193    20A     -0.535709    21A     -0.509934
      22A     -0.479771    23A     -0.464887    24A     -0.423143
      25A     -0.413864

  @DF-RHF Final Energy:  -307.09795038328832

   => Energetics <=

    Nuclear Repulsion Energy =            258.9689676405336058
    One-Electron Energy =                -932.3688330561353723
    Two-Electron Energy =                 366.3019150323133886
    DFT Exchange-Correlation Energy =       0.0000000000000000
    Empirical Dispersion Energy =           0.0000000000000000
    PCM Polarization Energy =               0.0000000000000000
    EFP Energy =                            0.0000000000000000
    Total Energy =                       -307.0979503832883779
    Molecular point group: c1
  Basis Set: CC-PVTZ
  Basis Set:

  -Total Gradient:
     Atom            X                  Y                   Z
    ------   -----------------  -----------------  -----------------
       1        0.000000622468    -0.000001689566    -0.000004891501
       2        0.000009774916     0.000016447501     0.000015583210
       3        0.000107742164    -0.000163516081     0.000169202973
       4        0.000005318081     0.000000860181    -0.000003300391
       5       -0.000006402005     0.000001358889     0.000000443888
       6       -0.000079744191     0.000316059152    -0.000180581699
       7       -0.000020257927    -0.000358937513    -0.000126091879
       8        0.000015135319     0.000017381923     0.000015669265
       9       -0.000030344776    -0.000029413443    -0.000007728661
      10        0.000072348282    -0.000070514538     0.000124731005
      11       -0.000020858073     0.000324371772    -0.000038004071
      12       -0.000036725681    -0.000068500105     0.000026893225
      13       -0.000022470411     0.000018903469     0.000012539843
      14       -0.000005284697    -0.000000260313    -0.000003256849
      15        0.000012308851    -0.000002670927    -0.000002546047
      16       -0.000001162320     0.000000119596     0.000001337690

  **** Optimization is complete! (in 2 steps) ****
    Final optimized geometry and variables:
    Molecular point group: c1

    Geometry (in Angstrom), charge = 0, multiplicity = 1:

    H           -2.760787585553    -0.630436081701     1.147171495017
    C           -2.710943041527    -0.449248829564     0.075930376372
    O           -1.398972353394    -0.304657559981    -0.354587104580
    H           -3.136727349524    -1.297297312505    -0.440201261994
    H           -3.306287065201     0.433199785162    -0.151585889223
    C           -0.720395320772     0.762161931691     0.222154297366
    C            0.716073295101     0.761408599225    -0.236684101862
    H           -1.182521589879     1.705818049962    -0.067658242016
    H           -0.749286026528     0.694034416594     1.307531032385
    O            1.400392176957    -0.290902959502     0.359596377854
    H            0.746022163810     0.677292409314    -1.320910176428
    H            1.172943393537     1.712148929488     0.037908645690
    C            2.713664122917    -0.435262250213    -0.067013035641
    H            2.765740368257    -0.635165325706    -1.134813129489
    H            3.303479513952     0.454644170153     0.145350140197
    H            3.143952716110    -1.271432812343     0.464533228398

  Mulliken Charges: (a.u.)
   Center  Symbol    Alpha    Beta     Spin     Total
       1     H     0.47023  0.47023  0.00000  0.05955
       2     C     3.03202  3.03202  0.00000 -0.06403
       3     O     4.17030  4.17030  0.00000 -0.34059
       4     H     0.44633  0.44633  0.00000  0.10735
       5     H     0.47369  0.47369  0.00000  0.05262
       6     C     2.96065  2.96065  0.00000  0.07869
       7     C     2.96061  2.96061  0.00000  0.07879
       8     H     0.47602  0.47602  0.00000  0.04797
       9     H     0.47079  0.47079  0.00000  0.05842
      10     O     4.17025  4.17025  0.00000 -0.34051
      11     H     0.47076  0.47076  0.00000  0.05848
      12     H     0.47614  0.47614  0.00000  0.04771
      13     C     3.03201  3.03201  0.00000 -0.06403
      14     H     0.47020  0.47020  0.00000  0.05961
      15     H     0.47368  0.47368  0.00000  0.05263
      16     H     0.44632  0.44632  0.00000  0.10736

   Total alpha = 25.00000, Total beta = 25.00000, Total charge = -0.00000
