                              Psi4 1.0.54 Driver

  ==> Input File <==

--------------------------------------------------------------------------
set {
	reference rhf
	basis cc-pvtz
}

set_num_threads( 4 )
memory 2 gb

molecule MOL {
0 1

H	 2.614283	 2.028610	 0.296620
O	 3.358864	 1.662087	 -0.142800
C	 3.565468	 0.338079	 0.273842
C	 2.533667	 -0.637565	 -0.272227
H	 4.548038	 0.064914	 -0.086598
H	 3.593945	 0.282242	 1.360360
C	 1.085288	 -0.228142	 -0.014506
H	 2.697158	 -0.751621	 -1.339663
H	 2.719102	 -1.608379	 0.181131
C	 0.079179	 -1.247243	 -0.547436
H	 0.898642	 0.737420	 -0.472607
H	 0.931792	 -0.101684	 1.055884
C	 -1.386502	 -0.924071	 -0.251475
H	 0.213433	 -1.353410	 -1.621183
H	 0.310281	 -2.217721	 -0.117049
C	 -1.933199	 0.310954	 -0.965323
H	 -1.988954	 -1.782330	 -0.536029
H	 -1.518031	 -0.806653	 0.821869
C	 -3.422815	 0.533992	 -0.716907
H	 -1.760190	 0.212004	 -2.034783
H	 -1.389436	 1.196262	 -0.649802
C	 -3.971077	 1.768375	 -1.425145
H	 -3.975947	 -0.342812	 -1.042232
H	 -3.598529	 0.624600	 0.351726
H	 -3.839409	 1.693919	 -2.499556
H	 -5.029817	 1.895614	 -1.230245
H	 -3.463694	 2.668237	 -1.093240

	symmetry c1
}
set optking {
	frozen_dihedral = ("
		8 4 3 2
	")
}

ee,wfn = optimize('scf', return_wfn=True)
oeprop( wfn, 'DIPOLE', 'QUADRUPOLE', 'MULLIKEN_CHARGES')
f=open( 'psi4out.xyz', 'w' )
f.write( "27  " )
f.write( str(ee) + "\n" )
f.write( MOL.save_string_xyz() )
f.close()
--------------------------------------------------------------------------

    Molecular point group: c1
  Charge       = 0
  Multiplicity = 1
  Basis Set: CC-PVTZ
  Basis Set:
  @DF-RHF Final Energy:  -388.42700013334149
    Total Energy =                       -388.4270001333411528
    Molecular point group: c1
  Basis Set: CC-PVTZ
  Basis Set:
  Basis Set: CC-PVTZ
  Basis Set:
  @DF-RHF Final Energy:  -388.42699966702787
    Total Energy =                       -388.4269996670278715
  Basis Set: CC-PVTZ
  Basis Set:
  Basis Set: CC-PVTZ
  Basis Set:
  @DF-RHF Final Energy:  -388.42714865949273
    Total Energy =                       -388.4271486594925591
  Basis Set: CC-PVTZ
  Basis Set:
  Basis Set: CC-PVTZ
  Basis Set:
  @DF-RHF Final Energy:  -388.42715117318920
    Total Energy =                       -388.4271511731897135
  Basis Set: CC-PVTZ
  Basis Set:
  Charge       = 0
  Multiplicity = 1
  Basis Set: CC-PVTZ
  Basis Set:

    Orbital Energies (a.u.)
    -----------------------

    Doubly Occupied:

       1A    -20.545195     2A    -11.265272     3A    -11.216582
       4A    -11.214674     5A    -11.213633     6A    -11.213555
       7A    -11.213110     8A    -11.211521     9A    -11.206938
      10A     -1.363336    11A     -1.095992    12A     -1.062229
      13A     -1.012230    14A     -0.949597    15A     -0.889051
      16A     -0.820279    17A     -0.801149    18A     -0.778098
      19A     -0.696514    20A     -0.651271    21A     -0.638321
      22A     -0.617517    23A     -0.602397    24A     -0.584573
      25A     -0.579959    26A     -0.554044    27A     -0.542743
      28A     -0.531161    29A     -0.505831    30A     -0.492755
      31A     -0.485565    32A     -0.474345    33A     -0.470311
      34A     -0.461210    35A     -0.450651    36A     -0.443117
      37A     -0.425656

  @DF-RHF Final Energy:  -388.42715129751696

   => Energetics <=

    Nuclear Repulsion Energy =            460.6803132965883378
    One-Electron Energy =               -1439.6541611982506765
    Two-Electron Energy =                 590.5466966041454953
    DFT Exchange-Correlation Energy =       0.0000000000000000
    Empirical Dispersion Energy =           0.0000000000000000
    PCM Polarization Energy =               0.0000000000000000
    EFP Energy =                            0.0000000000000000
    Total Energy =                       -388.4271512975168434
    Molecular point group: c1
  Basis Set: CC-PVTZ
  Basis Set:

  -Total Gradient:
     Atom            X                  Y                   Z
    ------   -----------------  -----------------  -----------------
       1        0.000010682699     0.000000557642     0.000001936632
       2       -0.001386838019     0.000549368153     0.001813025796
       3        0.002258953276    -0.001293384567    -0.002360492775
       4       -0.002559074112     0.003123271602    -0.000013386053
       5       -0.000012561663     0.000013143871    -0.000010994322
       6        0.000008397704    -0.000019267202     0.000001903275
       7        0.000010993760     0.000010355716    -0.000019119118
       8        0.001665937602    -0.002358727823     0.000603878481
       9        0.000004484158    -0.000029419671     0.000002038772
      10       -0.000002622511     0.000007400336    -0.000026409304
      11        0.000007124658    -0.000017210313     0.000003879512
      12        0.000014608865     0.000002931646    -0.000007092676
      13       -0.000000139133     0.000000912797     0.000006462696
      14        0.000002579726     0.000003399060    -0.000004501857
      15        0.000000951583     0.000005252684    -0.000007163620
      16        0.000000941307     0.000006730911     0.000010864956
      17       -0.000002469449    -0.000003432901     0.000009582863
      18       -0.000001533077     0.000009553636     0.000004898062
      19       -0.000003930235    -0.000010536809    -0.000003172660
      20        0.000007832512     0.000001607564    -0.000000819259
      21       -0.000019212849    -0.000006110383    -0.000002255792
      22       -0.000001584883     0.000003490954    -0.000000893878
      23       -0.000002711414    -0.000003439053     0.000005024673
      24        0.000000041243     0.000001822178    -0.000002644504
      25       -0.000001867051     0.000000985169    -0.000000605517
      26        0.000002443610    -0.000000551742    -0.000003006035
      27       -0.000001428306     0.000001296545    -0.000000938349

  **** Optimization is complete! (in 5 steps) ****
    Final optimized geometry and variables:
    Molecular point group: c1

    Geometry (in Angstrom), charge = 0, multiplicity = 1:

    H            2.707286771773     1.712176484956     0.734906466355
    O            3.439814150568     1.289842164945     0.326996529829
    C            3.532531584292    -0.041106517627     0.761188643797
    C            2.449014232652    -0.951604470962     0.197676610748
    H            4.505205467706    -0.394098238521     0.447182017104
    H            3.512181529296    -0.078992367056     1.848745281937
    C            1.022780755571    -0.465839370705     0.437781783030
    H            2.623237697359    -1.100858415633    -0.863837645062
    H            2.577584162776    -1.927940105211     0.660481171577
    C           -0.029182303843    -1.459243656738    -0.053529356784
    H            0.882257220165     0.487488853209    -0.058368081131
    H            0.875653762308    -0.291530047378     1.502944155034
    C           -1.478304203292    -1.054575470083     0.223333841643
    H            0.101207212130    -1.617589426627    -1.121301086472
    H            0.155258805920    -2.419986856879     0.418845411510
    C           -1.966331383912     0.170316552962    -0.548104906496
    H           -2.120158376935    -1.895815174380    -0.023176214380
    H           -1.604984746934    -0.882073016287     1.289809910737
    C           -3.443585520938     0.474786877433    -0.313056579505
    H           -1.798756829605     0.013226326487    -1.611374643621
    H           -1.381106060915     1.042714767840    -0.273849550832
    C           -3.933481745599     1.698597643406    -1.079904639677
    H           -4.037660000501    -0.389423129661    -0.597271969057
    H           -3.614235289676     0.624213774871     0.749747614647
    H           -3.806836519150     1.566779932670    -2.149359979086
    H           -4.984706047700     1.885152759331    -0.892411882729
    H           -3.383461444945     2.588098473161    -0.790911297223

  Mulliken Charges: (a.u.)
   Center  Symbol    Alpha    Beta     Spin     Total
       1     H     0.39099  0.39099  0.00000  0.21801
       2     O     4.20592  4.20592  0.00000 -0.41184
       3     C     2.98116  2.98116  0.00000  0.03768
       4     C     3.08733  3.08733  0.00000 -0.17466
       5     H     0.44906  0.44906  0.00000  0.10187
       6     H     0.46933  0.46933  0.00000  0.06133
       7     C     3.10647  3.10647  0.00000 -0.21294
       8     H     0.45145  0.45145  0.00000  0.09710
       9     H     0.45619  0.45619  0.00000  0.08762
      10     C     3.09933  3.09933  0.00000 -0.19866
      11     H     0.45028  0.45028  0.00000  0.09944
      12     H     0.45416  0.45416  0.00000  0.09168
      13     C     3.09817  3.09817  0.00000 -0.19634
      14     H     0.45177  0.45177  0.00000  0.09646
      15     H     0.44807  0.44807  0.00000  0.10385
      16     C     3.08788  3.08788  0.00000 -0.17576
      17     H     0.44799  0.44799  0.00000  0.10401
      18     H     0.45409  0.45409  0.00000  0.09182
      19     C     3.08411  3.08411  0.00000 -0.16822
      20     H     0.45413  0.45413  0.00000  0.09174
      21     H     0.45498  0.45498  0.00000  0.09004
      22     C     3.14957  3.14957  0.00000 -0.29914
      23     H     0.45386  0.45386  0.00000  0.09228
      24     H     0.45482  0.45482  0.00000  0.09035
      25     H     0.45485  0.45485  0.00000  0.09030
      26     H     0.44839  0.44839  0.00000  0.10321
      27     H     0.45563  0.45563  0.00000  0.08875

   Total alpha = 37.00000, Total beta = 37.00000, Total charge =  0.00000

*** Psi4 exiting successfully. Buy a developer a beer!
