  ==> Input File <==

--------------------------------------------------------------------------
set {
	reference rhf
	basis 6-31G*
}

set_num_threads( 4 )
memory 2 gb

molecule MOL {
0 1

H	 3.071816	 0.064701	 0.489826
O	 2.374156	 0.625139	 0.181818
C	 1.135793	 0.118896	 0.612333
C	 0.031547	 1.023609	 0.088541
H	 1.092312	 0.093010	 1.699682
H	 0.996567	 -0.900338	 0.258950
C	 -1.134819	 0.293262	 -0.585751
H	 0.474374	 1.714721	 -0.623187
H	 -0.338529	 1.620940	 0.920081
C	 -1.917817	 -0.639439	 0.339494
H	 -0.758119	 -0.268455	 -1.433105
H	 -1.813832	 1.041889	 -0.986690
H	 -2.777680	 -1.057197	 -0.174994
H	 -1.310268	 -1.471279	 0.680599
H	 -2.283753	 -0.111424	 1.216626

	symmetry c1
}
set optking {
	frozen_dihedral = ("
		2 3 4 8
	")
}

ee = optimize('scf')
oeprop('DIPOLE', 'QUADRUPOLE', 'MULLIKEN_CHARGES')
f=open( 'psi4out.xyz', 'w' )
f.write( "15  " )
f.write( str(ee) + "\n" )
f.write( MOL.save_string_xyz() )
f.close()
--------------------------------------------------------------------------

    Molecular point group: c1
  Charge       = 0
  Multiplicity = 1
  Basis Set: 6-31G*
  Basis Set:
  @DF-RHF Final Energy:  -232.13816362253368
    Total Energy =                       -232.1381636225334546
    Molecular point group: c1
  Basis Set: 6-31G*
  Basis Set:
  Basis Set: 6-31G*
  Basis Set:
  @DF-RHF Final Energy:  -232.13864029676350
    Total Energy =                       -232.1386402967635831
  Basis Set: 6-31G*
  Basis Set:
  Basis Set: 6-31G*
  Basis Set:
  @DF-RHF Final Energy:  -232.13880967779269
    Total Energy =                       -232.1388096777928922
  Basis Set: 6-31G*
  Basis Set:
  Basis Set: 6-31G*
  Basis Set:
  @DF-RHF Final Energy:  -232.13880926956207
    Total Energy =                       -232.1388092695622163
  Basis Set: 6-31G*
  Basis Set:
  Basis Set: 6-31G*
  Basis Set:
  @DF-RHF Final Energy:  -232.13882123826880
    Total Energy =                       -232.1388212382690313
  Basis Set: 6-31G*
  Basis Set:
  Charge       = 0
  Multiplicity = 1
  Basis Set: 6-31G*
  Basis Set:

    Orbital Energies (a.u.)
    -----------------------

    Doubly Occupied:

       1A    -20.551625     2A    -11.267667     3A    -11.217163
       4A    -11.211307     5A    -11.210869     6A     -1.357793
       7A     -1.068391     8A     -0.968572     9A     -0.869723
      10A     -0.784324    11A     -0.700211    12A     -0.646549
      13A     -0.605323    14A     -0.591318    15A     -0.555273
      16A     -0.535902    17A     -0.509463    18A     -0.474836
      19A     -0.471883    20A     -0.455599    21A     -0.429849

  @DF-RHF Final Energy:  -232.13882500153031

   => Energetics <=

    Nuclear Repulsion Energy =            188.1191026210228472
    One-Electron Energy =                -687.5485764459119764
    Two-Electron Energy =                 267.2906488233590494
    DFT Exchange-Correlation Energy =       0.0000000000000000
    Empirical Dispersion Energy =           0.0000000000000000
    PCM Polarization Energy =               0.0000000000000000
    EFP Energy =                            0.0000000000000000
    Total Energy =                       -232.1388250015300514
    Molecular point group: c1
  Basis Set: 6-31G*
  Basis Set:

  -Total Gradient:
     Atom            X                  Y                   Z
    ------   -----------------  -----------------  -----------------
       1       -0.000011138608    -0.000000331128     0.000000581865
       2       -0.000134743598    -0.001247651898    -0.002070174915
       3        0.000281305589     0.001998392001     0.003154033375
       4       -0.000639518736    -0.002675918306    -0.003462811805
       5       -0.000018112546     0.000005666884     0.000005547786
       6        0.000003911172     0.000014872033    -0.000001209985
       7       -0.000013945576     0.000006604253    -0.000009588643
       8        0.000523932031     0.001913601370     0.002369397765
       9        0.000002091621    -0.000018545687     0.000007019495
      10        0.000020627348    -0.000015203954    -0.000004438156
      11       -0.000006093714     0.000007490858     0.000025031425
      12       -0.000005030524     0.000012139548    -0.000013305505
      13        0.000002173217     0.000000397154     0.000004753137
      14       -0.000008682610    -0.000006067713     0.000003208460
      15        0.000003224931     0.000004554584    -0.000008044301

  **** Optimization is complete! (in 6 steps) ****
    Final optimized geometry and variables:
    Molecular point group: c1

    Geometry (in Angstrom), charge = 0, multiplicity = 1:

    H            2.930977033881    -0.164591562241     0.375008668519
    O            2.222666038776     0.368003354925     0.041788220955
    C            0.992284937608    -0.179351096864     0.449185674538
    C           -0.133106543886     0.739698515308    -0.042460777678
    H            0.963372570003    -0.287816626443     1.530746853585
    H            0.877387021216    -1.174731692275     0.022884675406
    C           -1.292384508108     0.012814677234    -0.727681236596
    H            0.316525965634     1.458493486394    -0.718187648552
    H           -0.520812835185     1.321080234398     0.790982962194
    C           -2.092284488046    -0.892279964458     0.211321091306
    H           -0.907570834266    -0.573000786421    -1.559534676637
    H           -1.962293944467     0.752143379580    -1.158576755881
    H           -2.910916059972    -1.374144018186    -0.314033783292
    H           -1.474866185437    -1.676656062534     0.640050453415
    H           -2.516541770349    -0.321574854921     1.032857980477

  Mulliken Charges: (a.u.)
   Center  Symbol    Alpha    Beta     Spin     Total
       1     H     0.28208  0.28208  0.00000  0.43583
       2     O     4.37220  4.37220  0.00000 -0.74440
       3     C     2.99364  2.99364  0.00000  0.01272
       4     C     3.16703  3.16703  0.00000 -0.33407
       5     H     0.42984  0.42984  0.00000  0.14031
       6     H     0.43043  0.43043  0.00000  0.13913
       7     C     3.15917  3.15917  0.00000 -0.31833
       8     H     0.40182  0.40182  0.00000  0.19637
       9     H     0.42075  0.42075  0.00000  0.15850
      10     C     3.24193  3.24193  0.00000 -0.48385
      11     H     0.42023  0.42023  0.00000  0.15954
      12     H     0.41931  0.41931  0.00000  0.16138
      13     H     0.41792  0.41792  0.00000  0.16416
      14     H     0.42250  0.42250  0.00000  0.15500
      15     H     0.42114  0.42114  0.00000  0.15772

   Total alpha = 21.00000, Total beta = 21.00000, Total charge = -0.00000
