                              Psi4 1.0.54 Driver

  ==> Input File <==

--------------------------------------------------------------------------
set {
	reference rhf
	basis cc-pvtz
}

set_num_threads( 4 )
memory 2 gb

molecule MOL {
0 1

O	 -2.081319	 -0.951530	 -0.502732
N	 -1.613558	 0.006676	 0.014756
C	 -0.329345	 -0.171618	 0.743966
O	 -2.068523	 1.100482	 -0.024385
C	 -0.251411	 0.826173	 1.892629
H	 0.450667	 -0.009512	 0.018899
H	 -0.324632	 -1.189567	 1.096085
C	 1.053073	 0.677126	 2.671266
H	 -0.331746	 1.830229	 1.492659
H	 -1.096835	 0.669668	 2.552554
C	 1.153377	 1.660346	 3.832170
H	 1.893417	 0.824275	 1.999249
H	 1.133905	 -0.337786	 3.049190
H	 1.109198	 2.685281	 3.481095
H	 0.342707	 1.516033	 4.537652
H	 2.086101	 1.532953	 4.367854

	symmetry c1
}
set optking {
	frozen_dihedral = ("
		5 3 2 1
	")
}

ee,wfn = optimize('scf', return_wfn=True)
oeprop( wfn, 'DIPOLE', 'QUADRUPOLE', 'MULLIKEN_CHARGES')
f=open( 'psi4out.xyz', 'w' )
f.write( "16  " )
f.write( str(ee) + "\n" )
f.write( MOL.save_string_xyz() )
f.close()
--------------------------------------------------------------------------

    Molecular point group: c1
  Charge       = 0
  Multiplicity = 1
  Basis Set: CC-PVTZ
  Basis Set:
  @DF-RHF Final Energy:  -360.90748325398357
    Total Energy =                       -360.9074832539834574
    Molecular point group: c1
  Basis Set: CC-PVTZ
  Basis Set:
  Basis Set: CC-PVTZ
  Basis Set:
  @DF-RHF Final Energy:  -360.90767891269962
    Total Energy =                       -360.9076789126993390
  Basis Set: CC-PVTZ
  Basis Set:
  Basis Set: CC-PVTZ
  Basis Set:
  @DF-RHF Final Energy:  -360.90855809526789
    Total Energy =                       -360.9085580952678924
  Basis Set: CC-PVTZ
  Basis Set:
  Basis Set: CC-PVTZ
  Basis Set:
  @DF-RHF Final Energy:  -360.90864922490169
    Total Energy =                       -360.9086492249011826
  Basis Set: CC-PVTZ
  Basis Set:
  Basis Set: CC-PVTZ
  Basis Set:
  @DF-RHF Final Energy:  -360.90819965978375
    Total Energy =                       -360.9081996597836905
  Basis Set: CC-PVTZ
  Basis Set:
  Basis Set: CC-PVTZ
  Basis Set:
  @DF-RHF Final Energy:  -360.90868335068279
    Total Energy =                       -360.9086833506828498
  Basis Set: CC-PVTZ
  Basis Set:
  Charge       = 0
  Multiplicity = 1
  Basis Set: CC-PVTZ
  Basis Set:

    Orbital Energies (a.u.)
    -----------------------

    Doubly Occupied:

       1A    -20.590796     2A    -20.589549     3A    -15.837544
       4A    -11.297782     5A    -11.244814     6A    -11.240074
       7A    -11.224491     8A     -1.636335     9A     -1.420392
      10A     -1.134387    11A     -1.058910    12A     -0.948875
      13A     -0.843491    14A     -0.822987    15A     -0.759896
      16A     -0.747561    17A     -0.730334    18A     -0.669862
      19A     -0.615334    20A     -0.604068    21A     -0.566017
      22A     -0.537006    23A     -0.520735    24A     -0.502223
      25A     -0.495543    26A     -0.485278    27A     -0.469396
      28A     -0.453696

  @DF-RHF Final Energy:  -360.90868372856232

   => Energetics <=

    Nuclear Repulsion Energy =            312.5206443026849001
    One-Electron Energy =               -1110.7639050407324248
    Two-Electron Energy =                 437.3345770094849172
    DFT Exchange-Correlation Energy =       0.0000000000000000
    Empirical Dispersion Energy =           0.0000000000000000
    PCM Polarization Energy =               0.0000000000000000
    EFP Energy =                            0.0000000000000000
    Total Energy =                       -360.9086837285626075
    Molecular point group: c1
  Basis Set: CC-PVTZ
  Basis Set:

  -Total Gradient:
     Atom            X                  Y                   Z
    ------   -----------------  -----------------  -----------------
       1        0.000290566594     0.000131935319    -0.000325629154
       2       -0.000266821758    -0.000174358309     0.000416568614
       3       -0.000119633457    -0.000316957384     0.000096236360
       4       -0.000042868229     0.000116495266    -0.000003043703
       5        0.000120151769     0.000268884471    -0.000200313351
       6        0.000009735702     0.000017034356     0.000010947755
       7       -0.000000393653    -0.000005217429     0.000016506610
       8        0.000011423486    -0.000020653153     0.000009188558
       9        0.000006500215    -0.000019870409    -0.000028063907
      10        0.000002891037     0.000007543825     0.000010290203
      11       -0.000010707893    -0.000002412431     0.000003237767
      12       -0.000002941788     0.000011691531     0.000000344414
      13        0.000006279919    -0.000008653481    -0.000005785122
      14        0.000001676705     0.000000936726    -0.000002106814
      15       -0.000002836163     0.000000940116     0.000005042168
      16       -0.000003022484    -0.000007339009    -0.000003420400

  **** Optimization is complete! (in 7 steps) ****
    Final optimized geometry and variables:
    Molecular point group: c1

    Geometry (in Angstrom), charge = 0, multiplicity = 1:

    O           -1.305473991115    -1.569532860542    -1.675526490861
    N           -0.962670800558    -0.540520970223    -1.198180365182
    C            0.309966639095    -0.557596549097    -0.417470817738
    O           -1.527628439249     0.493079522755    -1.322485688690
    C            0.338750033040     0.464391350887     0.702480546678
    H            1.077915473457    -0.366887503892    -1.155233659809
    H            0.412361191964    -1.570954402279    -0.068003498217
    C            1.647052751791     0.377463413197     1.486264555843
    H            0.214996423149     1.455868995353     0.290344736321
    H           -0.500646578242     0.291385717645     1.367192482828
    C            1.710636023864     1.389224877724     2.625008080904
    H            2.483707815599     0.540428894685     0.812615784586
    H            1.766860574651    -0.624772118939     1.887415295439
    H            1.627849712178     2.403634589173     2.251170934112
    H            0.905397163214     1.230773134652     3.333775434535
    H            2.647051717481     1.308929524926     3.163508088606

  Mulliken Charges: (a.u.)
   Center  Symbol    Alpha    Beta     Spin     Total
       1     O     4.17192  4.17192  0.00000 -0.34385
       2     N     3.27418  3.27418  0.00000  0.45165
       3     C     3.04803  3.04803  0.00000 -0.09605
       4     O     4.17078  4.17078  0.00000 -0.34156
       5     C     3.09663  3.09663  0.00000 -0.19327
       6     H     0.43561  0.43561  0.00000  0.12878
       7     H     0.43098  0.43098  0.00000  0.13805
       8     C     3.09424  3.09424  0.00000 -0.18848
       9     H     0.43410  0.43410  0.00000  0.13179
      10     H     0.44335  0.44335  0.00000  0.11329
      11     C     3.14796  3.14796  0.00000 -0.29593
      12     H     0.45164  0.45164  0.00000  0.09673
      13     H     0.45114  0.45114  0.00000  0.09771
      14     H     0.45170  0.45170  0.00000  0.09661
      15     H     0.45217  0.45217  0.00000  0.09565
      16     H     0.44556  0.44556  0.00000  0.10888

   Total alpha = 28.00000, Total beta = 28.00000, Total charge = -0.00000

*** Psi4 exiting successfully. Buy a developer a beer!
