  ==> Input File <==

--------------------------------------------------------------------------
set {
	reference rhf
	basis cc-pvtz
}

set_num_threads( 4 )
memory 2 gb

molecule MOL {
0 1

H	 1.682566	 -0.465292	 -1.547590
O	 0.869301	 -0.513173	 -1.080736
C	 0.700177	 0.619554	 -0.266242
C	 -0.713111	 0.588314	 0.266177
H	 0.851879	 1.529363	 -0.839094
H	 1.402724	 0.609851	 0.563042
O	 -1.421673	 -0.521378	 -0.196983
H	 -1.244794	 1.469161	 -0.069059
H	 -0.685100	 0.604721	 1.352683
H	 -0.933408	 -1.297830	 0.014544

	symmetry c1
}
set optking {
	frozen_dihedral = ("
		5 3 4 7
	")
}

ee = optimize('scf')
oeprop('DIPOLE', 'QUADRUPOLE', 'MULLIKEN_CHARGES')
f=open( 'psi4out.xyz', 'w' )
f.write( "10  " )
f.write( str(ee) + "\n" )
f.write( MOL.save_string_xyz() )
f.close()
--------------------------------------------------------------------------

    Molecular point group: c1
  Charge       = 0
  Multiplicity = 1
  Basis Set: CC-PVTZ
  Basis Set:
  @DF-RHF Final Energy:  -229.01325706410989
    Total Energy =                       -229.0132570641100358
    Molecular point group: c1
  Basis Set: CC-PVTZ
  Basis Set:
  Basis Set: CC-PVTZ
  Basis Set:
  @DF-RHF Final Energy:  -229.01607850039002
    Total Energy =                       -229.0160785003900514
  Basis Set: CC-PVTZ
  Basis Set:
  Basis Set: CC-PVTZ
  Basis Set:
  @DF-RHF Final Energy:  -229.01675756436293
    Total Energy =                       -229.0167575643629334
  Basis Set: CC-PVTZ
  Basis Set:
  Basis Set: CC-PVTZ
  Basis Set:
  @DF-RHF Final Energy:  -229.01698142029647
    Total Energy =                       -229.0169814202964744
  Basis Set: CC-PVTZ
  Basis Set:
  @DF-RHF Final Energy:  -229.01749913993871
    Total Energy =                       -229.0174991399387068
  @DF-RHF Final Energy:  -229.01783256766242
    Total Energy =                       -229.0178325676623956
  @DF-RHF Final Energy:  -229.01794488149866
    Total Energy =                       -229.0179448814987211
  @DF-RHF Final Energy:  -229.01802892603709
    Total Energy =                       -229.0180289260371183
  @DF-RHF Final Energy:  -229.01807740890635
    Total Energy =                       -229.0180774089063220
  Basis Set: CC-PVTZ
  Basis Set:
  @DF-RHF Final Energy:  -229.01809919180172
    Total Energy =                       -229.0180991918017526
  Basis Set: CC-PVTZ
  Basis Set:
  Basis Set: CC-PVTZ
  Basis Set:
  @DF-RHF Final Energy:  -229.01810745651417
    Total Energy =                       -229.0181074565141444
  Basis Set: CC-PVTZ
  Basis Set:
  Basis Set: CC-PVTZ
  Basis Set:
  @DF-RHF Final Energy:  -229.01810960945738
    Total Energy =                       -229.0181096094572979
  Basis Set: CC-PVTZ
  Basis Set:
  Charge       = 0
  Multiplicity = 1
  Basis Set: CC-PVTZ
  Basis Set:

    Orbital Energies (a.u.)
    -----------------------

    Doubly Occupied:

       1A    -20.569651     2A    -20.532472     3A    -11.282004
       4A    -11.267202     5A     -1.393975     6A     -1.348470
       7A     -0.998465     8A     -0.849701     9A     -0.731135
      10A     -0.674327    11A     -0.671688    12A     -0.588941
      13A     -0.580643    14A     -0.548480    15A     -0.476870
      16A     -0.475481    17A     -0.418402

  @DF-RHF Final Energy:  -229.01811017432641

   => Energetics <=

    Nuclear Repulsion Energy =            134.9647893590704371
    One-Electron Energy =                -581.1499890478181669
    Two-Electron Energy =                 217.1670895144213773
    DFT Exchange-Correlation Energy =       0.0000000000000000
    Empirical Dispersion Energy =           0.0000000000000000
    PCM Polarization Energy =               0.0000000000000000
    EFP Energy =                            0.0000000000000000
    Total Energy =                       -229.0181101743263525
    Molecular point group: c1
  Basis Set: CC-PVTZ
  Basis Set:

  -Total Gradient:
     Atom            X                  Y                   Z
    ------   -----------------  -----------------  -----------------
       1        0.000000579772    -0.000016724376     0.000011412392
       2        0.000030637106     0.000072367480    -0.000010594722
       3       -0.000084202080    -0.000396774515    -0.000295872344
       4       -0.000167205157     0.000232350119    -0.000285192954
       5        0.000116080618     0.000216698537     0.000297289325
       6        0.000008630309     0.000009603516     0.000002766735
       7        0.000129965766    -0.000117660492     0.000293461479
       8       -0.000010464185     0.000010144497    -0.000004706276
       9       -0.000005122750    -0.000012795546    -0.000003836680
      10       -0.000018899400     0.000002790780    -0.000004726953

  **** Optimization is complete! (in 13 steps) ****
    Final optimized geometry and variables:
    Molecular point group: c1

    Geometry (in Angstrom), charge = 0, multiplicity = 1:

    H            1.884925886094    -0.554297581850    -1.140576474677
    O            1.027412463744    -0.548580054261    -0.758646899088
    C            0.817800898282     0.636762754609    -0.035705961190
    C           -0.593953333951     0.602118431444     0.598267747103
    H            0.906981563025     1.495444285167    -0.692038995170
    H            1.566926837642     0.735150061780     0.742282027936
    O           -1.316080379404    -0.551137610052     0.297907798181
    H           -1.157687422768     1.462881852286     0.257678241052
    H           -0.500780904528     0.684653120062     1.675264126165
    H           -0.784311256551    -1.121660401153    -0.228671852641

  Mulliken Charges: (a.u.)
   Center  Symbol    Alpha    Beta     Spin     Total
       1     H     0.39503  0.39503  0.00000  0.20995
       2     O     4.19728  4.19728  0.00000 -0.39456
       3     C     2.97168  2.97168  0.00000  0.05664
       4     C     2.95290  2.95290  0.00000  0.09420
       5     H     0.47168  0.47168  0.00000  0.05663
       6     H     0.47170  0.47170  0.00000  0.05661
       7     O     4.20891  4.20891  0.00000 -0.41782
       8     H     0.47441  0.47441  0.00000  0.05119
       9     H     0.47532  0.47532  0.00000  0.04935
      10     H     0.38110  0.38110  0.00000  0.23781

   Total alpha = 17.00000, Total beta = 17.00000, Total charge =  0.00000
