  ==> Input File <==

--------------------------------------------------------------------------
set {
	reference rhf
	basis cc-pvtz
}

set_num_threads( 4 )
memory 2 gb

molecule MOL {
0 1

O	 -0.694481	 1.313155	 -0.204815
C	 -0.862519	 0.151932	 -0.046791
C	 -2.171428	 -0.477048	 0.339095
O	 0.085519	 -0.757083	 -0.192238
H	 -2.467997	 -1.191667	 -0.417688
H	 -2.923379	 0.287970	 0.444097
H	 -2.053854	 -1.015120	 1.270901
C	 1.392036	 -0.330828	 -0.560749
C	 1.898364	 -1.069554	 -1.782147
H	 2.058441	 -0.462487	 0.277336
H	 1.288106	 0.724255	 -0.765076
H	 2.864760	 -0.672618	 -2.071929
H	 2.012612	 -2.124896	 -1.575789
H	 1.216000	 -0.945717	 -2.614395

	symmetry c1
}
set optking {
	frozen_dihedral = ("
		10 8 4 2
	")
}

ee = optimize('scf')
oeprop('DIPOLE', 'QUADRUPOLE', 'MULLIKEN_CHARGES')
f=open( 'psi4out.xyz', 'w' )
f.write( "14  " )
f.write( str(ee) + "\n" )
f.write( MOL.save_string_xyz() )
f.close()
--------------------------------------------------------------------------

    Molecular point group: c1
  Charge       = 0
  Multiplicity = 1
  Basis Set: CC-PVTZ
  Basis Set:
  @DF-RHF Final Energy:  -305.98843021669819
    Total Energy =                       -305.9884302166984185
    Molecular point group: c1
  Basis Set: CC-PVTZ
  Basis Set:
  Basis Set: CC-PVTZ
  Basis Set:
  @DF-RHF Final Energy:  -305.98957944595492
    Total Energy =                       -305.9895794459553144
  Basis Set: CC-PVTZ
  Basis Set:
  Basis Set: CC-PVTZ
  Basis Set:
  @DF-RHF Final Energy:  -305.99007588315692
    Total Energy =                       -305.9900758831568623
  Basis Set: CC-PVTZ
  Basis Set:
  Basis Set: CC-PVTZ
  Basis Set:
  @DF-RHF Final Energy:  -305.98916099840869
    Total Energy =                       -305.9891609984085790
  Basis Set: CC-PVTZ
  Basis Set:
  Basis Set: CC-PVTZ
  Basis Set:
  @DF-RHF Final Energy:  -305.99017448711220
    Total Energy =                       -305.9901744871121991
  Basis Set: CC-PVTZ
  Basis Set:
  Charge       = 0
  Multiplicity = 1
  Basis Set: CC-PVTZ
  Basis Set:

    Orbital Energies (a.u.)
    -----------------------

    Doubly Occupied:

       1A    -20.593931     2A    -20.532543     3A    -11.368458
       4A    -11.281989     5A    -11.231202     6A    -11.220694
       7A     -1.469105     8A     -1.366289     9A     -1.058367
      10A     -1.000382    11A     -0.877043    12A     -0.777265
      13A     -0.699088    14A     -0.686274    15A     -0.663665
      16A     -0.613306    17A     -0.582596    18A     -0.564792
      19A     -0.562896    20A     -0.534470    21A     -0.517951
      22A     -0.498186    23A     -0.452819    24A     -0.442515

  @DF-RHF Final Energy:  -305.99017943082760

   => Energetics <=

    Nuclear Repulsion Energy =            246.3780943182154601
    One-Electron Energy =                -905.5448986474632420
    Two-Electron Energy =                 353.1766248984206982
    DFT Exchange-Correlation Energy =       0.0000000000000000
    Empirical Dispersion Energy =           0.0000000000000000
    PCM Polarization Energy =               0.0000000000000000
    EFP Energy =                            0.0000000000000000
    Total Energy =                       -305.9901794308270269
    Molecular point group: c1
  Basis Set: CC-PVTZ
  Basis Set:

  -Total Gradient:
     Atom            X                  Y                   Z
    ------   -----------------  -----------------  -----------------
       1       -0.000140554625     0.000075200509     0.000023384929
       2        0.000015615393    -0.000035136224    -0.000493834591
       3        0.000045144275     0.000004369589    -0.000015042059
       4        0.000230797905    -0.000087372218     0.000656456559
       5        0.000010324413     0.000012507716    -0.000004150965
       6        0.000004231002     0.000012689450    -0.000007112162
       7        0.000015239094     0.000005308531     0.000001689063
       8       -0.000198874552     0.000507446143    -0.000005662593
       9       -0.000057511079    -0.000014890005     0.000025987451
      10        0.000090322058    -0.000505004475    -0.000161718441
      11       -0.000047190223    -0.000011050390    -0.000009063953
      12        0.000025057554     0.000023617268     0.000004175594
      13        0.000006227879     0.000012995355    -0.000012468937
      14        0.000001170907    -0.000000681248    -0.000002639893

  **** Optimization is complete! (in 6 steps) ****
    Final optimized geometry and variables:
    Molecular point group: c1

    Geometry (in Angstrom), charge = 0, multiplicity = 1:

    O           -0.682830592200     1.521120195949     0.250238553926
    C           -0.811363010367     0.351100472732     0.371735948412
    C           -2.098232185493    -0.328864894120     0.745701826426
    O            0.159021241840    -0.530176802218     0.196960322480
    H           -2.377542157826    -1.029827122214    -0.030137767520
    H           -2.872368732343     0.409411904449     0.877213140125
    H           -1.958215368643    -0.890064735798     1.660554660779
    C            1.461457622738    -0.092822595995    -0.172762329526
    C            1.935539501058    -0.904474426256    -1.358256315925
    H            2.103793982429    -0.252752800931     0.683024645200
    H            1.436538845235     0.960024520952    -0.395891933942
    H            2.948184215224    -0.617134005960    -1.617230168427
    H            1.927724565676    -1.962988517648    -1.130702162475
    H            1.301707903521    -0.733770445794    -2.219764533282

  Mulliken Charges: (a.u.)
   Center  Symbol    Alpha    Beta     Spin     Total
       1     O     4.19812  4.19812  0.00000 -0.39624
       2     C     2.80056  2.80056  0.00000  0.39888
       3     C     3.14032  3.14032  0.00000 -0.28064
       4     O     4.15708  4.15708  0.00000 -0.31417
       5     H     0.44626  0.44626  0.00000  0.10747
       6     H     0.43825  0.43825  0.00000  0.12351
       7     H     0.44578  0.44578  0.00000  0.10845
       8     C     2.98719  2.98719  0.00000  0.02563
       9     C     3.13433  3.13433  0.00000 -0.26865
      10     H     0.45362  0.45362  0.00000  0.09277
      11     H     0.44113  0.44113  0.00000  0.11775
      12     H     0.45423  0.45423  0.00000  0.09155
      13     H     0.45150  0.45150  0.00000  0.09701
      14     H     0.45165  0.45165  0.00000  0.09669

   Total alpha = 24.00000, Total beta = 24.00000, Total charge = -0.00000
