  ==> Input File <==

--------------------------------------------------------------------------
set {
	reference rhf
	basis 6-31G*
}

set_num_threads( 1 )
memory 2 gb

molecule MOL {
0 1

O	 1.846825	 1.296220	 0.000415
C	 1.705091	 0.115954	 0.001797
C	 0.381791	 -0.609817	 0.001258
O	 2.721346	 -0.737485	 -0.000216
C	 -0.823008	 0.326187	 0.001381
H	 0.371250	 -1.265087	 -0.865474
H	 0.370908	 -1.265746	 0.867490
C	 -1.624954	 0.240161	 -1.298059
H	 -0.484086	 1.345240	 0.159025
H	 -1.461750	 0.086827	 0.845789
C	 -2.836856	 1.173354	 -1.315444
H	 -0.978040	 0.477742	 -2.141299
H	 -1.959960	 -0.784560	 -1.451681
C	 -3.638430	 1.086062	 -2.613562
H	 -2.503626	 2.197739	 -1.164669
H	 -3.484483	 0.936686	 -0.474193
H	 -3.026493	 1.351120	 -3.471169
H	 -4.490456	 1.758496	 -2.595245
H	 -4.014781	 0.079847	 -2.775436
C	 4.024888	 -0.184556	 -0.001949
H	 4.179030	 0.422472	 -0.882452
H	 4.701782	 -1.024608	 -0.003642
H	 4.181981	 0.421185	 0.878906

	symmetry c1
}
set optking {
	frozen_dihedral = ("
		15 11 8 12,
		9 5 8 12,
		1 2 3 6,
		1 2 4 20
	")
}

ee = energy('scf')
oeprop('DIPOLE', 'QUADRUPOLE', 'MULLIKEN_CHARGES')
f=open( 'psi4out.xyz', 'w' )
f.write( "23  " )
f.write( str(ee) + "\n" )
f.write( MOL.save_string_xyz() )
f.close()
--------------------------------------------------------------------------

    Molecular point group: c1

    Geometry (in Angstrom), charge = 0, multiplicity = 1:

       Center              X                  Y                   Z               Mass
    ------------   -----------------  -----------------  -----------------  -----------------
           O          1.611130103568     0.992763660287     0.583570031595    15.994914619560
           C          1.469396103568    -0.187502339713     0.584952031595    12.000000000000
           C          0.146096103568    -0.913273339713     0.584413031595    12.000000000000
           O          2.485651103568    -1.040941339713     0.582939031595    15.994914619560
           C         -1.058702896432     0.022730660287     0.584536031595    12.000000000000
           H          0.135555103568    -1.568543339713    -0.282318968405     1.007825032070
           H          0.135213103568    -1.569202339713     1.450645031595     1.007825032070
           C         -1.860648896432    -0.063295339713    -0.714903968405    12.000000000000
           H         -0.719780896432     1.041783660287     0.742180031595     1.007825032070
           H         -1.697444896432    -0.216629339713     1.428944031595     1.007825032070
           C         -3.072550896432     0.869897660287    -0.732288968405    12.000000000000
           H         -1.213734896432     0.174285660287    -1.558143968405     1.007825032070
           H         -2.195654896432    -1.088016339713    -0.868525968405     1.007825032070
           C         -3.874124896432     0.782605660287    -2.030406968405    12.000000000000
           H         -2.739320896432     1.894282660287    -0.581513968405     1.007825032070
           H         -3.720177896432     0.633229660287     0.108962031595     1.007825032070
           H         -3.262187896432     1.047663660287    -2.888013968405     1.007825032070
           H         -4.726150896432     1.455039660287    -2.012089968405     1.007825032070
           H         -4.250475896432    -0.223609339713    -2.192280968405     1.007825032070
           C          3.789193103568    -0.488012339713     0.581206031595    12.000000000000
           H          3.943335103568     0.119015660287    -0.299296968405     1.007825032070
           H          4.466087103568    -1.328064339713     0.579513031595     1.007825032070
           H          3.946286103568     0.117728660287     1.462061031595     1.007825032070

  Charge       = 0
  Multiplicity = 1
  Basis Set: 6-31G*
  Basis Set:

    Orbital Energies (a.u.)
    -----------------------

    Doubly Occupied:

       1A    -20.604395     2A    -20.546484     3A    -11.373019
       4A    -11.281249     5A    -11.234015     6A    -11.215749
       7A    -11.214874     8A    -11.213996     9A    -11.207823
      10A     -1.470136    11A     -1.363963    12A     -1.091660
      13A     -1.042195    14A     -0.986433    15A     -0.930702
      16A     -0.843027    17A     -0.794651    18A     -0.766641
      19A     -0.703391    20A     -0.681119    21A     -0.672803
      22A     -0.641672    23A     -0.613009    24A     -0.599794
      25A     -0.569740    26A     -0.556479    27A     -0.554127
      28A     -0.529782    29A     -0.523433    30A     -0.500365
      31A     -0.485771    32A     -0.468284    33A     -0.462033
      34A     -0.457548    35A     -0.452085    36A     -0.439212

  @DF-RHF Final Energy:  -422.97164511912808

   => Energetics <=

    Nuclear Repulsion Energy =            456.7636535927963450
    One-Electron Energy =               -1481.2874291476523467
    Two-Electron Energy =                 601.5521304357273493
    DFT Exchange-Correlation Energy =       0.0000000000000000
    Empirical Dispersion Energy =           0.0000000000000000
    PCM Polarization Energy =               0.0000000000000000
    EFP Energy =                            0.0000000000000000
    Total Energy =                       -422.9716451191286524

  Mulliken Charges: (a.u.)
   Center  Symbol    Alpha    Beta     Spin     Total
       1     O     4.28483  4.28483  0.00000 -0.56966
       2     C     2.61069  2.61069  0.00000  0.77862
       3     C     3.21089  3.21089  0.00000 -0.42179
       4     O     4.30587  4.30587  0.00000 -0.61175
       5     C     3.16280  3.16280  0.00000 -0.32560
       6     H     0.39760  0.39760  0.00000  0.20479
       7     H     0.39736  0.39736  0.00000  0.20529
       8     C     3.15511  3.15511  0.00000 -0.31021
       9     H     0.39316  0.39316  0.00000  0.21368
      10     H     0.41947  0.41947  0.00000  0.16107
      11     C     3.15258  3.15258  0.00000 -0.30516
      12     H     0.42104  0.42104  0.00000  0.15793
      13     H     0.42475  0.42475  0.00000  0.15049
      14     C     3.23952  3.23952  0.00000 -0.47904
      15     H     0.41961  0.41961  0.00000  0.16078
      16     H     0.42324  0.42324  0.00000  0.15351
      17     H     0.42123  0.42123  0.00000  0.15754
      18     H     0.41902  0.41902  0.00000  0.16195
      19     H     0.42250  0.42250  0.00000  0.15499
      20     C     3.09227  3.09227  0.00000 -0.18453
      21     H     0.40904  0.40904  0.00000  0.18191
      22     H     0.40838  0.40838  0.00000  0.18324
      23     H     0.40902  0.40902  0.00000  0.18196

   Total alpha = 36.00000, Total beta = 36.00000, Total charge = -0.00000
