  ==> Input File <==

--------------------------------------------------------------------------
set {
	reference rhf
	basis 6-31G*
}

set_num_threads( 4 )
memory 2 gb

molecule MOL {
0 1

O	 2.884422	 1.320877	 0.290138
C	 2.843464	 0.164689	 -0.000222
C	 1.546494	 -0.624492	 -0.000609
C	 4.094413	 -0.595657	 -0.390294
C	 0.291004	 0.242674	 0.000989
H	 1.557904	 -1.283758	 -0.867573
H	 1.558622	 -1.285963	 0.864672
C	 -0.994322	 -0.586602	 0.000262
H	 0.309117	 0.896430	 -0.865270
H	 0.309661	 0.894078	 0.869017
C	 -2.259874	 0.272531	 0.000494
H	 -1.004862	 -1.240012	 -0.870939
H	 -1.005220	 -1.241071	 0.870675
C	 -3.549786	 -0.549746	 -0.000374
H	 -2.250389	 0.926680	 -0.869574
H	 -2.250838	 0.925513	 0.871430
C	 -4.809590	 0.315458	 -0.000369
H	 -3.560515	 -1.202009	 -0.871156
H	 -3.561123	 -1.202955	 0.869711
H	 -4.844746	 0.956611	 -0.876632
H	 -5.706986	 -0.295590	 -0.001609
H	 -4.845960	 0.954827	 0.877144
H	 3.992707	 -1.004605	 -1.391311
H	 4.948987	 0.065658	 -0.355648
H	 4.255334	 -1.431479	 0.284346

	symmetry c1
}
set optking {
	frozen_dihedral = ("
		1 2 3 6
	")
}

ee = optimize('scf')
oeprop('DIPOLE', 'QUADRUPOLE', 'MULLIKEN_CHARGES')
f=open( 'psi4out.xyz', 'w' )
f.write( "25  " )
f.write( str(ee) + "\n" )
f.write( MOL.save_string_xyz() )
f.close()
--------------------------------------------------------------------------

    Molecular point group: c1
  Charge       = 0
  Multiplicity = 1
  Basis Set: 6-31G*
  Basis Set:
  @DF-RHF Final Energy:  -387.13614030392029
    Total Energy =                       -387.1361403039203424
    Molecular point group: c1
  Basis Set: 6-31G*
  Basis Set:
  Basis Set: 6-31G*
  Basis Set:
  @DF-RHF Final Energy:  -387.13492261643449
    Total Energy =                       -387.1349226164338688
  Basis Set: 6-31G*
  Basis Set:
  Basis Set: 6-31G*
  Basis Set:
  @DF-RHF Final Energy:  -387.13628023875310
    Total Energy =                       -387.1362802387531019
  Basis Set: 6-31G*
  Basis Set:
  Basis Set: 6-31G*
  Basis Set:
  @DF-RHF Final Energy:  -387.13634066612258
    Total Energy =                       -387.1363406661224644
  Basis Set: 6-31G*
  Basis Set:
  @DF-RHF Final Energy:  -387.13635983334336
    Total Energy =                       -387.1363598333435903
  Basis Set: 6-31G*
  Basis Set:
  @DF-RHF Final Energy:  -387.13637043369249
    Total Energy =                       -387.1363704336922638
  Basis Set: 6-31G*
  Basis Set:
  Basis Set: 6-31G*
  Basis Set:
  @DF-RHF Final Energy:  -387.13636871494487
    Total Energy =                       -387.1363687149448651
  Basis Set: 6-31G*
  Basis Set:
  Basis Set: 6-31G*
  Basis Set:
  @DF-RHF Final Energy:  -387.13637167097824
    Total Energy =                       -387.1363716709781784
  Basis Set: 6-31G*
  Basis Set:
  Charge       = 0
  Multiplicity = 1
  Basis Set: 6-31G*
  Basis Set:

    Orbital Energies (a.u.)
    -----------------------

    Doubly Occupied:

       1A    -20.549806     2A    -11.326278     3A    -11.231850
       4A    -11.228467     5A    -11.217626     6A    -11.216946
       7A    -11.215540     8A    -11.213758     9A    -11.208448
      10A     -1.395365    11A     -1.093869    12A     -1.056485
      13A     -1.014641    14A     -0.969387    15A     -0.890960
      16A     -0.814373    17A     -0.791056    18A     -0.729935
      19A     -0.661873    20A     -0.651226    21A     -0.632282
      22A     -0.622946    23A     -0.596422    24A     -0.584384
      25A     -0.566792    26A     -0.560269    27A     -0.540432
      28A     -0.527131    29A     -0.512790    30A     -0.490256
      31A     -0.487164    32A     -0.473269    33A     -0.463977
      34A     -0.462632    35A     -0.450933    36A     -0.398769

  @DF-RHF Final Energy:  -387.13637165543616

   => Energetics <=

    Nuclear Repulsion Energy =            438.2967456576785708
    One-Electron Energy =               -1393.1695633219753745
    Two-Electron Energy =                 567.7364460088608666
    DFT Exchange-Correlation Energy =       0.0000000000000000
    Empirical Dispersion Energy =           0.0000000000000000
    PCM Polarization Energy =               0.0000000000000000
    EFP Energy =                            0.0000000000000000
    Total Energy =                       -387.1363716554359371
    Molecular point group: c1
  Basis Set: 6-31G*
  Basis Set:

  -Total Gradient:
     Atom            X                  Y                   Z
    ------   -----------------  -----------------  -----------------
       1        0.000105785580    -0.000183859350     0.000750529066
       2       -0.000069942165     0.000137574050    -0.000965959667
       3       -0.000360018263     0.000583793218    -0.000221767573
       4       -0.000001200462    -0.000001980157     0.000004930918
       5       -0.000000295369     0.000000818683     0.000015978153
       6        0.000323110323    -0.000539647668     0.000435232540
       7        0.000000103909     0.000001282856    -0.000000449600
       8       -0.000000350057    -0.000000030080    -0.000016832375
       9        0.000000763430    -0.000006170883    -0.000000635070
      10        0.000000127863     0.000004743314    -0.000000704148
      11       -0.000000413598    -0.000000724560    -0.000002230226
      12       -0.000000182866    -0.000000519356    -0.000004474524
      13        0.000000275294     0.000000709106    -0.000004599149
      14        0.000000010644     0.000000558781     0.000016313978
      15       -0.000002306661    -0.000000603963    -0.000000797480
      16        0.000002122121     0.000000497762    -0.000000900926
      17       -0.000000191716    -0.000000058080    -0.000005618753
      18        0.000001880127     0.000001313058     0.000002906367
      19       -0.000001646126    -0.000001156119     0.000003016601
      20        0.000000388303     0.000002963884     0.000000735080
      21       -0.000000061666    -0.000000050584    -0.000003163746
      22       -0.000000425697    -0.000002897663     0.000000840781
      23        0.000000987945     0.000002132719    -0.000001291747
      24        0.000001586088    -0.000000403890    -0.000001031526
      25       -0.000000106993     0.000001714919    -0.000000026973

  **** Optimization is complete! (in 9 steps) ****
    Final optimized geometry and variables:
    Molecular point group: c1

    Geometry (in Angstrom), charge = 0, multiplicity = 1:

    O            2.877708160300     1.327168417172     0.270427043750
    C            2.844223768504     0.166302739090    -0.001934542848
    C            1.547977099764    -0.623846809305    -0.013381993881
    C            4.104637227437    -0.602508039352    -0.338522294924
    C            0.290981145036     0.241612772278    -0.011785426001
    H            1.557708593829    -1.303337302258    -0.863273778848
    H            1.566205119632    -1.266241680915     0.867481361844
    C           -0.993488460476    -0.588582791848     0.010199028561
    H            0.298543363830     0.882797835759    -0.888921906284
    H            0.319297498478     0.904584142802     0.845923172481
    C           -2.259751773290     0.269517570863     0.011268924008
    H           -1.012078406325    -1.254248302701    -0.851509869578
    H           -0.994674202676    -1.230502728831     0.889926683018
    C           -3.548797197851    -0.553699656846     0.037733728591
    H           -2.260870742288     0.910001084033    -0.869019535168
    H           -2.241376717419     0.935981372423     0.871719367299
    C           -4.809346634677     0.310412650643     0.037251340591
    H           -3.568306083025    -1.220146469374    -0.822109742287
    H           -3.550072269535    -1.192556961091     0.918447304706
    H           -4.854711370747     0.937023611376    -0.849014678887
    H           -5.706084014866    -0.301292474146     0.055866423122
    H           -4.836742028790     0.964085910838     0.904469836666
    H            4.102127756417    -0.861783071289    -1.393865763922
    H            4.973293103180     0.004578799682    -0.124509416760
    H            4.156126250155    -1.531221043103     0.221492906703

  Mulliken Charges: (a.u.)
   Center  Symbol    Alpha    Beta     Spin     Total
       1     O     4.26204  4.26204  0.00000 -0.52409
       2     C     2.73447  2.73447  0.00000  0.53107
       3     C     3.21142  3.21142  0.00000 -0.42283
       4     C     3.28716  3.28716  0.00000 -0.57432
       5     C     3.14913  3.14913  0.00000 -0.29825
       6     H     0.41237  0.41237  0.00000  0.17527
       7     H     0.40705  0.40705  0.00000  0.18589
       8     C     3.15380  3.15380  0.00000 -0.30761
       9     H     0.41596  0.41596  0.00000  0.16809
      10     H     0.40785  0.40785  0.00000  0.18430
      11     C     3.15080  3.15080  0.00000 -0.30160
      12     H     0.42500  0.42500  0.00000  0.15001
      13     H     0.42438  0.42438  0.00000  0.15124
      14     C     3.15153  3.15153  0.00000 -0.30306
      15     H     0.42282  0.42282  0.00000  0.15436
      16     H     0.42205  0.42205  0.00000  0.15590
      17     C     3.23934  3.23934  0.00000 -0.47869
      18     H     0.42362  0.42362  0.00000  0.15276
      19     H     0.42336  0.42336  0.00000  0.15328
      20     H     0.42148  0.42148  0.00000  0.15703
      21     H     0.41949  0.41949  0.00000  0.16101
      22     H     0.42124  0.42124  0.00000  0.15752
      23     H     0.40655  0.40655  0.00000  0.18689
      24     H     0.39674  0.39674  0.00000  0.20652
      25     H     0.41034  0.41034  0.00000  0.17931

   Total alpha = 36.00000, Total beta = 36.00000, Total charge =  0.00000
