                              Psi4 1.0.54 Driver

  ==> Input File <==

--------------------------------------------------------------------------
set {
	reference rhf
	basis cc-pvtz
}

set_num_threads( 4 )
memory 2 gb

molecule MOL {
0 1

H	 2.851051	 -3.399616	 2.361536
O	 3.593132	 -3.306667	 1.793640
C	 3.242469	 -3.643520	 0.477267
C	 2.363066	 -2.603720	 -0.201078
H	 4.175288	 -3.736084	 -0.062418
H	 2.757268	 -4.617353	 0.451195
C	 0.978834	 -2.448429	 0.424731
H	 2.881095	 -1.649501	 -0.184627
H	 2.255901	 -2.886873	 -1.245462
C	 0.113298	 -1.420414	 -0.302504
H	 1.085933	 -2.159440	 1.464932
H	 0.470514	 -3.411160	 0.418063
C	 -1.311023	 -1.277304	 0.237018
H	 0.607441	 -0.452362	 -0.272089
H	 0.056668	 -1.697442	 -1.351559
C	 -2.041121	 -0.006551	 -0.194127
H	 -1.888548	 -2.136293	 -0.093331
H	 -1.289731	 -1.328757	 1.323321
C	 -3.489218	 0.042606	 0.286507
H	 -2.022185	 0.066287	 -1.279394
H	 -1.518764	 0.869305	 0.178730
C	 -4.219984	 1.311773	 -0.139038
H	 -4.022855	 -0.824300	 -0.093339
H	 -3.510372	 -0.038577	 1.370031
H	 -4.244251	 1.405725	 -1.219696
H	 -5.244345	 1.313233	 0.215630
H	 -3.732090	 2.196311	 0.257073

	symmetry c1
}
set optking {
	frozen_dihedral = ("
		14 10 13 16
	")
}

ee,wfn = optimize('scf', return_wfn=True)
oeprop( wfn, 'DIPOLE', 'QUADRUPOLE', 'MULLIKEN_CHARGES')
f=open( 'psi4out.xyz', 'w' )
f.write( "27  " )
f.write( str(ee) + "\n" )
f.write( MOL.save_string_xyz() )
f.close()
--------------------------------------------------------------------------

    Molecular point group: c1
  Charge       = 0
  Multiplicity = 1
  Basis Set: CC-PVTZ
  Basis Set:
  @DF-RHF Final Energy:  -388.42818502796104
    Total Energy =                       -388.4281850279612627
    Molecular point group: c1
  Basis Set: CC-PVTZ
  Basis Set:
  Basis Set: CC-PVTZ
  Basis Set:
  @DF-RHF Final Energy:  -388.42858021325355
    Total Energy =                       -388.4285802132535537
  Basis Set: CC-PVTZ
  Basis Set:
  Basis Set: CC-PVTZ
  Basis Set:
  @DF-RHF Final Energy:  -388.42861132700227
    Total Energy =                       -388.4286113270024998
  Basis Set: CC-PVTZ
  Basis Set:
  Basis Set: CC-PVTZ
  Basis Set:
  @DF-RHF Final Energy:  -388.42861431420749
    Total Energy =                       -388.4286143142077208
  Basis Set: CC-PVTZ
  Basis Set:
  Basis Set: CC-PVTZ
  Basis Set:
  @DF-RHF Final Energy:  -388.42861584729428
    Total Energy =                       -388.4286158472940542
  Basis Set: CC-PVTZ
  Basis Set:
  Charge       = 0
  Multiplicity = 1
  Basis Set: CC-PVTZ
  Basis Set:

    Orbital Energies (a.u.)
    -----------------------

    Doubly Occupied:

       1A    -20.545273     2A    -11.265039     3A    -11.217597
       4A    -11.214195     5A    -11.213498     6A    -11.213371
       7A    -11.212846     8A    -11.211747     9A    -11.206863
      10A     -1.363222    11A     -1.095872    12A     -1.063631
      13A     -1.012912    14A     -0.951380    15A     -0.883355
      16A     -0.820701    17A     -0.792746    18A     -0.789610
      19A     -0.696741    20A     -0.658904    21A     -0.636503
      22A     -0.614408    23A     -0.601175    24A     -0.588915
      25A     -0.574912    26A     -0.555567    27A     -0.539965
      28A     -0.520058    29A     -0.513905    30A     -0.489168
      31A     -0.484950    32A     -0.475189    33A     -0.467802
      34A     -0.462956    35A     -0.460327    36A     -0.444789
      37A     -0.422742

  @DF-RHF Final Energy:  -388.42861591163273

   => Energetics <=

    Nuclear Repulsion Energy =            451.9419174496831602
    One-Electron Energy =               -1422.1753968785662892
    Two-Electron Energy =                 581.8048635172506238
    DFT Exchange-Correlation Energy =       0.0000000000000000
    Empirical Dispersion Energy =           0.0000000000000000
    PCM Polarization Energy =               0.0000000000000000
    EFP Energy =                            0.0000000000000000
    Total Energy =                       -388.4286159116325052
    Molecular point group: c1
  Basis Set: CC-PVTZ
  Basis Set:

  -Total Gradient:
     Atom            X                  Y                   Z
    ------   -----------------  -----------------  -----------------
       1        0.000002471302    -0.000001342149     0.000001843514
       2       -0.000009241898     0.000002375173     0.000005594306
       3        0.000007012557     0.000001399847    -0.000013877686
       4       -0.000004430937    -0.000002344536    -0.000003884414
       5        0.000000402417    -0.000003648944    -0.000001442486
       6        0.000000572007     0.000004111780     0.000003612914
       7       -0.000003822243     0.000005660023     0.000006030924
       8        0.000000476248    -0.000004450357     0.000001623635
       9        0.000002777889     0.000001327182    -0.000000585080
      10        0.001605589059    -0.000282383256     0.004282796861
      11       -0.000001393574     0.000000221712    -0.000000550669
      12        0.000001171472     0.000001328464     0.000000167930
      13       -0.001342447240    -0.001402035957    -0.003239633937
      14       -0.001042187336     0.000583514543    -0.002871817831
      15        0.000001886283    -0.000001889114    -0.000001131560
      16        0.000791154457     0.001107291754     0.001827365268
      17       -0.000004092939     0.000001608695    -0.000001139023
      18       -0.000001770111     0.000001758357     0.000001689942
      19       -0.000005157169    -0.000006447600    -0.000002553616
      20        0.000002401553    -0.000002632630     0.000004788520
      21        0.000001226219    -0.000003529184    -0.000002823319
      22        0.000001730112    -0.000000645202     0.000005237793
      23       -0.000001651593     0.000003083406     0.000001734696
      24       -0.000003498844     0.000000659216    -0.000005316756
      25        0.000000534353    -0.000001959688     0.000004997490
      26        0.000001884927     0.000001867379     0.000000161823
      27       -0.000001596964    -0.000002898919    -0.000002889237

  **** Optimization is complete! (in 6 steps) ****
    Final optimized geometry and variables:
    Molecular point group: c1

    Geometry (in Angstrom), charge = 0, multiplicity = 1:

    H            2.826098529912    -1.881132317414     2.110349652885
    O            3.586390466144    -1.782141903694     1.568315032982
    C            3.282177326903    -2.114350515308     0.239404044265
    C            2.415372865016    -1.078853196994    -0.461258490528
    H            4.232931272302    -2.195102155333    -0.269967151769
    H            2.807230203157    -3.092391881290     0.192078858859
    C            1.012048301855    -0.937345017477     0.122575796316
    H            2.924676458094    -0.120556738432    -0.425510013190
    H            2.341896490429    -1.358644234499    -1.509404023397
    C            0.152558096003     0.082327759983    -0.617681320437
    H            1.077769068194    -0.642983768063     1.166599285301
    H            0.514477584690    -1.905283315281     0.103906174066
    C           -1.272546157861     0.195452768876    -0.076137090095
    H            0.629863630814     1.058436305841    -0.593107672572
    H            0.108476445022    -0.187958487335    -1.670376828264
    C           -1.996100501558     1.459677736593    -0.531109554330
    H           -1.842595612161    -0.681984871765    -0.369743392836
    H           -1.243984993015     0.186756182686     1.011236707613
    C           -3.434086898786     1.551460263332    -0.028842616302
    H           -1.993749805306     1.508248198988    -1.618005044583
    H           -1.440363509502     2.328711835788    -0.187964080049
    C           -4.144651478537     2.825626178278    -0.473132265742
    H           -3.992353737845     0.687509104334    -0.378994656522
    H           -3.438903979599     1.496707428799     1.056488597689
    H           -4.186924498414     2.893088617313    -1.555188892311
    H           -5.161912418719     2.859052702292    -0.100187376420
    H           -3.629818021802     3.708312462859    -0.108477587732

  Mulliken Charges: (a.u.)
   Center  Symbol    Alpha    Beta     Spin     Total
       1     H     0.39217  0.39217  0.00000  0.21565
       2     O     4.20586  4.20586  0.00000 -0.41173
       3     C     2.98015  2.98015  0.00000  0.03970
       4     C     3.08894  3.08894  0.00000 -0.17789
       5     H     0.44847  0.44847  0.00000  0.10305
       6     H     0.46985  0.46985  0.00000  0.06031
       7     C     3.10167  3.10167  0.00000 -0.20334
       8     H     0.45082  0.45082  0.00000  0.09836
       9     H     0.45576  0.45576  0.00000  0.08848
      10     C     3.09073  3.09073  0.00000 -0.18147
      11     H     0.45721  0.45721  0.00000  0.08558
      12     H     0.45350  0.45350  0.00000  0.09299
      13     C     3.08894  3.08894  0.00000 -0.17788
      14     H     0.45250  0.45250  0.00000  0.09499
      15     H     0.45398  0.45398  0.00000  0.09203
      16     C     3.08664  3.08664  0.00000 -0.17329
      17     H     0.45344  0.45344  0.00000  0.09313
      18     H     0.45673  0.45673  0.00000  0.08655
      19     C     3.08453  3.08453  0.00000 -0.16905
      20     H     0.45505  0.45505  0.00000  0.08990
      21     H     0.45453  0.45453  0.00000  0.09094
      22     C     3.15026  3.15026  0.00000 -0.30051
      23     H     0.45477  0.45477  0.00000  0.09047
      24     H     0.45472  0.45472  0.00000  0.09055
      25     H     0.45517  0.45517  0.00000  0.08966
      26     H     0.44848  0.44848  0.00000  0.10304
      27     H     0.45512  0.45512  0.00000  0.08976

   Total alpha = 37.00000, Total beta = 37.00000, Total charge = -0.00000

*** Psi4 exiting successfully. Buy a developer a beer!
