  ==> Input File <==

--------------------------------------------------------------------------
set {
	reference rhf
	basis cc-pvtz
}

set_num_threads( 4 )
memory 2 gb

molecule MOL {
0 1

H	 1.651322	 -0.822465	 0.000000
O	 0.729993	 -1.034364	 0.000000
C	 0.037305	 0.100061	 0.000000
C	 0.150110	 0.827570	 1.306171
O	 -0.583880	 0.462330	 -0.937916
H	 -0.211738	 0.193548	 2.105265
H	 -0.424214	 1.738077	 1.263114
H	 1.190155	 1.049553	 1.507417

	symmetry c1
}
set optking {
	frozen_dihedral = ("
		4 3 2 1
	")
}

ee = optimize('scf')
oeprop('DIPOLE', 'QUADRUPOLE', 'MULLIKEN_CHARGES')
f=open( 'psi4out.xyz', 'w' )
f.write( "8  " )
f.write( str(ee) + "\n" )
f.write( MOL.save_string_xyz() )
f.close()
--------------------------------------------------------------------------

    Molecular point group: c1
  Charge       = 0
  Multiplicity = 1
  Basis Set: CC-PVTZ
  Basis Set:
  @DF-RHF Final Energy:  -227.88353997154201
    Total Energy =                       -227.8835399715421488
    Molecular point group: c1
  Basis Set: CC-PVTZ
  Basis Set:
  Basis Set: CC-PVTZ
  Basis Set:
  @DF-RHF Final Energy:  -227.88403918609617
    Total Energy =                       -227.8840391860961745
  Basis Set: CC-PVTZ
  Basis Set:
  Basis Set: CC-PVTZ
  Basis Set:
  @DF-RHF Final Energy:  -227.88442905692972
    Total Energy =                       -227.8844290569298039
  Basis Set: CC-PVTZ
  Basis Set:
  Basis Set: CC-PVTZ
  Basis Set:
  @DF-RHF Final Energy:  -227.88551101809924
    Total Energy =                       -227.8855110180991232
  Basis Set: CC-PVTZ
  Basis Set:
  Basis Set: CC-PVTZ
  Basis Set:
  @DF-RHF Final Energy:  -227.88552918992247
    Total Energy =                       -227.8855291899224369
  Basis Set: CC-PVTZ
  Basis Set:
  Basis Set: CC-PVTZ
  Basis Set:
  @DF-RHF Final Energy:  -227.88553796488677
    Total Energy =                       -227.8855379648868791
  Basis Set: CC-PVTZ
  Basis Set:
  Basis Set: CC-PVTZ
  Basis Set:
  @DF-RHF Final Energy:  -227.88553955148001
    Total Energy =                       -227.8855395514799511
  Basis Set: CC-PVTZ
  Basis Set:
  Charge       = 0
  Multiplicity = 1
  Basis Set: CC-PVTZ
  Basis Set:

    Orbital Energies (a.u.)
    -----------------------

    Doubly Occupied:

       1A    -20.592089     2A    -20.550253     3A    -11.378665
       4A    -11.244102     5A     -1.466670     6A     -1.374528
       7A     -1.024535     8A     -0.832659     9A     -0.714985
      10A     -0.670979    11A     -0.665419    12A     -0.596679
      13A     -0.577631    14A     -0.521824    15A     -0.500114
      16A     -0.453240

  @DF-RHF Final Energy:  -227.88554051606573

   => Energetics <=

    Nuclear Repulsion Energy =            122.1220637747322542
    One-Electron Energy =                -553.6864649794367779
    Two-Electron Energy =                 203.6788606886388209
    DFT Exchange-Correlation Energy =       0.0000000000000000
    Empirical Dispersion Energy =           0.0000000000000000
    PCM Polarization Energy =               0.0000000000000000
    EFP Energy =                            0.0000000000000000
    Total Energy =                       -227.8855405160656744
    Molecular point group: c1
  Basis Set: CC-PVTZ
  Basis Set:

  -Total Gradient:
     Atom            X                  Y                   Z
    ------   -----------------  -----------------  -----------------
       1       -0.000027646269     0.000132021007    -0.004478619291
       2       -0.000934134178    -0.000942326048     0.006100688224
       3        0.003183899307     0.002208440508    -0.002588233849
       4       -0.002253666589    -0.001406776977     0.000948622039
       5        0.000046858497     0.000014279180     0.000006369157
       6        0.000010546577    -0.000014638157     0.000007212416
       7       -0.000015371553    -0.000003495041     0.000022084444
       8       -0.000010485794     0.000012495531    -0.000018123138

  **** Optimization is complete! (in 8 steps) ****
    Final optimized geometry and variables:
    Molecular point group: c1

    Geometry (in Angstrom), charge = 0, multiplicity = 1:

    H            1.581641544753    -0.954598635871    -0.137459675579
    O            0.651416727023    -1.107433910914    -0.132735891026
    C           -0.056536812718     0.048020247143    -0.094853043100
    C            0.034517426936     0.782917309139     1.213991337157
    O           -0.745634512547     0.365132828676    -0.989364295786
    H           -0.367898210755     0.146792006511     1.992451785629
    H           -0.524049574669     1.703205855478     1.161522609377
    H            1.067791923319     0.991626494122     1.466641592619

  Mulliken Charges: (a.u.)
   Center  Symbol    Alpha    Beta     Spin     Total
       1     H     0.38871  0.38871  0.00000  0.22259
       2     O     4.16655  4.16655  0.00000 -0.33311
       3     C     2.80859  2.80859  0.00000  0.38282
       4     C     3.13991  3.13991  0.00000 -0.27982
       5     O     4.16130  4.16130  0.00000 -0.32260
       6     H     0.44168  0.44168  0.00000  0.11665
       7     H     0.43724  0.43724  0.00000  0.12551
       8     H     0.45602  0.45602  0.00000  0.08796

   Total alpha = 16.00000, Total beta = 16.00000, Total charge =  0.00000
