  ==> Input File <==

--------------------------------------------------------------------------
set {
	reference rhf
	basis 6-31G*
}

set_num_threads( 4 )
memory 2 gb

molecule MOL {
0 1

H	 2.700519	 0.974917	 1.393458
N	 1.824856	 0.488968	 1.369355
C	 1.267428	 0.496480	 0.024474
H	 1.212826	 0.963613	 2.005787
C	 -0.016086	 -0.325158	 -0.029487
H	 2.003864	 0.054967	 -0.640179
H	 1.069274	 1.503025	 -0.352332
C	 -1.282277	 0.529072	 0.046735
H	 -0.012495	 -0.908639	 -0.945788
H	 -0.015903	 -1.041248	 0.791956
C	 -2.563920	 -0.301775	 -0.006060
H	 -1.284084	 1.244622	 -0.773004
H	 -1.271387	 1.115393	 0.963286
H	 -2.621848	 -0.873522	 -0.927727
H	 -3.445135	 0.329952	 0.047812
H	 -2.609542	 -1.004582	 0.821105

	symmetry c1
}
set optking {
	frozen_dihedral = ("
		6 3 5 9
	")
}

ee = optimize('scf')
oeprop('DIPOLE', 'QUADRUPOLE', 'MULLIKEN_CHARGES')
f=open( 'psi4out.xyz', 'w' )
f.write( "16  " )
f.write( str(ee) + "\n" )
f.write( MOL.save_string_xyz() )
f.close()
--------------------------------------------------------------------------

    Molecular point group: c1
  Charge       = 0
  Multiplicity = 1
  Basis Set: 6-31G*
  Basis Set:
  @DF-RHF Final Energy:  -212.31222698890426
    Total Energy =                       -212.3122269889043423
    Molecular point group: c1
  Basis Set: 6-31G*
  Basis Set:
  Basis Set: 6-31G*
  Basis Set:
  @DF-RHF Final Energy:  -212.31264525733340
    Total Energy =                       -212.3126452573333154
  Basis Set: 6-31G*
  Basis Set:
  Basis Set: 6-31G*
  Basis Set:
  @DF-RHF Final Energy:  -212.31275955137428
    Total Energy =                       -212.3127595513741426
  Basis Set: 6-31G*
  Basis Set:
  Charge       = 0
  Multiplicity = 1
  Basis Set: 6-31G*
  Basis Set:

    Orbital Energies (a.u.)
    -----------------------

    Doubly Occupied:

       1A    -15.532995     2A    -11.239895     3A    -11.216766
       4A    -11.209382     5A    -11.208615     6A     -1.176368
       7A     -1.058434     8A     -0.958724     9A     -0.848828
      10A     -0.788126    11A     -0.666165    12A     -0.634478
      13A     -0.604089    14A     -0.582333    15A     -0.553730
      16A     -0.524956    17A     -0.512626    18A     -0.472557
      19A     -0.465293    20A     -0.453813    21A     -0.380235

  @DF-RHF Final Energy:  -212.31276036986810

   => Energetics <=

    Nuclear Repulsion Energy =            187.6055371709210249
    One-Electron Energy =                -657.6597787979089844
    Two-Electron Energy =                 257.7414812571197444
    DFT Exchange-Correlation Energy =       0.0000000000000000
    Empirical Dispersion Energy =           0.0000000000000000
    PCM Polarization Energy =               0.0000000000000000
    EFP Energy =                            0.0000000000000000
    Total Energy =                       -212.3127603698682151
    Molecular point group: c1
  Basis Set: 6-31G*
  Basis Set:

  -Total Gradient:
     Atom            X                  Y                   Z
    ------   -----------------  -----------------  -----------------
       1        0.000036235477     0.000001936619    -0.000017891755
       2       -0.000002377522    -0.000067381138     0.000051690696
       3        0.001873069010    -0.003620820037     0.004248835386
       4       -0.000003907808     0.000008649402    -0.000046322889
       5       -0.002476934140     0.004372982205    -0.003042612328
       6       -0.001256347456     0.002368050191    -0.002978222395
       7        0.000012545004     0.000016942910    -0.000036533506
       8        0.000003617316     0.000056920610    -0.000129936367
       9        0.001766362338    -0.003022349698     0.001902655664
      10       -0.000005349180    -0.000052503794    -0.000001620886
      11        0.000041981021    -0.000036929157     0.000114526252
      12        0.000014361468    -0.000029745406    -0.000040199593
      13        0.000001266270     0.000000493102    -0.000027837901
      14       -0.000000118055     0.000039897235    -0.000009431635
      15        0.000002122290     0.000004969165     0.000040013626
      16       -0.000006526031    -0.000041112209    -0.000027112368

  **** Optimization is complete! (in 4 steps) ****
    Final optimized geometry and variables:
    Molecular point group: c1

    Geometry (in Angstrom), charge = 0, multiplicity = 1:

    H            2.803213202605     0.815526437350     1.133066962329
    N            1.946180669558     0.298003599253     1.088847061273
    C            1.424024572068     0.291219565938    -0.271360935222
    H            1.303991260639     0.755694812347     1.708026636603
    C            0.117775805297    -0.510310770880    -0.368111736566
    H            2.173555963653    -0.145119526103    -0.922340318776
    H            1.251902952731     1.298080620239    -0.661427451386
    C           -1.149063035888     0.342031485905    -0.272033256713
    H            0.108250000315    -1.089122190653    -1.288505989656
    H            0.124265624276    -1.245293514920     0.432629027318
    C           -2.429050649068    -0.492156408147    -0.282221150768
    H           -1.171734612237     1.049578987798    -1.097958188477
    H           -1.118327448986     0.939210629146     0.638023046205
    H           -2.508941654998    -1.073120100464    -1.196768130211
    H           -3.310759103123     0.137408252396    -0.212217760013
    H           -2.450298393362    -1.187217622729     0.552153536039

  Mulliken Charges: (a.u.)
   Center  Symbol    Alpha    Beta     Spin     Total
       1     H     0.33305  0.33305  0.00000  0.33389
       2     N     3.92012  3.92012  0.00000 -0.84024
       3     C     3.06434  3.06434  0.00000 -0.12869
       4     H     0.33497  0.33497  0.00000  0.33006
       5     C     3.16020  3.16020  0.00000 -0.32039
       6     H     0.41814  0.41814  0.00000  0.16372
       7     H     0.43413  0.43413  0.00000  0.13174
       8     C     3.15336  3.15336  0.00000 -0.30673
       9     H     0.42086  0.42086  0.00000  0.15828
      10     H     0.41057  0.41057  0.00000  0.17886
      11     C     3.23946  3.23946  0.00000 -0.47892
      12     H     0.42260  0.42260  0.00000  0.15479
      13     H     0.42696  0.42696  0.00000  0.14608
      14     H     0.42126  0.42126  0.00000  0.15747
      15     H     0.41963  0.41963  0.00000  0.16073
      16     H     0.42033  0.42033  0.00000  0.15934

   Total alpha = 21.00000, Total beta = 21.00000, Total charge = -0.00000
