  ==> Input File <==

--------------------------------------------------------------------------
set {
	reference rhf
	basis 6-31G*
}

set_num_threads( 1 )
memory 2 gb

molecule MOL {
0 1

H	 -3.287079	 1.668613	 -0.334857
C	 -2.560568	 1.066552	 0.175402
C	 -2.076860	 -0.007332	 -0.404944
H	 -2.246425	 1.363858	 1.158170
O	 -1.180634	 -0.819263	 0.215062
H	 -2.372974	 -0.318232	 -1.391277
C	 0.051604	 -1.018856	 -0.387932
C	 1.043764	 0.054862	 -0.001873
H	 -0.017620	 -1.041351	 -1.469781
H	 0.437898	 -1.966374	 -0.042284
F	 2.212596	 -0.199467	 -0.571921
F	 0.652529	 1.252447	 -0.405055
F	 1.230877	 0.110694	 1.300533

	symmetry c1
}
set optking {
	frozen_dihedral = ("
		11 8 7 9,
		3 5 7 9,
		6 3 2 1
	")
}

ee = energy('scf')
oeprop('DIPOLE', 'QUADRUPOLE', 'MULLIKEN_CHARGES')
f=open( 'psi4out.xyz', 'w' )
f.write( "13  " )
f.write( str(ee) + "\n" )
f.write( MOL.save_string_xyz() )
f.close()
--------------------------------------------------------------------------

    Molecular point group: c1

    Geometry (in Angstrom), charge = 0, multiplicity = 1:

       Center              X                  Y                   Z               Mass
    ------------   -----------------  -----------------  -----------------  -----------------
           H         -3.357569444551     1.590449909743    -0.335321141352     1.007825032070
           C         -2.631058444551     0.988388909743     0.174937858648    12.000000000000
           C         -2.147350444551    -0.085495090257    -0.405408141352    12.000000000000
           H         -2.316915444551     1.285694909743     1.157705858648     1.007825032070
           O         -1.251124444551    -0.897426090257     0.214597858648    15.994914619560
           H         -2.443464444551    -0.396395090257    -1.391741141352     1.007825032070
           C         -0.018886444551    -1.097019090257    -0.388396141352    12.000000000000
           C          0.973273555449    -0.023301090257    -0.002337141352    12.000000000000
           H         -0.088110444551    -1.119514090257    -1.470245141352     1.007825032070
           H          0.367407555449    -2.044537090257    -0.042748141352     1.007825032070
           F          2.142105555449    -0.277630090257    -0.572385141352    18.998403224000
           F          0.582038555449     1.174283909743    -0.405519141352    18.998403224000
           F          1.160386555449     0.032530909743     1.300068858648    18.998403224000

  Charge       = 0
  Multiplicity = 1
  Basis Set: 6-31G*
  Basis Set:

    Orbital Energies (a.u.)
    -----------------------

    Doubly Occupied:

       1A    -26.341341     2A    -26.338228     3A    -26.337501
       4A    -20.600502     5A    -11.499500     6A    -11.315116
       7A    -11.294535     8A    -11.222588     9A     -1.737970
      10A     -1.636394    11A     -1.634078    12A     -1.432794
      13A     -1.080361    14A     -1.016472    15A     -0.922840
      16A     -0.833978    17A     -0.827111    18A     -0.814806
      19A     -0.789215    20A     -0.712322    21A     -0.710947
      22A     -0.687957    23A     -0.673048    24A     -0.664008
      25A     -0.651621    26A     -0.643029    27A     -0.639277
      28A     -0.582941    29A     -0.565995    30A     -0.527087
      31A     -0.478594    32A     -0.364976

  @DF-RHF Final Energy:  -527.53325770633387

   => Energetics <=

    Nuclear Repulsion Energy =            417.9020996878460892
    One-Electron Energy =               -1559.7164524862462258
    Two-Electron Energy =                 614.2810950920667210
    DFT Exchange-Correlation Energy =       0.0000000000000000
    Empirical Dispersion Energy =           0.0000000000000000
    PCM Polarization Energy =               0.0000000000000000
    EFP Energy =                            0.0000000000000000
    Total Energy =                       -527.5332577063335293

  Mulliken Charges: (a.u.)
   Center  Symbol    Alpha    Beta     Spin     Total
       1     H     0.40725  0.40725  0.00000  0.18550
       2     C     3.21313  3.21313  0.00000 -0.42625
       3     C     2.91453  2.91453  0.00000  0.17093
       4     H     0.39978  0.39978  0.00000  0.20045
       5     O     4.30428  4.30428  0.00000 -0.60857
       6     H     0.40890  0.40890  0.00000  0.18220
       7     C     3.05628  3.05628  0.00000 -0.11256
       8     C     2.45713  2.45713  0.00000  1.08573
       9     H     0.40800  0.40800  0.00000  0.18399
      10     H     0.39355  0.39355  0.00000  0.21291
      11     F     4.68330  4.68330  0.00000 -0.36659
      12     F     4.67824  4.67824  0.00000 -0.35647
      13     F     4.67564  4.67564  0.00000 -0.35127

   Total alpha = 32.00000, Total beta = 32.00000, Total charge =  0.00000
