  ==> Input File <==

--------------------------------------------------------------------------
set {
	reference rhf
	basis 6-31G*
}

set_num_threads( 4 )
memory 2 gb

molecule MOL {
0 1

O	 -1.623076	 -0.687047	 -0.555184
C	 -1.083277	 0.139568	 0.115197
C	 0.323299	 -0.082943	 0.642902
C	 -1.774125	 1.430928	 0.493280
C	 1.355627	 -0.005344	 -0.493127
H	 0.396251	 -1.044647	 1.143147
H	 0.528637	 0.693580	 1.371677
C	 2.786168	 -0.195604	 0.007473
H	 1.132807	 -0.760304	 -1.243899
H	 1.259610	 0.958506	 -0.981915
H	 3.495561	 -0.130713	 -0.811210
H	 2.912696	 -1.165395	 0.480041
H	 3.049284	 0.565503	 0.735850
H	 -1.724935	 1.594433	 1.565900
H	 -2.806170	 1.406010	 0.172347
H	 -1.268840	 2.267697	 0.018192

	symmetry c1
}
set optking {
	frozen_dihedral = ("
		4 2 3 5
	")
}

ee = optimize('scf')
oeprop('DIPOLE', 'QUADRUPOLE', 'MULLIKEN_CHARGES')
f=open( 'psi4out.xyz', 'w' )
f.write( "16  " )
f.write( str(ee) + "\n" )
f.write( MOL.save_string_xyz() )
f.close()
--------------------------------------------------------------------------

    Molecular point group: c1
  Charge       = 0
  Multiplicity = 1
  Basis Set: 6-31G*
  Basis Set:
  @DF-RHF Final Energy:  -270.02928224686161
    Total Energy =                       -270.0292822468616123
    Molecular point group: c1
  Basis Set: 6-31G*
  Basis Set:
  Basis Set: 6-31G*
  Basis Set:
  @DF-RHF Final Energy:  -270.02826100869981
    Total Energy =                       -270.0282610086997579
  Basis Set: 6-31G*
  Basis Set:
  Basis Set: 6-31G*
  Basis Set:
  @DF-RHF Final Energy:  -270.02998278653195
    Total Energy =                       -270.0299827865319457
  Basis Set: 6-31G*
  Basis Set:
  Basis Set: 6-31G*
  Basis Set:
  @DF-RHF Final Energy:  -270.03032297606035
    Total Energy =                       -270.0303229760603472
  Basis Set: 6-31G*
  Basis Set:
  Basis Set: 6-31G*
  Basis Set:
  @DF-RHF Final Energy:  -270.03034201416870
    Total Energy =                       -270.0303420141690935
  Basis Set: 6-31G*
  Basis Set:
  Basis Set: 6-31G*
  Basis Set:
  @DF-RHF Final Energy:  -270.03035445786963
    Total Energy =                       -270.0303544578696915
  Basis Set: 6-31G*
  Basis Set:
  Basis Set: 6-31G*
  Basis Set:
  @DF-RHF Final Energy:  -270.03036581621870
    Total Energy =                       -270.0303658162187617
  Basis Set: 6-31G*
  Basis Set:
  Charge       = 0
  Multiplicity = 1
  Basis Set: 6-31G*
  Basis Set:

    Orbital Energies (a.u.)
    -----------------------

    Doubly Occupied:

       1A    -20.548103     2A    -11.325471     3A    -11.230698
       4A    -11.229985     5A    -11.228916     6A    -11.217991
       7A     -1.394051     8A     -1.080571     9A     -1.013961
      10A     -0.948887    11A     -0.827391    12A     -0.734819
      13A     -0.658957    14A     -0.648086    15A     -0.612870
      16A     -0.605450    17A     -0.574486    18A     -0.559600
      19A     -0.540841    20A     -0.514562    21A     -0.500535
      22A     -0.482914    23A     -0.470861    24A     -0.398418

  @DF-RHF Final Energy:  -270.03036614430152

   => Energetics <=

    Nuclear Repulsion Energy =            236.9330964464495253
    One-Electron Energy =                -835.2300789205543197
    Two-Electron Energy =                 328.2666163298031279
    DFT Exchange-Correlation Energy =       0.0000000000000000
    Empirical Dispersion Energy =           0.0000000000000000
    PCM Polarization Energy =               0.0000000000000000
    EFP Energy =                            0.0000000000000000
    Total Energy =                       -270.0303661443016381
    Molecular point group: c1
  Basis Set: 6-31G*
  Basis Set:

  -Total Gradient:
     Atom            X                  Y                   Z
    ------   -----------------  -----------------  -----------------
       1       -0.000013395941    -0.000001086705    -0.000024813836
       2       -0.000075713516    -0.000091294211     0.000063708687
       3        0.000023283115     0.000045843085     0.000011147112
       4        0.000027334093     0.000031053901    -0.000115310494
       5       -0.000001063742    -0.000095048114    -0.000001227429
       6       -0.000006027656     0.000031369379    -0.000022682940
       7        0.000033286520    -0.000007080424     0.000034348056
       8        0.000012384103     0.000041719514    -0.000013018537
       9       -0.000010508571     0.000010100348    -0.000003103528
      10        0.000025979891     0.000015607114     0.000007154284
      11        0.000004476244     0.000011500698     0.000003798570
      12       -0.000013342410     0.000000812619    -0.000018198611
      13        0.000009635149    -0.000004174381     0.000016979577
      14        0.000002837565    -0.000005260773     0.000021747057
      15       -0.000006224126     0.000015127849     0.000022015031
      16       -0.000012940714     0.000000810100     0.000017457000

  **** Optimization is complete! (in 8 steps) ****
    Final optimized geometry and variables:
    Molecular point group: c1

    Geometry (in Angstrom), charge = 0, multiplicity = 1:

    O           -1.608388143804    -0.824310160570    -0.542577581645
    C           -1.089009280833     0.030898761840     0.107833411954
    C            0.333576140521    -0.138332987681     0.616483655834
    C           -1.802527871910     1.321905046322     0.439121063314
    C            1.345398901387    -0.092460976723    -0.538008945830
    H            0.391412984741    -1.104484165465     1.108119352935
    H            0.572250523041     0.623604145631     1.352816585225
    C            2.781140761053    -0.306632018182    -0.062952816430
    H            1.075531673135    -0.852392231432    -1.262824013345
    H            1.272886831451     0.865839502730    -1.047882303782
    H            3.475105401539    -0.269619903127    -0.896479009072
    H            2.892934571755    -1.273361952664     0.418996266003
    H            3.079346564916     0.456260013468     0.650547146559
    H           -1.927983778606     1.408926169681     1.515094461698
    H           -2.770786964557     1.344622124493    -0.041095652769
    H           -1.211208051756     2.174442650455     0.116497363671

  Mulliken Charges: (a.u.)
   Center  Symbol    Alpha    Beta     Spin     Total
       1     O     4.26277  4.26277  0.00000 -0.52553
       2     C     2.73689  2.73689  0.00000  0.52622
       3     C     3.19986  3.19986  0.00000 -0.39972
       4     C     3.28943  3.28943  0.00000 -0.57885
       5     C     3.15948  3.15948  0.00000 -0.31895
       6     H     0.40187  0.40187  0.00000  0.19627
       7     H     0.41703  0.41703  0.00000  0.16595
       8     C     3.24018  3.24018  0.00000 -0.48036
       9     H     0.40348  0.40348  0.00000  0.19304
      10     H     0.42028  0.42028  0.00000  0.15944
      11     H     0.41550  0.41550  0.00000  0.16900
      12     H     0.41831  0.41831  0.00000  0.16339
      13     H     0.42132  0.42132  0.00000  0.15736
      14     H     0.40733  0.40733  0.00000  0.18535
      15     H     0.39707  0.39707  0.00000  0.20586
      16     H     0.40922  0.40922  0.00000  0.18155

   Total alpha = 24.00000, Total beta = 24.00000, Total charge = -0.00000
