  ==> Input File <==

--------------------------------------------------------------------------
set {
	reference rhf
	basis 6-31G*
}

set_num_threads( 4 )
memory 2 gb

molecule MOL {
0 1

H	 -3.420663	 1.227371	 -1.044276
O	 -3.452007	 0.283848	 -0.965577
C	 -3.181085	 -0.079926	 0.364119
C	 -1.765924	 0.277073	 0.805136
H	 -3.327791	 -1.152017	 0.410903
H	 -3.905698	 0.375695	 1.036898
C	 -0.677594	 -0.417312	 -0.014550
H	 -1.637766	 1.358238	 0.744969
H	 -1.659588	 0.017670	 1.857098
C	 0.738335	 -0.034840	 0.421385
H	 -0.814977	 -0.178223	 -1.064632
H	 -0.802730	 -1.495410	 0.071702
C	 0.869236	 0.124775	 1.938446
H	 1.434164	 -0.791093	 0.065969
H	 1.026982	 0.897268	 -0.062827
C	 2.247745	 0.594097	 2.417618
H	 0.624227	 -0.819672	 2.421855
H	 0.123861	 0.840761	 2.278441
C	 3.380197	 -0.404864	 2.172601
H	 2.189853	 0.799904	 3.483724
H	 2.491550	 1.540756	 1.939497
H	 3.158111	 -1.365808	 2.629112
H	 4.311137	 -0.044625	 2.599704
H	 3.552136	 -0.573025	 1.114620

	symmetry c1
}
set optking {
	frozen_dihedral = ("
		13 10 7 11
	")
}

ee = optimize('scf')
oeprop('DIPOLE', 'QUADRUPOLE', 'MULLIKEN_CHARGES')
f=open( 'psi4out.xyz', 'w' )
f.write( "24  " )
f.write( str(ee) + "\n" )
f.write( MOL.save_string_xyz() )
f.close()
--------------------------------------------------------------------------

    Molecular point group: c1
  Charge       = 0
  Multiplicity = 1
  Basis Set: 6-31G*
  Basis Set:
  @DF-RHF Final Energy:  -349.24043196318803
    Total Energy =                       -349.2404319631880867
    Molecular point group: c1
  Basis Set: 6-31G*
  Basis Set:
  Basis Set: 6-31G*
  Basis Set:
  @DF-RHF Final Energy:  -349.24102491342308
    Total Energy =                       -349.2410249134234164
  Basis Set: 6-31G*
  Basis Set:
  Basis Set: 6-31G*
  Basis Set:
  @DF-RHF Final Energy:  -349.24297992654346
    Total Energy =                       -349.2429799265436259
  Basis Set: 6-31G*
  Basis Set:
  Basis Set: 6-31G*
  Basis Set:
  @DF-RHF Final Energy:  -349.24322047677293
    Total Energy =                       -349.2432204767731037
  Basis Set: 6-31G*
  Basis Set:
  Basis Set: 6-31G*
  Basis Set:
  @DF-RHF Final Energy:  -349.24323306531414
    Total Energy =                       -349.2432330653143140
  Basis Set: 6-31G*
  Basis Set:
  Basis Set: 6-31G*
  Basis Set:
  @DF-RHF Final Energy:  -349.24324352271998
    Total Energy =                       -349.2432435227200358
  Basis Set: 6-31G*
  Basis Set:
  Basis Set: 6-31G*
  Basis Set:
  @DF-RHF Final Energy:  -349.24324584385528
    Total Energy =                       -349.2432458438552771
  Basis Set: 6-31G*
  Basis Set:
  Charge       = 0
  Multiplicity = 1
  Basis Set: 6-31G*
  Basis Set:

    Orbital Energies (a.u.)
    -----------------------

    Doubly Occupied:

       1A    -20.553784     2A    -11.267599     3A    -11.216675
       4A    -11.215068     5A    -11.212999     6A    -11.212408
       7A    -11.211257     8A    -11.207636     9A     -1.360330
      10A     -1.088243    11A     -1.046549    12A     -0.983621
      13A     -0.916931    14A     -0.854181    15A     -0.808304
      16A     -0.765485    17A     -0.678699    18A     -0.643823
      19A     -0.632107    20A     -0.619961    21A     -0.601422
      22A     -0.581708    23A     -0.552339    24A     -0.551533
      25A     -0.516100    26A     -0.509463    27A     -0.500313
      28A     -0.476645    29A     -0.474438    30A     -0.454350
      31A     -0.450863    32A     -0.437651    33A     -0.424613

  @DF-RHF Final Energy:  -349.24324576757618

   => Energetics <=

    Nuclear Repulsion Energy =            388.4289057820337234
    One-Electron Energy =               -1243.2901041824491131
    Two-Electron Energy =                 505.6179526328392626
    DFT Exchange-Correlation Energy =       0.0000000000000000
    Empirical Dispersion Energy =           0.0000000000000000
    PCM Polarization Energy =               0.0000000000000000
    EFP Energy =                            0.0000000000000000
    Total Energy =                       -349.2432457675760702
    Molecular point group: c1
  Basis Set: 6-31G*
  Basis Set:

  -Total Gradient:
     Atom            X                  Y                   Z
    ------   -----------------  -----------------  -----------------
       1       -0.000001162564     0.000003305359     0.000000341331
       2       -0.000016365165    -0.000001129045     0.000006597099
       3        0.000010209253    -0.000004264527    -0.000004419618
       4       -0.000020108042    -0.000024595531     0.000009470249
       5       -0.000003163701     0.000001035414    -0.000005238788
       6       -0.000003687088     0.000000740261    -0.000003823056
       7        0.001979148817    -0.004277396201    -0.001915013651
       8        0.000020670994     0.000005168853     0.000000436937
       9       -0.000016997608     0.000000089122    -0.000013636464
      10        0.001270084686    -0.004547881953     0.000699833061
      11       -0.002047438711     0.004904114812     0.001492571492
      12       -0.000001501713     0.000003047484    -0.000010108858
      13       -0.001191524401     0.003937954244    -0.000247029898
      14       -0.000018800062     0.000002942011     0.000002183691
      15        0.000012065900    -0.000005638847    -0.000001170134
      16        0.000005803398     0.000007373321    -0.000023166351
      17       -0.000000393896    -0.000011721768    -0.000012272903
      18        0.000011685911    -0.000001810319     0.000007623286
      19        0.000003361551     0.000002528923     0.000013750460
      20       -0.000001267304     0.000004724896    -0.000004287677
      21        0.000006276373    -0.000002178408    -0.000008817688
      22       -0.000004792784    -0.000002899516    -0.000003868725
      23       -0.000002194169    -0.000002640290     0.000007395709
      24        0.000010090327     0.000009131705     0.000012650501

  **** Optimization is complete! (in 8 steps) ****
    Final optimized geometry and variables:
    Molecular point group: c1

    Geometry (in Angstrom), charge = 0, multiplicity = 1:

    H           -3.116203730187     1.210273816404    -1.940242669332
    O           -3.120999934892     0.263084021299    -1.928392622626
    C           -2.952567273231    -0.184667864962    -0.607229638242
    C           -1.589041091592     0.169212021761    -0.021742861230
    H           -3.075765972445    -1.260130773570    -0.643633039897
    H           -3.742632171260     0.210077901374     0.029225896757
    C           -0.428918669745    -0.472892150091    -0.790541300716
    H           -1.477994874958     1.254274216809    -0.020994881708
    H           -1.580935192759    -0.138955516840     1.020335724791
    C            0.977385266477    -0.014381283495    -0.364119004510
    H           -0.570080795284    -0.216023663708    -1.834644571169
    H           -0.509456588352    -1.554281217033    -0.705837355082
    C            1.197871459104     0.152417384594     1.143229602784
    H            1.699711103142    -0.713503488994    -0.773748040321
    H            1.188082093228     0.944187484194    -0.836962988963
    C            2.628474929234     0.553524972639     1.525099930404
    H            0.938247085667    -0.771007245491     1.660591395283
    H            0.521152792381     0.912867731810     1.520607253978
    C            3.681262729187    -0.530918705211     1.288249758220
    H            2.640184156186     0.822589999068     2.578554688013
    H            2.906932694948     1.453554861002     0.980243256258
    H            3.424817070178    -1.444619310590     1.817726375341
    H            4.654393172576    -0.206415131959     1.644026916751
    H            3.785922333367    -0.776289263102     0.236840804327

  Mulliken Charges: (a.u.)
   Center  Symbol    Alpha    Beta     Spin     Total
       1     H     0.28334  0.28334  0.00000  0.43332
       2     O     4.36845  4.36845  0.00000 -0.73690
       3     C     2.99628  2.99628  0.00000  0.00744
       4     C     3.17246  3.17246  0.00000 -0.34493
       5     H     0.41639  0.41639  0.00000  0.16722
       6     H     0.42793  0.42793  0.00000  0.14414
       7     C     3.15405  3.15405  0.00000 -0.30810
       8     H     0.42890  0.42890  0.00000  0.14221
       9     H     0.41986  0.41986  0.00000  0.16027
      10     C     3.15509  3.15509  0.00000 -0.31018
      11     H     0.40857  0.40857  0.00000  0.18286
      12     H     0.42318  0.42318  0.00000  0.15364
      13     C     3.15571  3.15571  0.00000 -0.31142
      14     H     0.41853  0.41853  0.00000  0.16294
      15     H     0.42540  0.42540  0.00000  0.14920
      16     C     3.15224  3.15224  0.00000 -0.30448
      17     H     0.42550  0.42550  0.00000  0.14900
      18     H     0.42054  0.42054  0.00000  0.15891
      19     C     3.24083  3.24083  0.00000 -0.48166
      20     H     0.42141  0.42141  0.00000  0.15718
      21     H     0.42366  0.42366  0.00000  0.15267
      22     H     0.42230  0.42230  0.00000  0.15540
      23     H     0.41947  0.41947  0.00000  0.16107
      24     H     0.41990  0.41990  0.00000  0.16019

   Total alpha = 33.00000, Total beta = 33.00000, Total charge = -0.00000
