                              Psi4 1.0.54 Driver

  ==> Input File <==

--------------------------------------------------------------------------
set {
	reference rhf
	basis cc-pvtz
}

set_num_threads( 4 )
memory 2 gb

molecule MOL {
0 1

H	 1.018907	 -0.265824	 -1.699261
O	 1.225079	 0.568702	 -1.317800
C	 0.706474	 0.636793	 -0.025501
C	 -0.793473	 0.591216	 0.050087
H	 1.056553	 1.571445	 0.396603
H	 1.114036	 -0.156647	 0.598235
C	 -1.534243	 -0.493009	 -0.013340
H	 -1.266611	 1.552628	 0.164437
H	 -1.101195	 -1.466332	 -0.144046
H	 -2.604242	 -0.437780	 0.050785

	symmetry c1
}
set optking {
	frozen_dihedral = ("
		5 3 4 7
	")
}

ee,wfn = optimize('scf', return_wfn=True)
oeprop( wfn, 'DIPOLE', 'QUADRUPOLE', 'MULLIKEN_CHARGES')
f=open( 'psi4out.xyz', 'w' )
f.write( "10  " )
f.write( str(ee) + "\n" )
f.write( MOL.save_string_xyz() )
f.close()
--------------------------------------------------------------------------

    Molecular point group: c1
  Charge       = 0
  Multiplicity = 1
  Basis Set: CC-PVTZ
  Basis Set:
  @DF-RHF Final Energy:  -191.99377874443519
    Total Energy =                       -191.9937787444350477
    Molecular point group: c1
  Basis Set: CC-PVTZ
  Basis Set:
  Basis Set: CC-PVTZ
  Basis Set:
  @DF-RHF Final Energy:  -191.99478974145171
    Total Energy =                       -191.9947897414515694
  Basis Set: CC-PVTZ
  Basis Set:
  Basis Set: CC-PVTZ
  Basis Set:
  @DF-RHF Final Energy:  -191.99525682837503
    Total Energy =                       -191.9952568283749201
  Basis Set: CC-PVTZ
  Basis Set:
  Basis Set: CC-PVTZ
  Basis Set:
  @DF-RHF Final Energy:  -191.99532856398008
    Total Energy =                       -191.9953285639800811
  Basis Set: CC-PVTZ
  Basis Set:
  Basis Set: CC-PVTZ
  Basis Set:
  @DF-RHF Final Energy:  -191.99533584671244
    Total Energy =                       -191.9953358467125781
  Basis Set: CC-PVTZ
  Basis Set:
  Charge       = 0
  Multiplicity = 1
  Basis Set: CC-PVTZ
  Basis Set:

    Orbital Energies (a.u.)
    -----------------------

    Doubly Occupied:

       1A    -20.548768     2A    -11.275428     3A    -11.233818
       4A    -11.228184     5A     -1.366858     6A     -1.068082
       7A     -0.927032     8A     -0.777801     9A     -0.704319
      10A     -0.633276    11A     -0.627504    12A     -0.591470
      13A     -0.539414    14A     -0.493283    15A     -0.443092
      16A     -0.382075

  @DF-RHF Final Energy:  -191.99533667760011

   => Energetics <=

    Nuclear Repulsion Energy =            118.4621675406654475
    One-Electron Energy =                -495.2342008650298339
    Two-Electron Energy =                 184.7766966467642362
    DFT Exchange-Correlation Energy =       0.0000000000000000
    Empirical Dispersion Energy =           0.0000000000000000
    PCM Polarization Energy =               0.0000000000000000
    EFP Energy =                            0.0000000000000000
    Total Energy =                       -191.9953366776001360
    Molecular point group: c1
  Basis Set: CC-PVTZ
  Basis Set:

  -Total Gradient:
     Atom            X                  Y                   Z
    ------   -----------------  -----------------  -----------------
       1       -0.000013981817    -0.000017881770    -0.000002887759
       2        0.000070815047     0.000026914793    -0.000020091014
       3       -0.000370979867    -0.001992249673     0.003324686561
       4       -0.000393193653     0.000272859162     0.005191593129
       5        0.000342072587     0.001609120767    -0.004295272370
       6        0.000030516540    -0.000004950847     0.000000706369
       7        0.000319708501     0.000093209757    -0.004117599473
       8        0.000005137077     0.000026737904    -0.000005846581
       9        0.000013072479    -0.000013158861    -0.000039708241
      10       -0.000003166895    -0.000000601232    -0.000035580621

  **** Optimization is complete! (in 6 steps) ****
    Final optimized geometry and variables:
    Molecular point group: c1

    Geometry (in Angstrom), charge = 0, multiplicity = 1:

    H            0.955369600054    -0.544744879447    -1.291788957251
    O            1.329472444475     0.180791547487    -0.825629439271
    C            0.709664067463     0.302523787505     0.430227746925
    C           -0.794413482186     0.315430237135     0.316458078736
    H            1.063491479930     1.247447746408     0.816299867302
    H            1.031843594030    -0.492121095624     1.095544258513
    C           -1.527889331151    -0.774853659812     0.247535947668
    H           -1.263573078575     1.275899286687     0.193001722189
    H           -1.095836916397    -1.754614513204     0.358685948400
    H           -2.589573871428    -0.732982524100     0.093567177969

  Mulliken Charges: (a.u.)
   Center  Symbol    Alpha    Beta     Spin     Total
       1     H     0.39344  0.39344  0.00000  0.21312
       2     O     4.20090  4.20090  0.00000 -0.40180
       3     C     2.95274  2.95274  0.00000  0.09452
       4     C     3.07913  3.07913  0.00000 -0.15825
       5     H     0.45569  0.45569  0.00000  0.08862
       6     H     0.46946  0.46946  0.00000  0.06108
       7     C     3.17683  3.17683  0.00000 -0.35366
       8     H     0.41892  0.41892  0.00000  0.16216
       9     H     0.42794  0.42794  0.00000  0.14411
      10     H     0.42494  0.42494  0.00000  0.15011

   Total alpha = 16.00000, Total beta = 16.00000, Total charge = -0.00000

*** Psi4 exiting successfully. Buy a developer a beer!
