  ==> Input File <==

--------------------------------------------------------------------------
set {
	reference rhf
	basis cc-pvtz
}

set_num_threads( 4 )
memory 2 gb

molecule MOL {
0 1

H	 3.889604	 0.356866	 -0.089510
N	 3.091268	 -0.241216	 -0.065538
C	 1.860978	 0.530248	 0.016256
H	 3.192566	 -0.835836	 0.730398
C	 0.644130	 -0.381765	 -0.031064
H	 1.835721	 1.204666	 -0.833114
H	 1.808789	 1.151975	 0.911067
C	 -0.678115	 0.376691	 0.025731
H	 0.693998	 -0.977147	 -0.936845
H	 0.693309	 -1.082142	 0.800523
C	 -1.256723	 0.686710	 -1.352058
H	 -0.535487	 1.307623	 0.569770
H	 -1.403612	 -0.199475	 0.595431
C	 -2.575237	 1.450566	 -1.291070
H	 -0.533222	 1.261897	 -1.923022
H	 -1.403781	 -0.242193	 -1.896376
H	 -2.453609	 2.401297	 -0.782584
H	 -2.957895	 1.654248	 -2.284595
H	 -3.330861	 0.885450	 -0.755336

	symmetry c1
}
set optking {
	frozen_dihedral = ("
		12 8 5 9
	")
}

ee = optimize('scf')
oeprop('DIPOLE', 'QUADRUPOLE', 'MULLIKEN_CHARGES')
f=open( 'psi4out.xyz', 'w' )
f.write( "19  " )
f.write( str(ee) + "\n" )
f.write( MOL.save_string_xyz() )
f.close()
--------------------------------------------------------------------------

    Molecular point group: c1
  Charge       = 0
  Multiplicity = 1
  Basis Set: CC-PVTZ
  Basis Set:
  @DF-RHF Final Energy:  -251.44457863161830
    Total Energy =                       -251.4445786316181284
    Molecular point group: c1
  Basis Set: CC-PVTZ
  Basis Set:
  Basis Set: CC-PVTZ
  Basis Set:
  @DF-RHF Final Energy:  -251.44480975318487
    Total Energy =                       -251.4448097531848703
  Basis Set: CC-PVTZ
  Basis Set:
  Basis Set: CC-PVTZ
  Basis Set:
  @DF-RHF Final Energy:  -251.44486015614777
    Total Energy =                       -251.4448601561479109
  Basis Set: CC-PVTZ
  Basis Set:
  Charge       = 0
  Multiplicity = 1
  Basis Set: CC-PVTZ
  Basis Set:

    Orbital Energies (a.u.)
    -----------------------

    Doubly Occupied:

       1A    -15.526463     2A    -11.238056     3A    -11.211412
       4A    -11.210439     5A    -11.207711     6A    -11.205116
       7A     -1.178335     8A     -1.073068     9A     -0.997659
      10A     -0.899899    11A     -0.822010    12A     -0.783445
      13A     -0.661946    14A     -0.635919    15A     -0.625430
      16A     -0.589618    17A     -0.570982    18A     -0.549073
      19A     -0.526246    20A     -0.499443    21A     -0.487429
      22A     -0.464783    23A     -0.454553    24A     -0.448622
      25A     -0.384069

  @DF-RHF Final Energy:  -251.44486093891865

   => Energetics <=

    Nuclear Repulsion Energy =            248.4655088372929583
    One-Electron Energy =                -831.3172890306391309
    Two-Electron Energy =                 331.4069192544276916
    DFT Exchange-Correlation Energy =       0.0000000000000000
    Empirical Dispersion Energy =           0.0000000000000000
    PCM Polarization Energy =               0.0000000000000000
    EFP Energy =                            0.0000000000000000
    Total Energy =                       -251.4448609389184526
    Molecular point group: c1
  Basis Set: CC-PVTZ
  Basis Set:

  -Total Gradient:
     Atom            X                  Y                   Z
    ------   -----------------  -----------------  -----------------
       1        0.000020888045    -0.000011529806     0.000002117096
       2        0.000057785196     0.000003592592     0.000012204151
       3       -0.000041191056    -0.000038427534    -0.000026167714
       4        0.000012638218     0.000006469671    -0.000001926091
       5       -0.001252371768    -0.002279412266     0.001050302909
       6        0.000006438709    -0.000000935005     0.000014474406
       7       -0.000006471789     0.000026149038    -0.000002234752
       8       -0.000545791591    -0.001060492696     0.002525741587
       9        0.001120490914     0.002089405813    -0.001296826869
      10       -0.000009450693     0.000032962111    -0.000007357094
      11       -0.000012029265    -0.000086020040     0.000020000838
      12        0.000635885480     0.001261199861    -0.002248362993
      13        0.000008657101     0.000007429661    -0.000033461363
      14        0.000020983664     0.000054673587     0.000007277780
      15       -0.000007465479    -0.000012065885    -0.000007254809
      16       -0.000004892972    -0.000005496037    -0.000007351246
      17       -0.000022258496     0.000005282874     0.000011796486
      18        0.000007423291     0.000013185613    -0.000002376376
      19        0.000010732489    -0.000005971553    -0.000010595946

  **** Optimization is complete! (in 4 steps) ****
    Final optimized geometry and variables:
    Molecular point group: c1

    Geometry (in Angstrom), charge = 0, multiplicity = 1:

    H            3.660965908753    -0.007183087579     0.307068294430
    N            2.872549518615    -0.618343792965     0.330863422913
    C            1.633319074353     0.128504409199     0.474148537739
    H            3.005019326945    -1.240032257316     1.101234403899
    C            0.429196613112    -0.805550930249     0.443558576263
    H            1.571129314368     0.827453835779    -0.353029376862
    H            1.598657039491     0.722209664548     1.388485363243
    C           -0.912037927913    -0.060196400555     0.479989920753
    H            0.501107547916    -1.402965570718    -0.458691202653
    H            0.500004365305    -1.489393165599     1.284439406051
    C           -1.468195186323     0.258974857951    -0.907898678361
    H           -0.792506398392     0.874544893067     1.022560329917
    H           -1.647269363954    -0.643209683306     1.024813212813
    C           -2.761289848056     1.065849754380    -0.862703018000
    H           -0.724662432242     0.804800868075    -1.481771903878
    H           -1.641419828971    -0.670260327954    -1.443004395992
    H           -2.611395954427     2.019727192701    -0.367696684627
    H           -3.134694705734     1.266672243366    -1.860374684343
    H           -3.535931856601     0.532886111496    -0.321053129842

  Mulliken Charges: (a.u.)
   Center  Symbol    Alpha    Beta     Spin     Total
       1     H     0.43019  0.43019  0.00000  0.13961
       2     N     3.68951  3.68951  0.00000 -0.37902
       3     C     3.02336  3.02336  0.00000 -0.04672
       4     H     0.43102  0.43102  0.00000  0.13796
       5     C     3.09170  3.09170  0.00000 -0.18340
       6     H     0.45699  0.45699  0.00000  0.08603
       7     H     0.46845  0.46845  0.00000  0.06310
       8     C     3.10145  3.10145  0.00000 -0.20290
       9     H     0.45021  0.45021  0.00000  0.09959
      10     H     0.45298  0.45298  0.00000  0.09404
      11     C     3.08130  3.08130  0.00000 -0.16260
      12     H     0.45755  0.45755  0.00000  0.08490
      13     H     0.44758  0.44758  0.00000  0.10483
      14     C     3.15046  3.15046  0.00000 -0.30091
      15     H     0.45439  0.45439  0.00000  0.09123
      16     H     0.45357  0.45357  0.00000  0.09286
      17     H     0.45559  0.45559  0.00000  0.08883
      18     H     0.44847  0.44847  0.00000  0.10305
      19     H     0.45524  0.45524  0.00000  0.08952

   Total alpha = 25.00000, Total beta = 25.00000, Total charge =  0.00000
