  ==> Input File <==

--------------------------------------------------------------------------
set {
	reference rhf
	basis 6-31G*
}

set_num_threads( 1 )
memory 2 gb

molecule MOL {
0 1

O	 3.225979	 0.970355	 -0.599647
C	 2.701189	 0.057885	 -0.047330
C	 1.245376	 -0.013843	 0.345420
O	 3.347903	 -1.046386	 0.304773
C	 0.455112	 1.231400	 -0.050772
H	 0.838542	 -0.913825	 -0.103701
H	 1.208210	 -0.175333	 1.419774
C	 -0.998893	 1.219485	 0.433193
H	 0.482531	 1.345121	 -1.130325
H	 0.957290	 2.103070	 0.354729
C	 -1.883438	 0.145884	 -0.207175
H	 -1.431207	 2.195402	 0.224832
H	 -1.019646	 1.105716	 1.516076
C	 -3.347647	 0.245583	 0.225435
H	 -1.822183	 0.231698	 -1.291012
H	 -1.510341	 -0.844814	 0.042401
C	 -3.548380	 1.066517	 1.500544
H	 -3.746916	 -0.755810	 0.377200
H	 -3.932025	 0.686729	 -0.580538
C	 -5.012872	 1.157990	 1.927856
H	 -2.964318	 0.627647	 2.306711
H	 -3.153833	 2.069138	 1.349334
H	 -5.122694	 1.745753	 2.833991
H	 -5.427231	 0.172451	 2.120768
H	 -5.618213	 1.624494	 1.155709
C	 4.728119	 -1.109107	 -0.004993
H	 4.882018	 -1.033965	 -1.071845
H	 5.068212	 -2.067527	 0.355250
H	 5.265056	 -0.311663	 0.488280

	symmetry c1
}
set optking {
	frozen_dihedral = ("
		21 17 14 11,
		15 11 8 5,
		6 3 5 9,
		11 8 5 9,
		2 4 26 27,
		1 2 4 26,
		6 3 2 1
	")
}

ee = energy('scf')
oeprop('DIPOLE', 'QUADRUPOLE', 'MULLIKEN_CHARGES')
f=open( 'psi4out.xyz', 'w' )
f.write( "29  " )
f.write( str(ee) + "\n" )
f.write( MOL.save_string_xyz() )
f.close()
--------------------------------------------------------------------------

    Molecular point group: c1

    Geometry (in Angstrom), charge = 0, multiplicity = 1:

       Center              X                  Y                   Z               Mass
    ------------   -----------------  -----------------  -----------------  -----------------
           O          3.099303177304     0.624623422377    -0.948715331832    15.994914619560
           C          2.574513177304    -0.287846577623    -0.396398331832    12.000000000000
           C          1.118700177304    -0.359574577623    -0.003648331832    12.000000000000
           O          3.221227177304    -1.392117577623    -0.044295331832    15.994914619560
           C          0.328436177304     0.885668422377    -0.399840331832    12.000000000000
           H          0.711866177304    -1.259556577623    -0.452769331832     1.007825032070
           H          1.081534177304    -0.521064577623     1.070705668168     1.007825032070
           C         -1.125568822696     0.873753422377     0.084124668168    12.000000000000
           H          0.355855177304     0.999389422377    -1.479393331832     1.007825032070
           H          0.830614177304     1.757338422377     0.005660668168     1.007825032070
           C         -2.010113822696    -0.199847577623    -0.556243331832    12.000000000000
           H         -1.557882822696     1.849670422377    -0.124236331832     1.007825032070
           H         -1.146321822696     0.759984422377     1.167007668168     1.007825032070
           C         -3.474322822696    -0.100148577623    -0.123633331832    12.000000000000
           H         -1.948858822696    -0.114033577623    -1.640080331832     1.007825032070
           H         -1.637016822696    -1.190545577623    -0.306667331832     1.007825032070
           C         -3.675055822696     0.720785422377     1.151475668168    12.000000000000
           H         -3.873591822696    -1.101541577623     0.028131668168     1.007825032070
           H         -4.058700822696     0.340997422377    -0.929606331832     1.007825032070
           C         -5.139547822696     0.812258422377     1.578787668168    12.000000000000
           H         -3.090993822696     0.281915422377     1.957642668168     1.007825032070
           H         -3.280508822696     1.723406422377     1.000265668168     1.007825032070
           H         -5.249369822696     1.400021422377     2.484922668168     1.007825032070
           H         -5.553906822696    -0.173280577623     1.771699668168     1.007825032070
           H         -5.744888822696     1.278762422377     0.806640668168     1.007825032070
           C          4.601443177304    -1.454838577623    -0.354061331832    12.000000000000
           H          4.755342177304    -1.379696577623    -1.420913331832     1.007825032070
           H          4.941536177304    -2.413258577623     0.006181668168     1.007825032070
           H          5.138380177304    -0.657394577623     0.139211668168     1.007825032070

  Charge       = 0
  Multiplicity = 1
  Basis Set: 6-31G*
  Basis Set:

    Orbital Energies (a.u.)
    -----------------------

    Doubly Occupied:

       1A    -20.603123     2A    -20.544866     3A    -11.371648
       4A    -11.280501     5A    -11.234249     6A    -11.217935
       7A    -11.216084     8A    -11.214867     9A    -11.214247
      10A    -11.213278    11A    -11.207895    12A     -1.468793
      13A     -1.362212    14A     -1.100664    15A     -1.065842
      16A     -1.015319    17A     -0.976807    18A     -0.928632
      19A     -0.861369    20A     -0.825483    21A     -0.772084
      22A     -0.753128    23A     -0.700931    24A     -0.681968
      25A     -0.671725    26A     -0.651825    27A     -0.627188
      28A     -0.602328    29A     -0.596306    30A     -0.581681
      31A     -0.567726    32A     -0.554334    33A     -0.548356
      34A     -0.523554    35A     -0.517982    36A     -0.502844
      37A     -0.488831    38A     -0.486947    39A     -0.480111
      40A     -0.456738    41A     -0.451970    42A     -0.443540
      43A     -0.439486    44A     -0.436625

  @DF-RHF Final Energy:  -501.03173659686183

   => Energetics <=

    Nuclear Repulsion Energy =            619.1781236165971904
    One-Electron Energy =               -1909.4955546029329980
    Two-Electron Energy =                 789.2856943894754522
    DFT Exchange-Correlation Energy =       0.0000000000000000
    Empirical Dispersion Energy =           0.0000000000000000
    PCM Polarization Energy =               0.0000000000000000
    EFP Energy =                            0.0000000000000000
    Total Energy =                       -501.0317365968602417

  Mulliken Charges: (a.u.)
   Center  Symbol    Alpha    Beta     Spin     Total
       1     O     4.28608  4.28608  0.00000 -0.57216
       2     C     2.60461  2.60461  0.00000  0.79078
       3     C     3.20990  3.20990  0.00000 -0.41980
       4     O     4.30760  4.30760  0.00000 -0.61520
       5     C     3.15072  3.15072  0.00000 -0.30144
       6     H     0.39890  0.39890  0.00000  0.20219
       7     H     0.40165  0.40165  0.00000  0.19669
       8     C     3.16542  3.16542  0.00000 -0.33084
       9     H     0.41372  0.41372  0.00000  0.17256
      10     H     0.40934  0.40934  0.00000  0.18132
      11     C     3.15660  3.15660  0.00000 -0.31321
      12     H     0.41689  0.41689  0.00000  0.16621
      13     H     0.42014  0.42014  0.00000  0.15972
      14     C     3.15319  3.15319  0.00000 -0.30637
      15     H     0.41990  0.41990  0.00000  0.16020
      16     H     0.42196  0.42196  0.00000  0.15608
      17     C     3.15850  3.15850  0.00000 -0.31700
      18     H     0.42102  0.42102  0.00000  0.15796
      19     H     0.42160  0.42160  0.00000  0.15679
      20     C     3.23695  3.23695  0.00000 -0.47389
      21     H     0.42268  0.42268  0.00000  0.15465
      22     H     0.41905  0.41905  0.00000  0.16190
      23     H     0.41981  0.41981  0.00000  0.16038
      24     H     0.42246  0.42246  0.00000  0.15509
      25     H     0.42207  0.42207  0.00000  0.15587
      26     C     3.09240  3.09240  0.00000 -0.18479
      27     H     0.40910  0.40910  0.00000  0.18180
      28     H     0.40857  0.40857  0.00000  0.18286
      29     H     0.40916  0.40916  0.00000  0.18167

   Total alpha = 44.00000, Total beta = 44.00000, Total charge =  0.00000
