                              Psi4 1.0.54 Driver

  ==> Input File <==

--------------------------------------------------------------------------
set {
	reference rhf
	basis cc-pvtz
}

set_num_threads( 4 )
memory 2 gb

molecule MOL {
0 1

H	 2.462485	 -2.216993	 0.000000
O	 2.777472	 -1.330706	 0.000000
C	 1.763288	 -0.447523	 0.000000
C	 2.040204	 0.845217	 -0.421024
C	 0.487235	 -0.785039	 0.397654
H	 3.039191	 1.086395	 -0.726008
C	 1.041716	 1.791750	 -0.442164
H	 0.245530	 -1.774206	 0.726936
C	 -0.489931	 0.190027	 0.363585
H	 1.265001	 2.788259	 -0.769059
C	 -0.247838	 1.476770	 -0.047469
N	 -1.845767	 -0.176302	 0.788217
H	 -1.032822	 2.200923	 -0.058604
O	 -2.027681	 -1.294841	 1.138719
O	 -2.677464	 0.666267	 0.755746

	symmetry c1
}
set optking {
	frozen_dihedral = ("
		4 3 2 1
	")
}

ee,wfn = optimize('scf', return_wfn=True)
oeprop( wfn, 'DIPOLE', 'QUADRUPOLE', 'MULLIKEN_CHARGES')
f=open( 'psi4out.xyz', 'w' )
f.write( "15  " )
f.write( str(ee) + "\n" )
f.write( MOL.save_string_xyz() )
f.close()
--------------------------------------------------------------------------

    Molecular point group: c1
  Charge       = 0
  Multiplicity = 1
  Basis Set: CC-PVTZ
  Basis Set:
  @DF-RHF Final Energy:  -509.21851601952341
    Total Energy =                       -509.2185160195235767
    Molecular point group: c1
  Basis Set: CC-PVTZ
  Basis Set:
  Basis Set: CC-PVTZ
  Basis Set:
  @DF-RHF Final Energy:  -509.21850664280043
    Total Energy =                       -509.2185066428000937
  Basis Set: CC-PVTZ
  Basis Set:
  Basis Set: CC-PVTZ
  Basis Set:
  @DF-RHF Final Energy:  -509.21372138739815
    Total Energy =                       -509.2137213873982091
  Basis Set: CC-PVTZ
  Basis Set:
  Basis Set: CC-PVTZ
  Basis Set:
  @DF-RHF Final Energy:  -509.21819395647270
    Total Energy =                       -509.2181939564727600
  Basis Set: CC-PVTZ
  Basis Set:
  Basis Set: CC-PVTZ
  Basis Set:
  @DF-RHF Final Energy:  -509.21853333900350
    Total Energy =                       -509.2185333390031019
  Basis Set: CC-PVTZ
  Basis Set:
  Basis Set: CC-PVTZ
  Basis Set:
  @DF-RHF Final Energy:  -509.21853770460342
    Total Energy =                       -509.2185377046037047
  Basis Set: CC-PVTZ
  Basis Set:
  Charge       = 0
  Multiplicity = 1
  Basis Set: CC-PVTZ
  Basis Set:

    Orbital Energies (a.u.)
    -----------------------

    Doubly Occupied:

       1A    -20.606605     2A    -20.594975     3A    -20.594489
       4A    -15.850623     5A    -11.326632     6A    -11.308875
       7A    -11.263107     8A    -11.263038     9A    -11.259185
      10A    -11.256954    11A     -1.644289    12A     -1.438803
      13A     -1.426653    14A     -1.202591    15A     -1.095478
      16A     -1.047967    17A     -0.966641    18A     -0.880274
      19A     -0.832139    20A     -0.795560    21A     -0.754870
      22A     -0.743585    23A     -0.729450    24A     -0.709546
      25A     -0.677507    26A     -0.636987    27A     -0.626316
      28A     -0.590299    29A     -0.560025    30A     -0.546058
      31A     -0.519872    32A     -0.494893    33A     -0.493270
      34A     -0.460275    35A     -0.380154    36A     -0.347782

  @DF-RHF Final Energy:  -509.21853832738640

   => Energetics <=

    Nuclear Repulsion Energy =            504.6444608539047181
    One-Electron Energy =               -1695.8744657551046657
    Two-Electron Energy =                 682.0114665738128679
    DFT Exchange-Correlation Energy =       0.0000000000000000
    Empirical Dispersion Energy =           0.0000000000000000
    PCM Polarization Energy =               0.0000000000000000
    EFP Energy =                            0.0000000000000000
    Total Energy =                       -509.2185383273870229
    Molecular point group: c1
  Basis Set: CC-PVTZ
  Basis Set:

  -Total Gradient:
     Atom            X                  Y                   Z
    ------   -----------------  -----------------  -----------------
       1       -0.000019034858     0.000082363324    -0.001878643511
       2       -0.000130735603    -0.000178492337     0.001752444417
       3        0.000430919222     0.000365449870     0.001410281451
       4       -0.000325028796    -0.000251891060    -0.001280833341
       5        0.000064202117     0.000009556097    -0.000009928500
       6        0.000009695924    -0.000000094586     0.000003008516
       7        0.000075965856    -0.000017970264    -0.000015907776
       8       -0.000004971993     0.000003114502    -0.000010169734
       9       -0.000003502328     0.000049923766    -0.000025201159
      10        0.000000430200    -0.000002266136    -0.000005958924
      11       -0.000033257591    -0.000044103595     0.000024146277
      12        0.000119653767    -0.000027043549     0.000006971100
      13        0.000013047898    -0.000001063272     0.000002479444
      14       -0.000092969592     0.000066907999     0.000001193555
      15       -0.000104414236    -0.000054390757     0.000026118185

  **** Optimization is complete! (in 7 steps) ****
    Final optimized geometry and variables:
    Molecular point group: c1

    Geometry (in Angstrom), charge = 0, multiplicity = 1:

    H            2.401262255398    -2.270169054550    -0.373834447618
    O            2.728133805899    -1.388673011562    -0.344865215963
    C            1.723502121557    -0.491879593070    -0.310825003455
    C            2.011050807520     0.811197473012    -0.687664398350
    C            0.446936737394    -0.830319399698     0.085261057002
    H            3.008854477971     1.051073229602    -0.997501467775
    C            1.025020089587     1.771566859959    -0.657038262147
    H            0.199718535294    -1.827611786539     0.383950543187
    C           -0.519599140375     0.155215657958     0.094885376417
    H            1.256875266617     2.777199242665    -0.947991122957
    C           -0.264260909018     1.455488739221    -0.264585001843
    N           -1.877148119686    -0.212035780632     0.512985731671
    H           -1.040846114774     2.188351291555    -0.240338008054
    O           -2.074406318241    -1.344800745768     0.804181665662
    O           -2.695464203062     0.644063288704     0.534059103809

  Mulliken Charges: (a.u.)
   Center  Symbol    Alpha    Beta     Spin     Total
       1     H     0.38319  0.38319  0.00000  0.23361
       2     O     4.17151  4.17151  0.00000 -0.34302
       3     C     2.84830  2.84830  0.00000  0.30341
       4     C     3.09715  3.09715  0.00000 -0.19429
       5     C     3.13054  3.13054  0.00000 -0.26108
       6     H     0.41257  0.41257  0.00000  0.17486
       7     C     3.05754  3.05754  0.00000 -0.11507
       8     H     0.40518  0.40518  0.00000  0.18964
       9     C     2.98228  2.98228  0.00000  0.03545
      10     H     0.41587  0.41587  0.00000  0.16826
      11     C     3.09419  3.09419  0.00000 -0.18837
      12     N     3.24934  3.24934  0.00000  0.50131
      13     H     0.39941  0.39941  0.00000  0.20118
      14     O     4.17821  4.17821  0.00000 -0.35641
      15     O     4.17473  4.17473  0.00000 -0.34945

   Total alpha = 36.00000, Total beta = 36.00000, Total charge =  0.00000

*** Psi4 exiting successfully. Buy a developer a beer!
