  ==> Input File <==

--------------------------------------------------------------------------
set {
	reference rhf
	basis cc-pvtz
}

set_num_threads( 4 )
memory 2 gb

molecule MOL {
0 1

H	 -3.642953	 0.223825	 0.000000
C	 -2.571844	 0.155001	 0.000000
C	 -1.957580	 -1.086132	 0.000000
C	 -1.807160	 1.303787	 0.000000
H	 -2.551493	 -1.979629	 0.000000
C	 -0.582719	 -1.174294	 0.000000
H	 -2.279934	 2.266806	 0.000000
C	 -0.427220	 1.213406	 0.000000
H	 -0.094904	 -2.127556	 0.000000
C	 0.196908	 -0.024061	 0.000000
H	 0.151409	 2.115254	 0.000000
C	 1.690041	 -0.173233	 0.000000
C	 2.336403	 -1.091219	 1.012017
O	 2.356597	 0.422265	 -0.785141
H	 2.107747	 -0.771038	 2.021561
H	 3.403889	 -1.070595	 0.861092
H	 1.974393	 -2.105841	 0.895953

	symmetry c1
}
set optking {
	frozen_dihedral = ("
		13 12 10 8
	")
}

ee = optimize('scf')
oeprop('DIPOLE', 'QUADRUPOLE', 'MULLIKEN_CHARGES')
f=open( 'psi4out.xyz', 'w' )
f.write( "17  " )
f.write( str(ee) + "\n" )
f.write( MOL.save_string_xyz() )
f.close()
--------------------------------------------------------------------------

    Molecular point group: c1
  Charge       = 0
  Multiplicity = 1
  Basis Set: CC-PVTZ
  Basis Set:
  @DF-RHF Final Energy:  -382.59989700714027
    Total Energy =                       -382.5998970071404983
    Molecular point group: c1
  Basis Set: CC-PVTZ
  Basis Set:
  Basis Set: CC-PVTZ
  Basis Set:
  @DF-RHF Final Energy:  -382.59950203523942
    Total Energy =                       -382.5995020352395386
  Basis Set: CC-PVTZ
  Basis Set:
  Basis Set: CC-PVTZ
  Basis Set:
  @DF-RHF Final Energy:  -382.60079165402533
    Total Energy =                       -382.6007916540258975
  Basis Set: CC-PVTZ
  Basis Set:
  Basis Set: CC-PVTZ
  Basis Set:
  @DF-RHF Final Energy:  -382.60146822721788
    Total Energy =                       -382.6014682272173104
  Basis Set: CC-PVTZ
  Basis Set:
  Basis Set: CC-PVTZ
  Basis Set:
  @DF-RHF Final Energy:  -382.60147842211916
    Total Energy =                       -382.6014784221192713
  Basis Set: CC-PVTZ
  Basis Set:
  Basis Set: CC-PVTZ
  Basis Set:
  @DF-RHF Final Energy:  -382.60148230627624
    Total Energy =                       -382.6014823062763526
  Basis Set: CC-PVTZ
  Basis Set:
  Basis Set: CC-PVTZ
  Basis Set:
  @DF-RHF Final Energy:  -382.60148345432196
    Total Energy =                       -382.6014834543223060
  Basis Set: CC-PVTZ
  Basis Set:
  Charge       = 0
  Multiplicity = 1
  Basis Set: CC-PVTZ
  Basis Set:

    Orbital Energies (a.u.)
    -----------------------

    Doubly Occupied:

       1A    -20.543877     2A    -11.328974     3A    -11.245607
       4A    -11.244347     5A    -11.241479     6A    -11.240342
       7A    -11.239409     8A    -11.237826     9A    -11.230290
      10A     -1.404409    11A     -1.171500    12A     -1.053923
      13A     -1.030594    14A     -1.000156    15A     -0.863824
      16A     -0.840701    17A     -0.764709    18A     -0.709513
      19A     -0.662976    20A     -0.650961    21A     -0.627717
      22A     -0.621488    23A     -0.603479    24A     -0.592786
      25A     -0.560985    26A     -0.529929    27A     -0.518551
      28A     -0.506721    29A     -0.496483    30A     -0.414191
      31A     -0.349678    32A     -0.347369

  @DF-RHF Final Energy:  -382.60148377529077

   => Energetics <=

    Nuclear Repulsion Energy =            404.1292198592319096
    One-Electron Energy =               -1319.7118193601295388
    Two-Electron Energy =                 532.9811157256069691
    DFT Exchange-Correlation Energy =       0.0000000000000000
    Empirical Dispersion Energy =           0.0000000000000000
    PCM Polarization Energy =               0.0000000000000000
    EFP Energy =                            0.0000000000000000
    Total Energy =                       -382.6014837752907169
    Molecular point group: c1
  Basis Set: CC-PVTZ
  Basis Set:

  -Total Gradient:
     Atom            X                  Y                   Z
    ------   -----------------  -----------------  -----------------
       1        0.000001187200     0.000006195734     0.000000919128
       2       -0.000016138740    -0.000098394169    -0.000018640394
       3       -0.000080383351     0.000050534604     0.000023131147
       4        0.000098916101     0.000035863405    -0.000000167858
       5        0.000003794224    -0.000003091539    -0.000001915745
       6        0.000085297195     0.000038027485     0.000026536540
       7       -0.000005361876    -0.000000814896     0.000003655581
       8       -0.000121491109    -0.000005105540     0.003630731329
       9       -0.000005691338    -0.000007254926     0.000017975300
      10        0.000092210162     0.001167830485    -0.004304664782
      11        0.000005344327    -0.000000577050     0.000012476586
      12       -0.000156046558    -0.003645106546    -0.001525654625
      13        0.000101470746     0.002475798638     0.002145456061
      14       -0.000003450664    -0.000009183916    -0.000002799716
      15       -0.000004826945    -0.000003803764     0.000001221730
      16        0.000000879970    -0.000000004226    -0.000005268506
      17        0.000004290665    -0.000000913774    -0.000002991777

  **** Optimization is complete! (in 8 steps) ****
    Final optimized geometry and variables:
    Molecular point group: c1

    Geometry (in Angstrom), charge = 0, multiplicity = 1:

    H           -3.631536207061     0.305117597744    -0.003982216871
    C           -2.562388083191     0.213295920909    -0.018016754640
    C           -1.976227006557    -1.037233958589    -0.030695353516
    C           -1.769889239821     1.346995103922    -0.021142725272
    H           -2.587636728289    -1.918985364987    -0.031758296645
    C           -0.598997807331    -1.155153515090    -0.033496420393
    H           -2.222638113017     2.319671263792    -0.005196593283
    C           -0.395261753093     1.229306904102    -0.049951328661
    H           -0.155573008187    -2.132166318465    -0.032816772095
    C            0.199089159915    -0.023446502072    -0.062021401890
    H            0.224850469917     2.103689570021    -0.071399355029
    C            1.699476538870    -0.102795253574    -0.047100904181
    C            2.346377809921    -1.012657399386     0.970210328984
    O            2.349507510769     0.596327991832    -0.754010982919
    H            2.060308526173    -0.689997953874     1.964920881751
    H            3.418912436980    -0.964626870303     0.862117524957
    H            2.013866857505    -2.037065350696     0.857336314400

  Mulliken Charges: (a.u.)
   Center  Symbol    Alpha    Beta     Spin     Total
       1     H     0.42088  0.42088  0.00000  0.15824
       2     C     3.07958  3.07958  0.00000 -0.15917
       3     C     3.06882  3.06882  0.00000 -0.13765
       4     C     3.06763  3.06763  0.00000 -0.13525
       5     H     0.42170  0.42170  0.00000  0.15659
       6     C     3.09331  3.09331  0.00000 -0.18663
       7     H     0.42096  0.42096  0.00000  0.15808
       8     C     3.08781  3.08781  0.00000 -0.17561
       9     H     0.42343  0.42343  0.00000  0.15314
      10     C     2.97494  2.97494  0.00000  0.05012
      11     H     0.41351  0.41351  0.00000  0.17299
      12     C     2.86839  2.86839  0.00000  0.26322
      13     C     3.15369  3.15369  0.00000 -0.30737
      14     O     4.17266  4.17266  0.00000 -0.34531
      15     H     0.44592  0.44592  0.00000  0.10816
      16     H     0.43538  0.43538  0.00000  0.12924
      17     H     0.45140  0.45140  0.00000  0.09720

   Total alpha = 32.00000, Total beta = 32.00000, Total charge =  0.00000
