  ==> Input File <==

--------------------------------------------------------------------------
set {
	reference rhf
	basis 6-31G*
}

set_num_threads( 4 )
memory 2 gb

molecule MOL {
0 1

H	 2.300715	 2.256207	 -0.492317
O	 3.070584	 1.878450	 -0.891908
C	 3.415453	 0.690507	 -0.225641
C	 2.464713	 -0.463616	 -0.523670
H	 4.411931	 0.440518	 -0.566536
H	 3.474503	 0.859640	 0.848923
C	 1.032123	 -0.231276	 -0.037283
H	 2.461926	 -0.639925	 -1.596178
H	 2.864400	 -1.361657	 -0.055546
C	 0.115918	 -1.429151	 -0.302766
H	 0.627520	 0.650412	 -0.526455
H	 1.042619	 -0.019750	 1.032057
C	 -1.309753	 -1.282496	 0.241564
H	 0.074463	 -1.617646	 -1.374026
H	 0.565263	 -2.314038	 0.143065
C	 -2.037799	 -0.007733	 -0.193645
H	 -1.890610	 -2.142323	 -0.085726
H	 -1.285946	 -1.330893	 1.329189
C	 -3.489788	 0.042957	 0.286558
H	 -2.017067	 0.064384	 -1.280144
H	 -1.513726	 0.868678	 0.179924
C	 -4.216917	 1.317354	 -0.141063
H	 -4.025645	 -0.823308	 -0.095450
H	 -3.513059	 -0.038752	 1.371301
H	 -4.239342	 1.411634	 -1.223113
H	 -5.243387	 1.322503	 0.212445
H	 -3.726170	 2.201406	 0.256408

	symmetry c1
}
set optking {
	frozen_dihedral = ("
		14 10 13 16
	")
}

ee = optimize('scf')
oeprop('DIPOLE', 'QUADRUPOLE', 'MULLIKEN_CHARGES')
f=open( 'psi4out.xyz', 'w' )
f.write( "27  " )
f.write( str(ee) + "\n" )
f.write( MOL.save_string_xyz() )
f.close()
--------------------------------------------------------------------------

    Molecular point group: c1
  Charge       = 0
  Multiplicity = 1
  Basis Set: 6-31G*
  Basis Set:
  @DF-RHF Final Energy:  -388.28101737744595
    Total Energy =                       -388.2810173774455507
    Molecular point group: c1
  Basis Set: 6-31G*
  Basis Set:
  Basis Set: 6-31G*
  Basis Set:
  @DF-RHF Final Energy:  -388.28088564910814
    Total Energy =                       -388.2808856491081997
  Basis Set: 6-31G*
  Basis Set:
  Basis Set: 6-31G*
  Basis Set:
  @DF-RHF Final Energy:  -388.28117552471059
    Total Energy =                       -388.2811755247109886
  Basis Set: 6-31G*
  Basis Set:
  Basis Set: 6-31G*
  Basis Set:
  @DF-RHF Final Energy:  -388.28118486323046
    Total Energy =                       -388.2811848632304645
  Basis Set: 6-31G*
  Basis Set:
  Basis Set: 6-31G*
  Basis Set:
  @DF-RHF Final Energy:  -388.28118805479494
    Total Energy =                       -388.2811880547949386
  Basis Set: 6-31G*
  Basis Set:
  Basis Set: 6-31G*
  Basis Set:
  @DF-RHF Final Energy:  -388.28119125708270
    Total Energy =                       -388.2811912570823552
  Basis Set: 6-31G*
  Basis Set:
  Charge       = 0
  Multiplicity = 1
  Basis Set: 6-31G*
  Basis Set:

    Orbital Energies (a.u.)
    -----------------------

    Doubly Occupied:

       1A    -20.552310     2A    -11.267089     3A    -11.220053
       4A    -11.217341     5A    -11.216252     6A    -11.215853
       7A    -11.215296     8A    -11.214521     9A    -11.209595
      10A     -1.359078    11A     -1.095361    12A     -1.061539
      13A     -1.011506    14A     -0.948330    15A     -0.889327
      16A     -0.820031    17A     -0.803929    18A     -0.775064
      19A     -0.693574    20A     -0.654481    21A     -0.635905
      22A     -0.614717    23A     -0.600495    24A     -0.584288
      25A     -0.579259    26A     -0.552662    27A     -0.539878
      28A     -0.533524    29A     -0.505502    30A     -0.494836
      31A     -0.486105    32A     -0.474357    33A     -0.468230
      34A     -0.459067    35A     -0.452918    36A     -0.441732
      37A     -0.423305

  @DF-RHF Final Energy:  -388.28119094203049

   => Energetics <=

    Nuclear Repulsion Energy =            460.6504035321178776
    One-Electron Energy =               -1439.2885682439614357
    Two-Electron Energy =                 590.3569737698124982
    DFT Exchange-Correlation Energy =       0.0000000000000000
    Empirical Dispersion Energy =           0.0000000000000000
    PCM Polarization Energy =               0.0000000000000000
    EFP Energy =                            0.0000000000000000
    Total Energy =                       -388.2811909420310030
    Molecular point group: c1
  Basis Set: 6-31G*
  Basis Set:

  -Total Gradient:
     Atom            X                  Y                   Z
    ------   -----------------  -----------------  -----------------
       1       -0.000010799985    -0.000002449539     0.000002009331
       2       -0.000005057853     0.000004293535    -0.000000056492
       3        0.000002500829    -0.000005693818    -0.000022812423
       4        0.000006987183     0.000021778228     0.000002777969
       5        0.000001293784    -0.000001294349    -0.000000792419
       6       -0.000002788450    -0.000005112973    -0.000001252070
       7        0.000038800892     0.000006377717     0.000044459650
       8        0.000004476212    -0.000010367658    -0.000002840295
       9        0.000002888160     0.000008259322     0.000008422011
      10        0.000381156112     0.003584741246     0.000055577729
      11        0.000010917759     0.000004853943     0.000012031174
      12        0.000016530710     0.000007111575     0.000019349052
      13       -0.001048246158    -0.001987289066    -0.002164898321
      14       -0.000084713420    -0.002599744193     0.000473551096
      15       -0.000025901128     0.000012177060    -0.000008603472
      16        0.000707895013     0.000953700595     0.001566615701
      17       -0.000015193202    -0.000026505729     0.000023787581
      18        0.000017113845     0.000024417659    -0.000022431220
      19        0.000008624891     0.000009515852     0.000016829011
      20        0.000007978713     0.000008450230    -0.000000122527
      21       -0.000012198348     0.000000568115     0.000007804980
      22       -0.000006372605    -0.000010286040    -0.000017433194
      23        0.000005349149    -0.000004960649     0.000009453732
      24       -0.000000242024     0.000010448526     0.000003603555
      25        0.000002248948     0.000006336406    -0.000003225309
      26       -0.000001759553    -0.000003523543    -0.000006837112
      27       -0.000001489472    -0.000005802452     0.000005032281

  **** Optimization is complete! (in 7 steps) ****
    Final optimized geometry and variables:
    Molecular point group: c1

    Geometry (in Angstrom), charge = 0, multiplicity = 1:

    H            2.425381919814     2.142884878305    -0.330794927453
    O            3.195173375844     1.743949072112    -0.709398512721
    C            3.510181554572     0.566125834213    -0.011237592695
    C            2.545748910168    -0.579344821033    -0.298504169232
    H            4.507557344175     0.292754374605    -0.330832265296
    H            3.555548046054     0.758518571465     1.060083872653
    C            1.110230507308    -0.314316493416     0.161737179257
    H            2.555354671288    -0.778355855303    -1.367020049534
    H            2.924514996530    -1.473214226065     0.194168115151
    C            0.177102242947    -1.496238647738    -0.110488423211
    H            0.731361051726     0.570121606092    -0.342356828397
    H            1.107197063873    -0.092671323461     1.229279107329
    C           -1.244553027624    -1.355866755143     0.448502459260
    H            0.127971938756    -1.688104879983    -1.180874265355
    H            0.618678803950    -2.391756814657     0.322948542912
    C           -1.993203938488    -0.089700674485     0.023368336997
    H           -1.818526486370    -2.228513180414     0.144892424780
    H           -1.201794217402    -1.386671789785     1.536316413538
    C           -3.450371307372    -0.076453202252     0.490260881287
    H           -1.964229680009     0.003838194884    -1.061714325869
    H           -1.489832343323     0.788735321984     0.419068184954
    C           -4.197241928977     1.193332110003     0.083536175789
    H           -3.966261323316    -0.943836118302     0.084235851102
    H           -3.482174538514    -0.182466802393     1.572737818377
    H           -4.209803558313     1.311944744640    -0.996280244241
    H           -5.227383989572     1.170842951715     0.425457786303
    H           -3.728018775101     2.077217039404     0.506597931008

  Mulliken Charges: (a.u.)
   Center  Symbol    Alpha    Beta     Spin     Total
       1     H     0.27992  0.27992  0.00000  0.44017
       2     O     4.37091  4.37091  0.00000 -0.74183
       3     C     2.99735  2.99735  0.00000  0.00529
       4     C     3.16105  3.16105  0.00000 -0.32209
       5     H     0.41441  0.41441  0.00000  0.17119
       6     H     0.43209  0.43209  0.00000  0.13582
       7     C     3.16383  3.16383  0.00000 -0.32767
       8     H     0.41491  0.41491  0.00000  0.17018
       9     H     0.42423  0.42423  0.00000  0.15154
      10     C     3.15188  3.15188  0.00000 -0.30377
      11     H     0.42239  0.42239  0.00000  0.15521
      12     H     0.42534  0.42534  0.00000  0.14931
      13     C     3.15269  3.15269  0.00000 -0.30538
      14     H     0.42145  0.42145  0.00000  0.15711
      15     H     0.42194  0.42194  0.00000  0.15612
      16     C     3.15323  3.15323  0.00000 -0.30645
      17     H     0.42104  0.42104  0.00000  0.15793
      18     H     0.42438  0.42438  0.00000  0.15125
      19     C     3.15124  3.15124  0.00000 -0.30247
      20     H     0.42383  0.42383  0.00000  0.15233
      21     H     0.42372  0.42372  0.00000  0.15256
      22     C     3.23916  3.23916  0.00000 -0.47832
      23     H     0.42272  0.42272  0.00000  0.15455
      24     H     0.42324  0.42324  0.00000  0.15352
      25     H     0.42146  0.42146  0.00000  0.15707
      26     H     0.41914  0.41914  0.00000  0.16173
      27     H     0.42245  0.42245  0.00000  0.15510

   Total alpha = 37.00000, Total beta = 37.00000, Total charge =  0.00000
