  ==> Input File <==

--------------------------------------------------------------------------
set {
	reference rhf
	basis 6-31G*
}

set_num_threads( 4 )
memory 2 gb

molecule MOL {
0 1

H	 3.041212	 1.556110	 -1.294904
N	 2.280329	 0.905231	 -1.325851
C	 1.865559	 0.531981	 0.018834
H	 2.607136	 0.101681	 -1.828180
C	 0.645745	 -0.382037	 -0.029944
H	 1.609340	 1.443781	 0.549712
H	 2.658796	 0.047473	 0.593660
C	 -0.679275	 0.379305	 0.025956
H	 0.698998	 -0.976915	 -0.937203
H	 0.693479	 -1.083846	 0.802235
C	 -1.903357	 -0.536963	 -0.023547
H	 -0.726309	 1.082987	 -0.803784
H	 -0.717680	 0.977832	 0.934877
C	 -3.225172	 0.228290	 0.028445
H	 -1.867824	 -1.134999	 -0.931459
H	 -1.860449	 -1.239604	 0.805977
H	 -3.313397	 0.915643	 -0.808262
H	 -4.073500	 -0.448134	 -0.008893
H	 -3.306061	 0.809945	 0.942516

	symmetry c1
}
set optking {
	frozen_dihedral = ("
		6 3 5 9
	")
}

ee = optimize('scf')
oeprop('DIPOLE', 'QUADRUPOLE', 'MULLIKEN_CHARGES')
f=open( 'psi4out.xyz', 'w' )
f.write( "19  " )
f.write( str(ee) + "\n" )
f.write( MOL.save_string_xyz() )
f.close()
--------------------------------------------------------------------------

    Molecular point group: c1
  Charge       = 0
  Multiplicity = 1
  Basis Set: 6-31G*
  Basis Set:
  @DF-RHF Final Energy:  -251.34845645786217
    Total Energy =                       -251.3484564578622553
    Molecular point group: c1
  Basis Set: 6-31G*
  Basis Set:
  Basis Set: 6-31G*
  Basis Set:
  @DF-RHF Final Energy:  -251.34899107998186
    Total Energy =                       -251.3489910799819995
  Basis Set: 6-31G*
  Basis Set:
  Basis Set: 6-31G*
  Basis Set:
  @DF-RHF Final Energy:  -251.34909709756286
    Total Energy =                       -251.3490970975627192
  Basis Set: 6-31G*
  Basis Set:
  Basis Set: 6-31G*
  Basis Set:
  @DF-RHF Final Energy:  -251.34909857524306
    Total Energy =                       -251.3490985752432039
  Basis Set: 6-31G*
  Basis Set:
  Basis Set: 6-31G*
  Basis Set:
  @DF-RHF Final Energy:  -251.34910118844454
    Total Energy =                       -251.3491011884444220
  Basis Set: 6-31G*
  Basis Set:
  Charge       = 0
  Multiplicity = 1
  Basis Set: 6-31G*
  Basis Set:

    Orbital Energies (a.u.)
    -----------------------

    Doubly Occupied:

       1A    -15.533149     2A    -11.240292     3A    -11.209558
       4A    -11.209515     5A    -11.205172     6A    -11.203819
       7A     -1.176480     8A     -1.067494     9A     -0.994588
      10A     -0.898852    11A     -0.812014    12A     -0.784236
      13A     -0.662150    14A     -0.642182    15A     -0.614129
      16A     -0.585799    17A     -0.557169    18A     -0.544280
      19A     -0.534684    20A     -0.487558    21A     -0.484885
      22A     -0.458121    23A     -0.457851    24A     -0.450356
      25A     -0.379279

  @DF-RHF Final Energy:  -251.34910146747748

   => Energetics <=

    Nuclear Repulsion Energy =            248.1928540916347004
    One-Electron Energy =                -830.6966823258267141
    Two-Electron Energy =                 331.1547267667147025
    DFT Exchange-Correlation Energy =       0.0000000000000000
    Empirical Dispersion Energy =           0.0000000000000000
    PCM Polarization Energy =               0.0000000000000000
    EFP Energy =                            0.0000000000000000
    Total Energy =                       -251.3491014674773396
    Molecular point group: c1
  Basis Set: 6-31G*
  Basis Set:

  -Total Gradient:
     Atom            X                  Y                   Z
    ------   -----------------  -----------------  -----------------
       1       -0.000002791583    -0.000004219606    -0.000004203596
       2        0.000034505214    -0.000005438511    -0.000014154674
       3        0.001169585947    -0.001514114307     0.004183786179
       4        0.000000571881     0.000007301647     0.000008459666
       5        0.002551398959    -0.003316517848     0.001658380820
       6       -0.001409782298     0.001763552271    -0.003783951154
       7       -0.000008161817    -0.000000060620    -0.000002666405
       8       -0.000007303392     0.000018126101     0.000028316492
       9       -0.002325941341     0.003057145326    -0.002083295175
      10        0.000011600669     0.000001240930     0.000014258133
      11       -0.000004772291    -0.000005920501    -0.000002465663
      12        0.000003360678     0.000015040344     0.000009018934
      13       -0.000003262807    -0.000015001855    -0.000000956795
      14       -0.000004374138    -0.000003513573    -0.000010745707
      15       -0.000006885451    -0.000010069054     0.000002083901
      16        0.000003450893     0.000008556730    -0.000001392740
      17       -0.000001740580     0.000005032035     0.000000282017
      18        0.000000549281     0.000001941341    -0.000003072529
      19       -0.000000007822    -0.000003080848     0.000002318297

  **** Optimization is complete! (in 6 steps) ****
    Final optimized geometry and variables:
    Molecular point group: c1

    Geometry (in Angstrom), charge = 0, multiplicity = 1:

    H            3.058593342558     1.405744661308    -1.138603127666
    N            2.342158659146     0.705705821607    -1.119469989825
    C            2.025741892996     0.323980595399     0.253055973715
    H            2.691733900948    -0.081644184510    -1.631865173359
    C            0.801714533639    -0.599217547283     0.274839643896
    H            1.793034042505     1.245793215535     0.776425829648
    H            2.864721481107    -0.145633267210     0.768122641628
    C           -0.520414702873     0.172334725631     0.294283727989
    H            0.815905603800    -1.212873414857    -0.623284604649
    H            0.850019827666    -1.268904800171     1.129801162980
    C           -1.750036948261    -0.730430125842     0.185924972941
    H           -0.518725448684     0.886637475524    -0.524886124957
    H           -0.583371999815     0.753320377224     1.213464149199
    C           -3.065785242754     0.046457135651     0.221084376022
    H           -1.695174915751    -1.303224887580    -0.737480274651
    H           -1.738872228108    -1.456998692736     0.996259168267
    H           -3.120606221628     0.759738884627    -0.596399686701
    H           -3.919505036945    -0.619227049861     0.137409591574
    H           -3.168905913271     0.601136208543     1.149605396102

  Mulliken Charges: (a.u.)
   Center  Symbol    Alpha    Beta     Spin     Total
       1     H     0.33258  0.33258  0.00000  0.33484
       2     N     3.92190  3.92190  0.00000 -0.84379
       3     C     3.06787  3.06787  0.00000 -0.13575
       4     H     0.33517  0.33517  0.00000  0.32965
       5     C     3.15034  3.15034  0.00000 -0.30068
       6     H     0.41940  0.41940  0.00000  0.16120
       7     H     0.43061  0.43061  0.00000  0.13879
       8     C     3.15389  3.15389  0.00000 -0.30778
       9     H     0.42308  0.42308  0.00000  0.15385
      10     H     0.42361  0.42361  0.00000  0.15279
      11     C     3.15169  3.15169  0.00000 -0.30338
      12     H     0.41109  0.41109  0.00000  0.17782
      13     H     0.42703  0.42703  0.00000  0.14593
      14     C     3.23893  3.23893  0.00000 -0.47787
      15     H     0.42323  0.42323  0.00000  0.15355
      16     H     0.42522  0.42522  0.00000  0.14955
      17     H     0.42105  0.42105  0.00000  0.15789
      18     H     0.42060  0.42060  0.00000  0.15880
      19     H     0.42270  0.42270  0.00000  0.15459

   Total alpha = 25.00000, Total beta = 25.00000, Total charge = -0.00000
