                              Psi4 1.0.54 Driver

  ==> Input File <==

--------------------------------------------------------------------------
set {
	reference rhf
	basis cc-pvtz
}

set_num_threads( 4 )
memory 2 gb

molecule MOL {
0 1

H	 2.614283	 2.028610	 0.296620
O	 3.358864	 1.662087	 -0.142800
C	 3.565468	 0.338079	 0.273842
C	 2.310491	 -0.519811	 0.212641
H	 4.314186	 -0.067962	 -0.392890
H	 3.983481	 0.317258	 1.278472
C	 1.210204	 -0.091655	 1.181092
H	 1.929779	 -0.502868	 -0.804182
H	 2.597224	 -1.546906	 0.425383
C	 -0.020206	 -0.995272	 1.114717
H	 0.919638	 0.930886	 0.964335
H	 1.602234	 -0.097065	 2.196754
C	 -1.125453	 -0.656819	 2.116782
H	 -0.428692	 -0.968590	 0.107417
H	 0.295356	 -2.020846	 1.285273
C	 -1.827065	 0.679161	 1.878790
H	 -1.869283	 -1.448127	 2.083976
H	 -0.713711	 -0.672404	 3.123450
C	 -2.985559	 0.925354	 2.841957
H	 -2.199009	 0.710971	 0.856971
H	 -1.116969	 1.495565	 1.969624
C	 -3.685905	 2.260041	 2.609537
H	 -3.707720	 0.118986	 2.747975
H	 -2.617167	 0.885485	 3.863603
H	 -4.093939	 2.318336	 1.605871
H	 -4.503481	 2.401676	 3.307115
H	 -2.998280	 3.090167	 2.733696

	symmetry c1
}
set optking {
	frozen_dihedral = ("
		4 3 2 1
	")
}

ee,wfn = optimize('scf', return_wfn=True)
oeprop( wfn, 'DIPOLE', 'QUADRUPOLE', 'MULLIKEN_CHARGES')
f=open( 'psi4out.xyz', 'w' )
f.write( "27  " )
f.write( str(ee) + "\n" )
f.write( MOL.save_string_xyz() )
f.close()
--------------------------------------------------------------------------

    Molecular point group: c1
  Charge       = 0
  Multiplicity = 1
  Basis Set: CC-PVTZ
  Basis Set:
  @DF-RHF Final Energy:  -388.42718336418704
    Total Energy =                       -388.4271833641869307
    Molecular point group: c1
  Basis Set: CC-PVTZ
  Basis Set:
  Basis Set: CC-PVTZ
  Basis Set:
  @DF-RHF Final Energy:  -388.42720200107857
    Total Energy =                       -388.4272020010789674
  Basis Set: CC-PVTZ
  Basis Set:
  Basis Set: CC-PVTZ
  Basis Set:
  @DF-RHF Final Energy:  -388.42723476852939
    Total Energy =                       -388.4272347685295017
  Basis Set: CC-PVTZ
  Basis Set:
  Basis Set: CC-PVTZ
  Basis Set:
  @DF-RHF Final Energy:  -388.42723577087884
    Total Energy =                       -388.4272357708784966
  Basis Set: CC-PVTZ
  Basis Set:
  Charge       = 0
  Multiplicity = 1
  Basis Set: CC-PVTZ
  Basis Set:

    Orbital Energies (a.u.)
    -----------------------

    Doubly Occupied:

       1A    -20.543972     2A    -11.264365     3A    -11.220452
       4A    -11.216999     5A    -11.216378     6A    -11.215012
       7A    -11.214856     8A    -11.213434     9A    -11.208147
      10A     -1.362412    11A     -1.098275    12A     -1.064251
      13A     -1.013666    14A     -0.950613    15A     -0.890518
      16A     -0.823194    17A     -0.804264    18A     -0.780474
      19A     -0.687111    20A     -0.655717    21A     -0.643866
      22A     -0.615690    23A     -0.607530    24A     -0.584572
      25A     -0.580560    26A     -0.558753    27A     -0.541160
      28A     -0.532781    29A     -0.505921    30A     -0.498814
      31A     -0.487345    32A     -0.477507    33A     -0.469408
      34A     -0.462714    35A     -0.451866    36A     -0.440960
      37A     -0.429478

  @DF-RHF Final Energy:  -388.42723625768701

   => Energetics <=

    Nuclear Repulsion Energy =            460.1464703804211922
    One-Electron Energy =               -1438.4813507587016375
    Two-Electron Energy =                 589.9076441205932042
    DFT Exchange-Correlation Energy =       0.0000000000000000
    Empirical Dispersion Energy =           0.0000000000000000
    PCM Polarization Energy =               0.0000000000000000
    EFP Energy =                            0.0000000000000000
    Total Energy =                       -388.4272362576872411
    Molecular point group: c1
  Basis Set: CC-PVTZ
  Basis Set:

  -Total Gradient:
     Atom            X                  Y                   Z
    ------   -----------------  -----------------  -----------------
       1       -0.000957134467    -0.000514097807    -0.001191382410
       2        0.001053246231     0.000761394542     0.001863695072
       3        0.000131132756    -0.000530506795    -0.001589998374
       4       -0.000242631192     0.000308110942     0.000924991196
       5       -0.000011692528    -0.000003211891    -0.000002290762
       6        0.000012519730    -0.000012688217     0.000001724061
       7        0.000001480530    -0.000001803452    -0.000007259814
       8       -0.000007226256    -0.000001014751    -0.000001560502
       9        0.000000310660    -0.000000854473     0.000006399322
      10        0.000015300614    -0.000020188651     0.000020052862
      11        0.000011541031     0.000006832998    -0.000018251414
      12       -0.000007877681     0.000007906751     0.000010212191
      13       -0.000008164233    -0.000010758314    -0.000006942934
      14       -0.000001280031     0.000027739568     0.000009243299
      15       -0.000013428447    -0.000016447939    -0.000018631658
      16        0.000002208677    -0.000010301894    -0.000013751027
      17        0.000001055640    -0.000012349667     0.000013581587
      18        0.000007436338     0.000015998471    -0.000006142863
      19       -0.000001983938    -0.000004814699     0.000002301896
      20        0.000007309590    -0.000000737931    -0.000000323523
      21        0.000009184229     0.000009545715     0.000000481442
      22        0.000001196927     0.000001549080     0.000000936615
      23       -0.000000507161    -0.000000305281    -0.000000277260
      24       -0.000001196902     0.000000218550     0.000002882879
      25        0.000000380756    -0.000000611672    -0.000000487404
      26       -0.000001057950     0.000000398263     0.000000748307
      27       -0.000000122907     0.000000998547     0.000000049212

  **** Optimization is complete! (in 5 steps) ****
    Final optimized geometry and variables:
    Molecular point group: c1

    Geometry (in Angstrom), charge = 0, multiplicity = 1:

    H            2.513286260816     1.609480847591    -1.058300971803
    O            3.257550385661     1.226250404831    -1.483446567430
    C            3.437150129224    -0.096400376111    -1.052658886184
    C            2.175673880015    -0.944527487801    -1.119386444748
    H            4.194094802157    -0.517183263112    -1.700357185853
    H            3.834394799420    -0.110021194691    -0.038992942589
    C            1.072016963936    -0.514103340503    -0.154433932851
    H            1.798890258163    -0.931250393994    -2.138036477747
    H            2.455667182129    -1.971857733786    -0.901531768993
    C           -0.153449288986    -1.424850970359    -0.217590721756
    H            0.769610384900     0.505824323709    -0.372003338172
    H            1.463878933623    -0.510482617464     0.860481673840
    C           -1.255688374030    -1.096177103559     0.790945806236
    H           -0.566919399747    -1.398339017361    -1.222810501861
    H            0.170002995074    -2.448523561270    -0.051354730402
    C           -1.963535308283     0.238362334801     0.563754744884
    H           -1.996393633280    -1.890201055194     0.756539859665
    H           -0.839655102170    -1.115938756279     1.795630414535
    C           -3.121162978446     0.472662591689     1.530853018519
    H           -2.337721075732     0.275820412281    -0.457046802434
    H           -1.256976315134     1.057334105119     0.659572899435
    C           -3.826623871584     1.806617717290     1.310484608036
    H           -3.840490318083    -0.335531693541     1.431546539638
    H           -2.750716214437     0.425873777482     2.551370888886
    H           -4.237075654032     1.871415362964     0.308228517827
    H           -4.643147193522     1.939752468555     2.010847214442
    H           -3.141728492476     2.638144081779     1.439887992668

  Mulliken Charges: (a.u.)
   Center  Symbol    Alpha    Beta     Spin     Total
       1     H     0.39174  0.39174  0.00000  0.21653
       2     O     4.20621  4.20621  0.00000 -0.41241
       3     C     2.96936  2.96936  0.00000  0.06129
       4     C     3.09893  3.09893  0.00000 -0.19786
       5     H     0.45136  0.45136  0.00000  0.09728
       6     H     0.47361  0.47361  0.00000  0.05278
       7     C     3.09746  3.09746  0.00000 -0.19491
       8     H     0.44905  0.44905  0.00000  0.10190
       9     H     0.45460  0.45460  0.00000  0.09081
      10     C     3.09922  3.09922  0.00000 -0.19844
      11     H     0.46110  0.46110  0.00000  0.07781
      12     H     0.45137  0.45137  0.00000  0.09727
      13     C     3.09786  3.09786  0.00000 -0.19572
      14     H     0.45150  0.45150  0.00000  0.09700
      15     H     0.44718  0.44718  0.00000  0.10564
      16     C     3.08852  3.08852  0.00000 -0.17703
      17     H     0.44770  0.44770  0.00000  0.10460
      18     H     0.45332  0.45332  0.00000  0.09335
      19     C     3.08407  3.08407  0.00000 -0.16814
      20     H     0.45415  0.45415  0.00000  0.09169
      21     H     0.45546  0.45546  0.00000  0.08908
      22     C     3.14965  3.14965  0.00000 -0.29929
      23     H     0.45359  0.45359  0.00000  0.09281
      24     H     0.45440  0.45440  0.00000  0.09121
      25     H     0.45492  0.45492  0.00000  0.09016
      26     H     0.44807  0.44807  0.00000  0.10385
      27     H     0.45562  0.45562  0.00000  0.08876

   Total alpha = 37.00000, Total beta = 37.00000, Total charge = -0.00000

*** Psi4 exiting successfully. Buy a developer a beer!
