                              Psi4 1.0.54 Driver

  ==> Input File <==

--------------------------------------------------------------------------
set {
	reference rhf
	basis cc-pvtz
}

set_num_threads( 4 )
memory 2 gb

molecule MOL {
0 1

H	 2.828711	 -0.346904	 0.001083
C	 1.876752	 0.015931	 -0.363450
C	 0.776285	 -0.474665	 0.563092
H	 1.728113	 -0.357244	 -1.367440
H	 1.906171	 1.096574	 -0.386153
N	 -0.540022	 0.017605	 0.071630
H	 0.707111	 -1.548969	 0.573035
H	 0.886169	 -0.084184	 1.560432
O	 -1.283651	 -0.784963	 -0.383447
O	 -0.743386	 1.182929	 0.142755

	symmetry c1
}
set optking {
	frozen_dihedral = ("
		9 6 3 2
	")
}

ee,wfn = optimize('scf', return_wfn=True)
oeprop( wfn, 'DIPOLE', 'QUADRUPOLE', 'MULLIKEN_CHARGES')
f=open( 'psi4out.xyz', 'w' )
f.write( "10  " )
f.write( str(ee) + "\n" )
f.write( MOL.save_string_xyz() )
f.close()
--------------------------------------------------------------------------

    Molecular point group: c1
  Charge       = 0
  Multiplicity = 1
  Basis Set: CC-PVTZ
  Basis Set:
  @DF-RHF Final Energy:  -282.81321117108803
    Total Energy =                       -282.8132111710881418
    Molecular point group: c1
  Basis Set: CC-PVTZ
  Basis Set:
  Basis Set: CC-PVTZ
  Basis Set:
  @DF-RHF Final Energy:  -282.80756969907213
    Total Energy =                       -282.8075696990721326
  Basis Set: CC-PVTZ
  Basis Set:
  Basis Set: CC-PVTZ
  Basis Set:
  @DF-RHF Final Energy:  -282.81296262276680
    Total Energy =                       -282.8129626227668609
  Basis Set: CC-PVTZ
  Basis Set:
  Basis Set: CC-PVTZ
  Basis Set:
  @DF-RHF Final Energy:  -282.81325271735903
    Total Energy =                       -282.8132527173590915
  Basis Set: CC-PVTZ
  Basis Set:
  Basis Set: CC-PVTZ
  Basis Set:
  @DF-RHF Final Energy:  -282.81317262969844
    Total Energy =                       -282.8131726296982720
  Basis Set: CC-PVTZ
  Basis Set:
  Basis Set: CC-PVTZ
  Basis Set:
  @DF-RHF Final Energy:  -282.81329415956714
    Total Energy =                       -282.8132941595671355
  Basis Set: CC-PVTZ
  Basis Set:
  Charge       = 0
  Multiplicity = 1
  Basis Set: CC-PVTZ
  Basis Set:

    Orbital Energies (a.u.)
    -----------------------

    Doubly Occupied:

       1A    -20.593729     2A    -20.590308     3A    -15.838545
       4A    -11.302004     5A    -11.249820     6A     -1.637828
       7A     -1.422146     8A     -1.126106     9A     -0.966887
      10A     -0.839201    11A     -0.763959    12A     -0.740685
      13A     -0.730361    14A     -0.657995    15A     -0.590682
      16A     -0.561277    17A     -0.547217    18A     -0.488860
      19A     -0.479412    20A     -0.455079

  @DF-RHF Final Energy:  -282.81329443696563

   => Energetics <=

    Nuclear Repulsion Energy =            186.7166403880520704
    One-Electron Energy =                -755.8956651885415567
    Two-Electron Energy =                 286.3657303635238804
    DFT Exchange-Correlation Energy =       0.0000000000000000
    Empirical Dispersion Energy =           0.0000000000000000
    PCM Polarization Energy =               0.0000000000000000
    EFP Energy =                            0.0000000000000000
    Total Energy =                       -282.8132944369656343
    Molecular point group: c1
  Basis Set: CC-PVTZ
  Basis Set:

  -Total Gradient:
     Atom            X                  Y                   Z
    ------   -----------------  -----------------  -----------------
       1        0.000008380700     0.000004220546    -0.000009599528
       2        0.000057756533     0.000087316170     0.000054673776
       3       -0.000074894545    -0.000107694288    -0.000003395053
       4       -0.000003149155     0.000000038358     0.000010741771
       5       -0.000002889948    -0.000006023638     0.000005932187
       6        0.000222090888    -0.000069521482    -0.000122207094
       7        0.000012173763     0.000007534848    -0.000009128029
       8        0.000033017666    -0.000013771061     0.000007905090
       9       -0.000132753296     0.000120228581     0.000130590812
      10       -0.000119732608    -0.000022328034    -0.000065513933

  **** Optimization is complete! (in 7 steps) ****
    Final optimized geometry and variables:
    Molecular point group: c1

    Geometry (in Angstrom), charge = 0, multiplicity = 1:

    H            2.827832299143    -0.403656734708     0.004798778364
    C            1.887154276716    -0.016215526278    -0.364119818018
    C            0.772196202607    -0.480614911903     0.556685933905
    H            1.736774154134    -0.387631418311    -1.369482285065
    H            1.941176104536     1.062099610738    -0.389454707281
    N           -0.540364856482     0.027593283046     0.067878270208
    H            0.682562048445    -1.552051429800     0.587504338275
    H            0.885708987113    -0.078606545396     1.550927767028
    O           -1.300648243267    -0.760422038333    -0.383174922744
    O           -0.730164097483     1.194688928714     0.155064993945

  Mulliken Charges: (a.u.)
   Center  Symbol    Alpha    Beta     Spin     Total
       1     H     0.44820  0.44820  0.00000  0.10359
       2     C     3.14117  3.14117  0.00000 -0.28235
       3     C     3.03764  3.03764  0.00000 -0.07528
       4     H     0.44379  0.44379  0.00000  0.11242
       5     H     0.43785  0.43785  0.00000  0.12431
       6     N     3.27740  3.27740  0.00000  0.44520
       7     H     0.43310  0.43310  0.00000  0.13380
       8     H     0.43659  0.43659  0.00000  0.12682
       9     O     4.16933  4.16933  0.00000 -0.33866
      10     O     4.17493  4.17493  0.00000 -0.34985

   Total alpha = 20.00000, Total beta = 20.00000, Total charge = -0.00000

*** Psi4 exiting successfully. Buy a developer a beer!
