  ==> Input File <==

--------------------------------------------------------------------------
set {
	reference rhf
	basis 6-31G*
}

set_num_threads( 4 )
memory 2 gb

molecule MOL {
0 1

H	 4.807491	 3.055789	 -0.364784
C	 4.525422	 2.010279	 -0.441381
C	 3.133984	 1.769354	 0.142598
H	 4.560142	 1.734401	 -1.491156
H	 5.278319	 1.425413	 0.080038
C	 2.707543	 0.302185	 0.056719
H	 2.412949	 2.387007	 -0.382963
H	 3.121195	 2.087287	 1.183966
C	 1.325746	 0.026972	 0.650151
H	 2.716555	 -0.019166	 -0.978798
H	 3.434552	 -0.310584	 0.584936
C	 0.169600	 0.576866	 -0.172154
H	 1.166833	 -1.047454	 0.728420
H	 1.255978	 0.409067	 1.666179
C	 -1.181045	 0.701995	 0.511084
O	 0.307093	 0.883477	 -1.318231
C	 -2.285934	 -0.139295	 -0.145128
H	 -1.449051	 1.751551	 0.493206
H	 -1.071135	 0.403303	 1.551943
C	 -3.651768	 0.085446	 0.506485
H	 -2.346596	 0.110469	 -1.202272
H	 -2.034737	 -1.195320	 -0.088721
C	 -4.759797	 -0.746382	 -0.137905
H	 -3.908762	 1.140117	 0.445781
H	 -3.588286	 -0.154158	 1.565709
H	 -4.868882	 -0.505166	 -1.191300
H	 -4.548009	 -1.809175	 -0.062213
H	 -5.715422	 -0.564821	 0.343442

	symmetry c1
}
set optking {
	frozen_dihedral = ("
		16 12 15 17
	")
}

ee = optimize('scf')
oeprop('DIPOLE', 'QUADRUPOLE', 'MULLIKEN_CHARGES')
f=open( 'psi4out.xyz', 'w' )
f.write( "28  " )
f.write( str(ee) + "\n" )
f.write( MOL.save_string_xyz() )
f.close()
--------------------------------------------------------------------------

    Molecular point group: c1
  Charge       = 0
  Multiplicity = 1
  Basis Set: 6-31G*
  Basis Set:
  @DF-RHF Final Energy:  -426.16896150674484
    Total Energy =                       -426.1689615067450632
    Molecular point group: c1
  Basis Set: 6-31G*
  Basis Set:
  Basis Set: 6-31G*
  Basis Set:
  @DF-RHF Final Energy:  -426.16972685952157
    Total Energy =                       -426.1697268595219157
  Basis Set: 6-31G*
  Basis Set:
  Basis Set: 6-31G*
  Basis Set:
  @DF-RHF Final Energy:  -426.16982265869513
    Total Energy =                       -426.1698226586951250
  Basis Set: 6-31G*
  Basis Set:
  Basis Set: 6-31G*
  Basis Set:
  @DF-RHF Final Energy:  -426.16981805904686
    Total Energy =                       -426.1698180590472020
  Basis Set: 6-31G*
  Basis Set:
  @DF-RHF Final Energy:  -426.16988489927974
    Total Energy =                       -426.1698848992800777
  Basis Set: 6-31G*
  Basis Set:
  @DF-RHF Final Energy:  -426.16987908514204
    Total Energy =                       -426.1698790851418153
  Basis Set: 6-31G*
  Basis Set:
  Basis Set: 6-31G*
  Basis Set:
  @DF-RHF Final Energy:  -426.16988620979589
    Total Energy =                       -426.1698862097960046
  Basis Set: 6-31G*
  Basis Set:
  Basis Set: 6-31G*
  Basis Set:
  @DF-RHF Final Energy:  -426.16989196781537
    Total Energy =                       -426.1698919678158290
  Basis Set: 6-31G*
  Basis Set:
  Charge       = 0
  Multiplicity = 1
  Basis Set: 6-31G*
  Basis Set:

    Orbital Energies (a.u.)
    -----------------------

    Doubly Occupied:

       1A    -20.547974     2A    -11.323334     3A    -11.231440
       4A    -11.229128     5A    -11.225126     6A    -11.222095
       7A    -11.216379     8A    -11.212655     9A    -11.210738
      10A    -11.204861    11A     -1.393999    12A     -1.090205
      13A     -1.077531    14A     -1.021816    15A     -0.990866
      16A     -0.909212    17A     -0.867736    18A     -0.806536
      19A     -0.794772    20A     -0.724722    21A     -0.670343
      22A     -0.650328    23A     -0.628600    24A     -0.615758
      25A     -0.607152    26A     -0.588672    27A     -0.575580
      28A     -0.570607    29A     -0.540842    30A     -0.531169
      31A     -0.521925    32A     -0.509265    33A     -0.495686
      34A     -0.479320    35A     -0.475743    36A     -0.473515
      37A     -0.468303    38A     -0.464566    39A     -0.454649
      40A     -0.392210

  @DF-RHF Final Energy:  -426.16989172930562

   => Energetics <=

    Nuclear Repulsion Energy =            529.2788840933292249
    One-Electron Energy =               -1626.8668383257058849
    Two-Electron Energy =                 671.4180625030707006
    DFT Exchange-Correlation Energy =       0.0000000000000000
    Empirical Dispersion Energy =           0.0000000000000000
    PCM Polarization Energy =               0.0000000000000000
    EFP Energy =                            0.0000000000000000
    Total Energy =                       -426.1698917293059594
    Molecular point group: c1
  Basis Set: 6-31G*
  Basis Set:

  -Total Gradient:
     Atom            X                  Y                   Z
    ------   -----------------  -----------------  -----------------
       1       -0.000008303839    -0.000000088895    -0.000001726970
       2       -0.000008517275    -0.000014829203    -0.000005636832
       3       -0.000009333242    -0.000003059978     0.000029978606
       4        0.000005730239    -0.000004066089    -0.000003708886
       5        0.000000406562     0.000003086853    -0.000000527083
       6       -0.000036640012    -0.000005009748    -0.000037391161
       7       -0.000005212165     0.000000129617     0.000009965449
       8        0.000006585952     0.000003656992     0.000002295755
       9        0.000039304334     0.000138983826     0.000019221076
      10        0.000010747209    -0.000003192994    -0.000010232642
      11       -0.000020410128    -0.000011255274     0.000014492215
      12       -0.000052067430    -0.000892615869    -0.000236035121
      13       -0.000015150299    -0.000018644463    -0.000019121956
      14        0.000002741825    -0.000018092336    -0.000007143600
      15       -0.000075706596     0.000688475588    -0.000190523118
      16        0.000065617895     0.000486920266     0.000271702196
      17        0.000103225642    -0.000366207436     0.000216368555
      18        0.000006231633     0.000039186715     0.000025913424
      19        0.000016574856     0.000004198328    -0.000027392917
      20        0.000004141279     0.000015274925    -0.000043364907
      21        0.000005436885    -0.000002173022     0.000032914839
      22       -0.000031567463    -0.000035036051    -0.000034361100
      23       -0.000008351150    -0.000023973937     0.000012491812
      24       -0.000005870731     0.000009120685    -0.000010749160
      25        0.000013256338     0.000015141218    -0.000010211702
      26       -0.000001649508     0.000005666593     0.000008324077
      27        0.000002099763    -0.000000989560    -0.000008391481
      28       -0.000003320576    -0.000010606753     0.000002850632

  **** Optimization is complete! (in 9 steps) ****
    Final optimized geometry and variables:
    Molecular point group: c1

    Geometry (in Angstrom), charge = 0, multiplicity = 1:

    H            4.951084910686     2.237170032979    -0.567861660724
    C            4.557931166961     1.225397690884    -0.584487402747
    C            3.195590693068     1.151320282045     0.103677571598
    H            4.487129418482     0.915498085511    -1.622961002573
    H            5.283017592697     0.580693278014    -0.094984088034
    C            2.616948650336    -0.265568882790     0.106744235213
    H            2.503903230301     1.822568654148    -0.393129403063
    H            3.292531430491     1.500665876298     1.130478890522
    C            1.257774324426    -0.374695415844     0.795317433893
    H            2.526837551947    -0.623325073971    -0.913552565678
    H            3.312033470758    -0.930955906177     0.613940805319
    C            0.092999382509     0.198448382114     0.010481919859
    H            1.011113923857    -1.418178978554     0.992368473014
    H            1.276265777302     0.104025435469     1.773183496701
    C           -1.272017936581     0.181057764104     0.682537899447
    O            0.216141869745     0.631383923926    -1.095750941427
    C           -2.284911402765    -0.654479315310    -0.110880479248
    H           -1.614119065547     1.211009654823     0.738928763565
    H           -1.192718086782    -0.190570468275     1.699757332441
    C           -3.683028629192    -0.631980854255     0.508071695364
    H           -2.323299014334    -0.278152775850    -1.127418093846
    H           -1.935604646040    -1.683751946507    -0.172874659577
    C           -4.690857846665    -1.469151382024    -0.278603042209
    H           -4.033493676605     0.396234155046     0.564803712460
    H           -3.633108717415    -0.995286756535     1.532402208901
    H           -4.788093868062    -1.108088647001    -1.298219883307
    H           -4.384835110605    -2.510434407848    -0.324778722074
    H           -5.673640331081    -1.433417689149     0.180828202498

  Mulliken Charges: (a.u.)
   Center  Symbol    Alpha    Beta     Spin     Total
       1     H     0.41940  0.41940  0.00000  0.16121
       2     C     3.24026  3.24026  0.00000 -0.48053
       3     C     3.15618  3.15618  0.00000 -0.31237
       4     H     0.41867  0.41867  0.00000  0.16265
       5     H     0.42404  0.42404  0.00000  0.15192
       6     C     3.14927  3.14927  0.00000 -0.29853
       7     H     0.40720  0.40720  0.00000  0.18559
       8     H     0.42803  0.42803  0.00000  0.14395
       9     C     3.21342  3.21342  0.00000 -0.42685
      10     H     0.40888  0.40888  0.00000  0.18224
      11     H     0.42188  0.42188  0.00000  0.15624
      12     C     2.73174  2.73174  0.00000  0.53653
      13     H     0.40638  0.40638  0.00000  0.18724
      14     H     0.40908  0.40908  0.00000  0.18183
      15     C     3.20044  3.20044  0.00000 -0.40087
      16     O     4.26974  4.26974  0.00000 -0.53947
      17     C     3.15728  3.15728  0.00000 -0.31455
      18     H     0.40276  0.40276  0.00000  0.19448
      19     H     0.41547  0.41547  0.00000  0.16906
      20     C     3.15254  3.15254  0.00000 -0.30507
      21     H     0.40366  0.40366  0.00000  0.19269
      22     H     0.42151  0.42151  0.00000  0.15699
      23     C     3.24000  3.24000  0.00000 -0.48000
      24     H     0.42065  0.42065  0.00000  0.15871
      25     H     0.42324  0.42324  0.00000  0.15353
      26     H     0.41893  0.41893  0.00000  0.16214
      27     H     0.42119  0.42119  0.00000  0.15762
      28     H     0.41818  0.41818  0.00000  0.16363

   Total alpha = 40.00000, Total beta = 40.00000, Total charge = -0.00000
