                              Psi4 1.0.54 Driver

  ==> Input File <==

--------------------------------------------------------------------------
set {
	reference rhf
	basis cc-pvtz
}

set_num_threads( 4 )
memory 2 gb

molecule MOL {
0 1

H	 1.055158	 -0.776811	 -1.288018
O	 1.243339	 0.141564	 -1.212998
C	 0.706474	 0.636793	 -0.025501
C	 -0.793473	 0.591216	 0.050087
H	 1.036448	 1.665873	 0.054579
H	 1.117794	 0.111821	 0.834685
C	 -1.534243	 -0.493009	 -0.013340
H	 -1.266611	 1.552628	 0.164437
H	 -1.101195	 -1.466332	 -0.144046
H	 -2.604242	 -0.437780	 0.050785

	symmetry c1
}
set optking {
	frozen_dihedral = ("
		5 3 4 7
	")
}

ee,wfn = optimize('scf', return_wfn=True)
oeprop( wfn, 'DIPOLE', 'QUADRUPOLE', 'MULLIKEN_CHARGES')
f=open( 'psi4out.xyz', 'w' )
f.write( "10  " )
f.write( str(ee) + "\n" )
f.write( MOL.save_string_xyz() )
f.close()
--------------------------------------------------------------------------

    Molecular point group: c1
  Charge       = 0
  Multiplicity = 1
  Basis Set: CC-PVTZ
  Basis Set:
  @DF-RHF Final Energy:  -191.99208685367273
    Total Energy =                       -191.9920868536726744
    Molecular point group: c1
  Basis Set: CC-PVTZ
  Basis Set:
  Basis Set: CC-PVTZ
  Basis Set:
  @DF-RHF Final Energy:  -191.99257564534059
    Total Energy =                       -191.9925756453405938
  Basis Set: CC-PVTZ
  Basis Set:
  Basis Set: CC-PVTZ
  Basis Set:
  @DF-RHF Final Energy:  -191.99270034667165
    Total Energy =                       -191.9927003466716542
  Basis Set: CC-PVTZ
  Basis Set:
  Basis Set: CC-PVTZ
  Basis Set:
  @DF-RHF Final Energy:  -191.99276260945533
    Total Energy =                       -191.9927626094553261
  Basis Set: CC-PVTZ
  Basis Set:
  Basis Set: CC-PVTZ
  Basis Set:
  @DF-RHF Final Energy:  -191.99278016056118
    Total Energy =                       -191.9927801605612103
  Basis Set: CC-PVTZ
  Basis Set:
  Basis Set: CC-PVTZ
  Basis Set:
  @DF-RHF Final Energy:  -191.99278476988025
    Total Energy =                       -191.9927847698802452
  Basis Set: CC-PVTZ
  Basis Set:
  Charge       = 0
  Multiplicity = 1
  Basis Set: CC-PVTZ
  Basis Set:

    Orbital Energies (a.u.)
    -----------------------

    Doubly Occupied:

       1A    -20.549077     2A    -11.276074     3A    -11.234725
       4A    -11.227256     5A     -1.367706     6A     -1.066933
       7A     -0.929837     8A     -0.776169     9A     -0.701508
      10A     -0.643193    11A     -0.629488    12A     -0.582162
      13A     -0.541702    14A     -0.497097    15A     -0.441852
      16A     -0.379330

  @DF-RHF Final Energy:  -191.99278509043688

   => Energetics <=

    Nuclear Repulsion Energy =            118.6801934274859605
    One-Electron Energy =                -495.6577382334685353
    Two-Electron Energy =                 184.9847597155456640
    DFT Exchange-Correlation Energy =       0.0000000000000000
    Empirical Dispersion Energy =           0.0000000000000000
    PCM Polarization Energy =               0.0000000000000000
    EFP Energy =                            0.0000000000000000
    Total Energy =                       -191.9927850904369109
    Molecular point group: c1
  Basis Set: CC-PVTZ
  Basis Set:

  -Total Gradient:
     Atom            X                  Y                   Z
    ------   -----------------  -----------------  -----------------
       1       -0.000000317489     0.000005832654     0.000014095925
       2        0.000043377475    -0.000026201502    -0.000077614109
       3        0.000015476634    -0.000097162594     0.001743936297
       4        0.000132735361    -0.000243570005     0.002471463041
       5       -0.000098166070     0.000171560734    -0.002131029098
       6        0.000002819533    -0.000000648055    -0.000016846560
       7       -0.000125238144     0.000165677462    -0.002021186284
       8        0.000007996257     0.000010748739    -0.000003207313
       9        0.000014975388     0.000004038766     0.000014870637
      10        0.000006341059     0.000009723801     0.000005517465

  **** Optimization is complete! (in 7 steps) ****
    Final optimized geometry and variables:
    Molecular point group: c1

    Geometry (in Angstrom), charge = 0, multiplicity = 1:

    H            0.853379658871    -0.872517674397    -1.105374978907
    O            1.254447145245    -0.051235282863    -0.888677373410
    C            0.738861688004     0.430751800638     0.323738285891
    C           -0.773144418720     0.393735987618     0.394531842421
    H            1.081070067015     1.452621300915     0.392940761465
    H            1.160548473378    -0.120256845760     1.159635509847
    C           -1.488286076200    -0.708496362111     0.336791739507
    H           -1.279629667457     1.340178332486     0.463986342692
    H           -1.034253791637    -1.683103133549     0.274589191399
    H           -2.561135321982    -0.684870900014     0.355737075981

  Mulliken Charges: (a.u.)
   Center  Symbol    Alpha    Beta     Spin     Total
       1     H     0.39256  0.39256  0.00000  0.21487
       2     O     4.20005  4.20005  0.00000 -0.40010
       3     C     2.95329  2.95329  0.00000  0.09342
       4     C     3.07808  3.07808  0.00000 -0.15616
       5     H     0.45486  0.45486  0.00000  0.09029
       6     H     0.46761  0.46761  0.00000  0.06478
       7     C     3.17553  3.17553  0.00000 -0.35105
       8     H     0.41801  0.41801  0.00000  0.16398
       9     H     0.43484  0.43484  0.00000  0.13031
      10     H     0.42517  0.42517  0.00000  0.14965

   Total alpha = 16.00000, Total beta = 16.00000, Total charge = -0.00000

*** Psi4 exiting successfully. Buy a developer a beer!
