                              Psi4 1.0.54 Driver

  ==> Input File <==

--------------------------------------------------------------------------
set {
	reference rhf
	basis cc-pvtz
}

set_num_threads( 4 )
memory 2 gb

molecule MOL {
0 1

H	 1.016463	 -0.874866	 0.615178
C	 0.943579	 -0.356903	 -0.350866
C	 0.062554	 0.862911	 -0.350953
O	 1.539167	 -0.764298	 -1.287059
C	 -1.339253	 0.577611	 0.196911
H	 0.022724	 1.259232	 -1.357351
H	 0.550524	 1.600968	 0.281686
C	 -1.813142	 -0.849710	 -0.061612
H	 -2.032833	 1.276441	 -0.256032
H	 -1.357249	 0.782269	 1.263793
H	 -1.839268	 -1.063526	 -1.124230
H	 -2.810118	 -1.001930	 0.334000
H	 -1.159274	 -1.579980	 0.402282

	symmetry c1
}
set optking {
	frozen_dihedral = ("
		6 3 5 9
	")
}

ee,wfn = optimize('scf', return_wfn=True)
oeprop( wfn, 'DIPOLE', 'QUADRUPOLE', 'MULLIKEN_CHARGES')
f=open( 'psi4out.xyz', 'w' )
f.write( "13  " )
f.write( str(ee) + "\n" )
f.write( MOL.save_string_xyz() )
f.close()
--------------------------------------------------------------------------

    Molecular point group: c1
  Charge       = 0
  Multiplicity = 1
  Basis Set: CC-PVTZ
  Basis Set:
  @DF-RHF Final Energy:  -231.06504322875836
    Total Energy =                       -231.0650432287584977
    Molecular point group: c1
  Basis Set: CC-PVTZ
  Basis Set:
  Basis Set: CC-PVTZ
  Basis Set:
  @DF-RHF Final Energy:  -231.06537966616878
    Total Energy =                       -231.0653796661689228
  Basis Set: CC-PVTZ
  Basis Set:
  Basis Set: CC-PVTZ
  Basis Set:
  @DF-RHF Final Energy:  -231.06627919557280
    Total Energy =                       -231.0662791955727471
  Basis Set: CC-PVTZ
  Basis Set:
  Basis Set: CC-PVTZ
  Basis Set:
  @DF-RHF Final Energy:  -231.06640737896518
    Total Energy =                       -231.0664073789653798
  Basis Set: CC-PVTZ
  Basis Set:
  Basis Set: CC-PVTZ
  Basis Set:
  @DF-RHF Final Energy:  -231.06636073925841
    Total Energy =                       -231.0663607392585277
  Basis Set: CC-PVTZ
  Basis Set:
  Basis Set: CC-PVTZ
  Basis Set:
  @DF-RHF Final Energy:  -231.06641722564785
    Total Energy =                       -231.0664172256478253
  Basis Set: CC-PVTZ
  Basis Set:
  Basis Set: CC-PVTZ
  Basis Set:
  @DF-RHF Final Energy:  -231.06642016716742
    Total Energy =                       -231.0664201671672799
  Basis Set: CC-PVTZ
  Basis Set:
  Charge       = 0
  Multiplicity = 1
  Basis Set: CC-PVTZ
  Basis Set:

    Orbital Energies (a.u.)
    -----------------------

    Doubly Occupied:

       1A    -20.551711     2A    -11.321869     3A    -11.237250
       4A    -11.234591     5A    -11.220368     6A     -1.406664
       7A     -1.085406     8A     -0.974006     9A     -0.854346
      10A     -0.783310    11A     -0.671172    12A     -0.645359
      13A     -0.632082    14A     -0.602490    15A     -0.557945
      16A     -0.531797    17A     -0.513062    18A     -0.489897
      19A     -0.481913    20A     -0.412391

  @DF-RHF Final Energy:  -231.06642033152048

   => Energetics <=

    Nuclear Repulsion Energy =            174.5047504931836784
    One-Electron Energy =                -658.7270853161892319
    Two-Electron Energy =                 253.1559144914850208
    DFT Exchange-Correlation Energy =       0.0000000000000000
    Empirical Dispersion Energy =           0.0000000000000000
    PCM Polarization Energy =               0.0000000000000000
    EFP Energy =                            0.0000000000000000
    Total Energy =                       -231.0664203315205327
    Molecular point group: c1
  Basis Set: CC-PVTZ
  Basis Set:

  -Total Gradient:
     Atom            X                  Y                   Z
    ------   -----------------  -----------------  -----------------
       1        0.000003356086     0.000008973220    -0.000005554784
       2       -0.000009210646    -0.000003367647     0.000024131127
       3        0.000947464108    -0.007965688409    -0.003522247067
       4        0.000008049312    -0.000000100063    -0.000018793209
       5        0.000425338210     0.006304808988     0.005781478530
       6       -0.000827481738     0.005670744192     0.002089019714
       7       -0.000000053118     0.000000005147    -0.000004089791
       8       -0.000007567688     0.000000917862     0.000012998190
       9       -0.000537095024    -0.004009025404    -0.004354190866
      10        0.000002382126    -0.000005391710    -0.000003889384
      11        0.000000244406     0.000005568466     0.000003288248
      12       -0.000001279218    -0.000004823094     0.000000284025
      13       -0.000004146814    -0.000002621547    -0.000002434731

  **** Optimization is complete! (in 8 steps) ****
    Final optimized geometry and variables:
    Molecular point group: c1

    Geometry (in Angstrom), charge = 0, multiplicity = 1:

    H            1.282527525693    -0.510827089414     1.097495908662
    C            1.130405813757    -0.098617166776     0.091743649354
    C            0.085166116653     0.975607583440    -0.007140878926
    O            1.783403597206    -0.491071436400    -0.812367395981
    C           -1.304396686456     0.576785013019     0.529398456594
    H            0.025759545597     1.340115653301    -1.023643774422
    H            0.455838844671     1.809930335253     0.586116605263
    C           -1.696397602135    -0.873091589715     0.236039570347
    H           -2.035407124173     1.206665730334     0.037401127926
    H           -1.367913222235     0.764158281887     1.594374381736
    H           -1.634617754038    -1.086410933953    -0.825320090458
    H           -2.714665913246    -1.061232834411     0.554260160829
    H           -1.059094392874    -1.582842087458     0.750885626760

  Mulliken Charges: (a.u.)
   Center  Symbol    Alpha    Beta     Spin     Total
       1     H     0.46244  0.46244  0.00000  0.07512
       2     C     2.90343  2.90343  0.00000  0.19313
       3     C     3.09080  3.09080  0.00000 -0.18159
       4     O     4.16637  4.16637  0.00000 -0.33274
       5     C     3.09936  3.09936  0.00000 -0.19873
       6     H     0.44078  0.44078  0.00000  0.11844
       7     H     0.44652  0.44652  0.00000  0.10696
       8     C     3.14903  3.14903  0.00000 -0.29806
       9     H     0.44565  0.44565  0.00000  0.10870
      10     H     0.44744  0.44744  0.00000  0.10511
      11     H     0.44627  0.44627  0.00000  0.10746
      12     H     0.44688  0.44688  0.00000  0.10623
      13     H     0.45503  0.45503  0.00000  0.08995

   Total alpha = 20.00000, Total beta = 20.00000, Total charge = -0.00000

*** Psi4 exiting successfully. Buy a developer a beer!
