  ==> Input File <==

--------------------------------------------------------------------------
set {
	reference rhf
	basis 6-31G*
}

set_num_threads( 1 )
memory 2 gb

molecule MOL {
0 1

O	 -0.682937	 1.318834	 -0.186099
C	 -0.860635	 0.152188	 -0.042321
C	 -2.173363	 -0.477127	 0.338347
O	 0.083258	 -0.765189	 -0.202595
H	 -2.477673	 -1.180929	 -0.427595
H	 -2.923125	 0.290956	 0.455536
H	 -2.058825	 -1.029004	 1.264191
C	 -0.003796	 -1.638691	 -1.326078
C	 0.585199	 -1.003310	 -2.571881
H	 -1.034976	 -1.918934	 -1.478625
H	 0.559790	 -2.513025	 -1.033828
H	 0.573715	 -1.718022	 -3.389062
H	 0.010661	 -0.135667	 -2.870993
H	 1.612384	 -0.701999	 -2.397187

	symmetry c1
}
set optking {
	frozen_dihedral = ("
		10 8 4 2
	")
}

ee = energy('scf')
oeprop('DIPOLE', 'QUADRUPOLE', 'MULLIKEN_CHARGES')
f=open( 'psi4out.xyz', 'w' )
f.write( "14  " )
f.write( str(ee) + "\n" )
f.write( MOL.save_string_xyz() )
f.close()
--------------------------------------------------------------------------

    Molecular point group: c1

    Geometry (in Angstrom), charge = 0, multiplicity = 1:

       Center              X                  Y                   Z               Mass
    ------------   -----------------  -----------------  -----------------  -----------------
           O         -0.174082172504     1.724547894761     0.488444325273    15.994914619560
           C         -0.351780172504     0.557901894761     0.632222325273    12.000000000000
           C         -1.664508172504    -0.071413105239     1.012890325273    12.000000000000
           O          0.592112827496    -0.359475105239     0.471948325273    15.994914619560
           H         -1.968818172504    -0.775215105239     0.246948325273     1.007825032070
           H         -2.414270172504     0.696669894761     1.130079325273     1.007825032070
           H         -1.549970172504    -0.623290105239     1.938734325273     1.007825032070
           C          0.505058827496    -1.232977105239    -0.651534674727    12.000000000000
           C          1.094053827496    -0.597596105239    -1.897337674727    12.000000000000
           H         -0.526121172504    -1.513220105239    -0.804081674727     1.007825032070
           H          1.068644827496    -2.107311105239    -0.359284674727     1.007825032070
           H          1.082569827496    -1.312308105239    -2.714518674727     1.007825032070
           H          0.519515827496     0.270046894761    -2.196449674727     1.007825032070
           H          2.121238827496    -0.296285105239    -1.722643674727     1.007825032070

  Charge       = 0
  Multiplicity = 1
  Basis Set: 6-31G*
  Basis Set:

    Orbital Energies (a.u.)
    -----------------------

    Doubly Occupied:

       1A    -20.588326     2A    -20.553165     3A    -11.376713
       4A    -11.301538     5A    -11.235128     6A    -11.225937
       7A     -1.462594     8A     -1.368188     9A     -1.051085
      10A     -1.011348    11A     -0.892533    12A     -0.772599
      13A     -0.694225    14A     -0.685363    15A     -0.672200
      16A     -0.607028    17A     -0.598410    18A     -0.584395
      19A     -0.550450    20A     -0.546425    21A     -0.523851
      22A     -0.482853    23A     -0.454361    24A     -0.436778

  @DF-RHF Final Energy:  -305.85145159758929

   => Energetics <=

    Nuclear Repulsion Energy =            249.1112788085262366
    One-Electron Energy =                -910.5744369805806855
    Two-Electron Energy =                 355.6117065744651882
    DFT Exchange-Correlation Energy =       0.0000000000000000
    Empirical Dispersion Energy =           0.0000000000000000
    PCM Polarization Energy =               0.0000000000000000
    EFP Energy =                            0.0000000000000000
    Total Energy =                       -305.8514515975892891

  Mulliken Charges: (a.u.)
   Center  Symbol    Alpha    Beta     Spin     Total
       1     O     4.25700  4.25700  0.00000 -0.51400
       2     C     2.62829  2.62829  0.00000  0.74341
       3     C     3.29157  3.29157  0.00000 -0.58313
       4     O     4.30674  4.30674  0.00000 -0.61347
       5     H     0.40745  0.40745  0.00000  0.18509
       6     H     0.39672  0.39672  0.00000  0.20656
       7     H     0.39836  0.39836  0.00000  0.20327
       8     C     3.00919  3.00919  0.00000 -0.01837
       9     C     3.24753  3.24753  0.00000 -0.49505
      10     H     0.42141  0.42141  0.00000  0.15718
      11     H     0.40432  0.40432  0.00000  0.19137
      12     H     0.41835  0.41835  0.00000  0.16330
      13     H     0.40860  0.40860  0.00000  0.18280
      14     H     0.40448  0.40448  0.00000  0.19104

   Total alpha = 24.00000, Total beta = 24.00000, Total charge = -0.00000
