  ==> Input File <==

--------------------------------------------------------------------------
set {
	reference rhf
	basis 6-31G*
}

set_num_threads( 4 )
memory 2 gb

molecule MOL {
0 1

O	 -1.276010	 1.052711	 -0.768302
C	 -1.204840	 0.067374	 -0.106123
C	 -2.388195	 -0.672128	 0.458071
O	 -0.067104	 -0.527208	 0.221609
H	 -2.388023	 -1.694060	 0.097175
H	 -3.300579	 -0.174919	 0.164318
H	 -2.315377	 -0.706351	 1.539059
C	 1.170111	 0.034140	 -0.238951
C	 2.252721	 -0.563670	 0.642052
C	 1.107254	 1.551455	 -0.158654
H	 1.311650	 -0.271872	 -1.265027
H	 2.252928	 -1.645215	 0.567839
H	 3.227623	 -0.198833	 0.335795
H	 2.095418	 -0.292230	 1.680430
H	 2.049044	 1.981665	 -0.484177
H	 0.321687	 1.937440	 -0.795738
H	 0.920725	 1.869706	 0.862096

	symmetry c1
}
set optking {
	frozen_dihedral = ("
		11 8 4 2
	")
}

ee = optimize('scf')
oeprop('DIPOLE', 'QUADRUPOLE', 'MULLIKEN_CHARGES')
f=open( 'psi4out.xyz', 'w' )
f.write( "17  " )
f.write( str(ee) + "\n" )
f.write( MOL.save_string_xyz() )
f.close()
--------------------------------------------------------------------------

    Molecular point group: c1
  Charge       = 0
  Multiplicity = 1
  Basis Set: 6-31G*
  Basis Set:
  @DF-RHF Final Energy:  -344.89453177458068
    Total Energy =                       -344.8945317745805141
    Molecular point group: c1
  Basis Set: 6-31G*
  Basis Set:
  Basis Set: 6-31G*
  Basis Set:
  @DF-RHF Final Energy:  -344.90626382853122
    Total Energy =                       -344.9062638285313369
  Basis Set: 6-31G*
  Basis Set:
  Basis Set: 6-31G*
  Basis Set:
  @DF-RHF Final Energy:  -344.90792613070153
    Total Energy =                       -344.9079261307014121
  Basis Set: 6-31G*
  Basis Set:
  Basis Set: 6-31G*
  Basis Set:
  @DF-RHF Final Energy:  -344.90404672432351
    Total Energy =                       -344.9040467243232797
  Basis Set: 6-31G*
  Basis Set:
  @DF-RHF Final Energy:  -344.90851619540149
    Total Energy =                       -344.9085161954009209
  Basis Set: 6-31G*
  Basis Set:
  @DF-RHF Final Energy:  -344.90861727889916
    Total Energy =                       -344.9086172788992144
  Basis Set: 6-31G*
  Basis Set:
  Basis Set: 6-31G*
  Basis Set:
  @DF-RHF Final Energy:  -344.90862613983620
    Total Energy =                       -344.9086261398360307
  Basis Set: 6-31G*
  Basis Set:
  Basis Set: 6-31G*
  Basis Set:
  @DF-RHF Final Energy:  -344.90862767397084
    Total Energy =                       -344.9086276739711820
  Basis Set: 6-31G*
  Basis Set:
  Charge       = 0
  Multiplicity = 1
  Basis Set: 6-31G*
  Basis Set:

    Orbital Energies (a.u.)
    -----------------------

    Doubly Occupied:

       1A    -20.597682     2A    -20.541910     3A    -11.374607
       4A    -11.295062     5A    -11.231182     6A    -11.219113
       7A    -11.213583     8A     -1.462119     9A     -1.361730
      10A     -1.079580    11A     -1.003963    12A     -0.946534
      13A     -0.855238    14A     -0.753036    15A     -0.690499
      16A     -0.677104    17A     -0.657207    18A     -0.615368
      19A     -0.585369    20A     -0.578644    21A     -0.551148
      22A     -0.549710    23A     -0.542679    24A     -0.517904
      25A     -0.500789    26A     -0.484846    27A     -0.446446
      28A     -0.430285

  @DF-RHF Final Energy:  -344.90862790947085

   => Energetics <=

    Nuclear Repulsion Energy =            323.7176881347759263
    One-Electron Energy =               -1111.7259557487509483
    Two-Electron Energy =                 443.0996397045042272
    DFT Exchange-Correlation Energy =       0.0000000000000000
    Empirical Dispersion Energy =           0.0000000000000000
    PCM Polarization Energy =               0.0000000000000000
    EFP Energy =                            0.0000000000000000
    Total Energy =                       -344.9086279094707947
    Molecular point group: c1
  Basis Set: 6-31G*
  Basis Set:

  -Total Gradient:
     Atom            X                  Y                   Z
    ------   -----------------  -----------------  -----------------
       1       -0.000030246429    -0.000051137633    -0.000020954756
       2       -0.000029637081     0.003415329140     0.005158774319
       3       -0.000008927543     0.000028240811     0.000042110993
       4        0.000739551939    -0.006247602366    -0.007282101934
       5       -0.000006165514    -0.000011163538    -0.000018021824
       6       -0.000006674914    -0.000007710351     0.000000521600
       7        0.000001791240    -0.000020142652    -0.000013353879
       8       -0.004021305943     0.008175732471    -0.000038447056
       9        0.000012170358     0.000024953824    -0.000020969024
      10       -0.000008061057     0.000027787145     0.000032935508
      11        0.003299185207    -0.005334414140     0.002160229071
      12       -0.000003774294     0.000004209436     0.000002176016
      13        0.000008896751    -0.000006832476     0.000000747563
      14       -0.000001288557     0.000006818044    -0.000008406506
      15        0.000018387021     0.000000693347    -0.000007890154
      16        0.000028849062    -0.000003109803     0.000016558091
      17        0.000007249757    -0.000001651261    -0.000003908024

  **** Optimization is complete! (in 9 steps) ****
    Final optimized geometry and variables:
    Molecular point group: c1

    Geometry (in Angstrom), charge = 0, multiplicity = 1:

    O           -1.354613997122     0.745447899081    -0.965091776895
    C           -1.179954405794    -0.119965330400    -0.169595281331
    C           -2.283960674208    -0.829679131660     0.569858928729
    O            0.002533576084    -0.614439911365     0.164810233545
    H           -2.231702825334    -1.894060801612     0.372435616335
    H           -3.240324530542    -0.440517123199     0.253740799647
    H           -2.159593374183    -0.688029708018     1.637330181598
    C            1.245578161650    -0.008988395612    -0.227014156292
    C            2.282132140450    -0.694615974399     0.653606363590
    C            1.286943067701     1.503347104297    -0.062362096864
    H            1.437548695334    -0.306744723591    -1.250980476706
    H            2.215350340905    -1.771487016768     0.551936589716
    H            3.281520617887    -0.383591303167     0.368140720050
    H            2.126231591267    -0.439762019855     1.696543437667
    H            2.306601140321     1.839983546696    -0.220689392662
    H            0.640761042799     2.012411619473    -0.758460536904
    H            0.999095350865     1.777459886816     0.948355699952

  Mulliken Charges: (a.u.)
   Center  Symbol    Alpha    Beta     Spin     Total
       1     O     4.28466  4.28466  0.00000 -0.56932
       2     C     2.61434  2.61434  0.00000  0.77132
       3     C     3.28080  3.28080  0.00000 -0.56160
       4     O     4.31996  4.31996  0.00000 -0.63993
       5     H     0.40059  0.40059  0.00000  0.19882
       6     H     0.39784  0.39784  0.00000  0.20432
       7     H     0.40232  0.40232  0.00000  0.19537
       8     C     2.91498  2.91498  0.00000  0.17004
       9     C     3.24272  3.24272  0.00000 -0.48543
      10     C     3.26135  3.26135  0.00000 -0.52270
      11     H     0.41188  0.41188  0.00000  0.17624
      12     H     0.41061  0.41061  0.00000  0.17879
      13     H     0.41844  0.41844  0.00000  0.16311
      14     H     0.41546  0.41546  0.00000  0.16907
      15     H     0.41825  0.41825  0.00000  0.16350
      16     H     0.38736  0.38736  0.00000  0.22528
      17     H     0.41844  0.41844  0.00000  0.16311

   Total alpha = 28.00000, Total beta = 28.00000, Total charge = -0.00000
