  ==> Input File <==

--------------------------------------------------------------------------
set {
	reference rhf
	basis 6-31G*
}

set_num_threads( 4 )
memory 2 gb

molecule MOL {
0 1

H	 -2.565496	 -1.280886	 -0.153319
C	 -2.878832	 -0.466317	 -0.818090
C	 -2.660244	 0.921717	 -0.272021
O	 -3.351308	 -0.710755	 -1.880524
C	 -1.220012	 1.144545	 0.209990
H	 -2.940212	 1.637857	 -1.035874
H	 -3.342329	 1.045944	 0.568207
C	 -0.252658	 0.041456	 -0.226725
H	 -0.873521	 2.100229	 -0.171974
H	 -1.211708	 1.231594	 1.295398
C	 1.180775	 0.282413	 0.250794
H	 -0.266029	 -0.034465	 -1.312038
H	 -0.597733	 -0.921000	 0.146291
C	 2.148627	 -0.814315	 -0.201312
H	 1.516199	 1.249228	 -0.115937
H	 1.192670	 0.346017	 1.338083
C	 3.580890	 -0.659131	 0.322722
H	 2.166869	 -0.852443	 -1.289387
H	 1.762857	 -1.776509	 0.128956
C	 4.324889	 0.564933	 -0.213704
H	 4.142010	 -1.551473	 0.056605
H	 3.564836	 -0.624694	 1.410140
H	 4.342616	 0.565491	 -1.300421
H	 3.866655	 1.493402	 0.110242
H	 5.353900	 0.572371	 0.132816

	symmetry c1
}
set optking {
	frozen_dihedral = ("
		6 3 5 8
	")
}

ee = optimize('scf')
oeprop('DIPOLE', 'QUADRUPOLE', 'MULLIKEN_CHARGES')
f=open( 'psi4out.xyz', 'w' )
f.write( "25  " )
f.write( str(ee) + "\n" )
f.write( MOL.save_string_xyz() )
f.close()
--------------------------------------------------------------------------

    Molecular point group: c1
  Charge       = 0
  Multiplicity = 1
  Basis Set: 6-31G*
  Basis Set:
  @DF-RHF Final Energy:  -387.11140699470610
    Total Energy =                       -387.1114069947061580
    Molecular point group: c1
  Basis Set: 6-31G*
  Basis Set:
  Basis Set: 6-31G*
  Basis Set:
  @DF-RHF Final Energy:  -387.11144404090214
    Total Energy =                       -387.1114440409025974
  Basis Set: 6-31G*
  Basis Set:
  Basis Set: 6-31G*
  Basis Set:
  @DF-RHF Final Energy:  -387.11373423992563
    Total Energy =                       -387.1137342399252930
  Basis Set: 6-31G*
  Basis Set:
  Basis Set: 6-31G*
  Basis Set:
  @DF-RHF Final Energy:  -387.11196225078936
    Total Energy =                       -387.1119622507897020
  Basis Set: 6-31G*
  Basis Set:
  @DF-RHF Final Energy:  -387.11415535396452
    Total Energy =                       -387.1141553539649749
  @DF-RHF Final Energy:  -387.11437672546140
    Total Energy =                       -387.1143767254613977
  @DF-RHF Final Energy:  -387.11435639762357
    Total Energy =                       -387.1143563976233963
  @DF-RHF Final Energy:  -387.11439606840582
    Total Energy =                       -387.1143960684058811
  @DF-RHF Final Energy:  -387.11439777655977
    Total Energy =                       -387.1143977765597128
  Basis Set: 6-31G*
  Basis Set:
  @DF-RHF Final Energy:  -387.11439596814637
    Total Energy =                       -387.1143959681464821
  Basis Set: 6-31G*
  Basis Set:
  Basis Set: 6-31G*
  Basis Set:
  @DF-RHF Final Energy:  -387.11439758722418
    Total Energy =                       -387.1143975872239480
  Basis Set: 6-31G*
  Basis Set:
  Basis Set: 6-31G*
  Basis Set:
  @DF-RHF Final Energy:  -387.11439889323378
    Total Energy =                       -387.1143988932342381
  Basis Set: 6-31G*
  Basis Set:
  Charge       = 0
  Multiplicity = 1
  Basis Set: 6-31G*
  Basis Set:

    Orbital Energies (a.u.)
    -----------------------

    Doubly Occupied:

       1A    -20.560837     2A    -11.325577     3A    -11.235351
       4A    -11.234120     5A    -11.226004     6A    -11.220757
       7A    -11.218579     8A    -11.217727     9A    -11.210775
      10A     -1.400752    11A     -1.102291    12A     -1.067095
      13A     -1.012534    14A     -0.943113    15A     -0.877381
      16A     -0.830174    17A     -0.782702    18A     -0.774643
      19A     -0.673931    20A     -0.653478    21A     -0.630031
      22A     -0.625491    23A     -0.607668    24A     -0.589843
      25A     -0.575161    26A     -0.552037    27A     -0.538669
      28A     -0.522237    29A     -0.504419    30A     -0.497053
      31A     -0.493464    32A     -0.472687    33A     -0.464914
      34A     -0.460060    35A     -0.442582    36A     -0.408023

  @DF-RHF Final Energy:  -387.11439888112045

   => Energetics <=

    Nuclear Repulsion Energy =            440.3449574818058636
    One-Electron Energy =               -1397.0143903186849457
    Two-Electron Energy =                 569.5550339557582902
    DFT Exchange-Correlation Energy =       0.0000000000000000
    Empirical Dispersion Energy =           0.0000000000000000
    PCM Polarization Energy =               0.0000000000000000
    EFP Energy =                            0.0000000000000000
    Total Energy =                       -387.1143988811207919
    Molecular point group: c1
  Basis Set: 6-31G*
  Basis Set:

  -Total Gradient:
     Atom            X                  Y                   Z
    ------   -----------------  -----------------  -----------------
       1       -0.000002701153     0.000002529278     0.000001621397
       2        0.000000278903    -0.000001317830    -0.000009655050
       3        0.001094103098    -0.003096621025    -0.002203350591
       4       -0.000002842679     0.000000962637     0.000004059509
       5        0.000546852145     0.002388778825    -0.002233749960
       6       -0.001071198803     0.002021096945     0.002449985029
       7       -0.000002697565    -0.000000670191    -0.000001905466
       8       -0.000569553960    -0.001316451776     0.001990540740
       9        0.000003227977    -0.000004961524     0.000001349653
      10        0.000002110159     0.000003010040     0.000004259125
      11       -0.000000118899     0.000000361383     0.000001504216
      12       -0.000008567567     0.000001718971    -0.000001384293
      13        0.000011846298     0.000003216259    -0.000002004124
      14        0.000000084253    -0.000001963609     0.000002566566
      15        0.000002988455    -0.000001600314    -0.000003104022
      16       -0.000002591166     0.000004939003    -0.000000281509
      17       -0.000000943546    -0.000000705389    -0.000000188134
      18        0.000000153620     0.000001087385     0.000001163902
      19        0.000002020181    -0.000002747101    -0.000000872017
      20       -0.000000586103    -0.000000354747    -0.000000115933
      21       -0.000000515839    -0.000001029559     0.000000615202
      22       -0.000000988277     0.000001178745    -0.000000760622
      23       -0.000000226765     0.000000246065    -0.000000692643
      24       -0.000000121531    -0.000000033093     0.000000477344
      25       -0.000000011226    -0.000000669377    -0.000000078313

  **** Optimization is complete! (in 13 steps) ****
    Final optimized geometry and variables:
    Molecular point group: c1

    Geometry (in Angstrom), charge = 0, multiplicity = 1:

    H           -3.052428757993    -1.315681905235     0.139356456346
    C           -3.119035391337    -0.458177044420    -0.538205348565
    C           -2.772201825640     0.880692982595     0.062510859923
    O           -3.471023626874    -0.615868847996    -1.662671207699
    C           -1.312811165969     1.025752445731     0.580579218712
    H           -3.002242620194     1.645410898939    -0.668691086896
    H           -3.458422953121     1.032799034857     0.893563475243
    C           -0.331117630982    -0.066578743660     0.137867907423
    H           -0.936356116115     1.989907070408     0.255781566137
    H           -1.319452588918     1.057314542388     1.665888986850
    C            1.101784533119     0.221973477129     0.590711205200
    H           -0.352631149512    -0.163928328300    -0.945735108932
    H           -0.639764887505    -1.029012124355     0.538996726481
    C            2.088304339565    -0.870726389541     0.170152384164
    H            1.412370612943     1.181041535758     0.184690487834
    H            1.122372738802     0.326317466448     1.674632663091
    C            3.521513635976    -0.666410854153     0.674410959560
    H            2.098059804237    -0.948138450569    -0.915738098574
    H            1.726188707466    -1.828204221928     0.538932639610
    C            4.234175504039     0.553430401972     0.087582907889
    H            4.099250952058    -1.555753013639     0.435406441327
    H            3.513767379564    -0.593180457076     1.760098780705
    H            4.245737925456     0.513510742347    -0.998313338486
    H            3.757046543483     1.483094526602     0.379560277285
    H            5.264595451691     0.597075060486     0.426550853811

  Mulliken Charges: (a.u.)
   Center  Symbol    Alpha    Beta     Spin     Total
       1     H     0.43042  0.43042  0.00000  0.13917
       2     C     2.83321  2.83321  0.00000  0.33358
       3     C     3.21234  3.21234  0.00000 -0.42468
       4     O     4.23747  4.23747  0.00000 -0.47495
       5     C     3.15869  3.15869  0.00000 -0.31738
       6     H     0.39804  0.39804  0.00000  0.20392
       7     H     0.40916  0.40916  0.00000  0.18168
       8     C     3.16525  3.16525  0.00000 -0.33050
       9     H     0.41152  0.41152  0.00000  0.17696
      10     H     0.41658  0.41658  0.00000  0.16684
      11     C     3.15378  3.15378  0.00000 -0.30756
      12     H     0.41332  0.41332  0.00000  0.17335
      13     H     0.42194  0.42194  0.00000  0.15613
      14     C     3.15313  3.15313  0.00000 -0.30626
      15     H     0.41960  0.41960  0.00000  0.16080
      16     H     0.42359  0.42359  0.00000  0.15282
      17     C     3.15277  3.15277  0.00000 -0.30554
      18     H     0.42196  0.42196  0.00000  0.15609
      19     H     0.42189  0.42189  0.00000  0.15621
      20     C     3.24148  3.24148  0.00000 -0.48296
      21     H     0.41994  0.41994  0.00000  0.16012
      22     H     0.42341  0.42341  0.00000  0.15318
      23     H     0.42140  0.42140  0.00000  0.15720
      24     H     0.42051  0.42051  0.00000  0.15898
      25     H     0.41860  0.41860  0.00000  0.16279

   Total alpha = 36.00000, Total beta = 36.00000, Total charge =  0.00000
