                              Psi4 1.0.54 Driver

  ==> Input File <==

--------------------------------------------------------------------------
set {
	reference rhf
	basis cc-pvtz
}

set_num_threads( 4 )
memory 2 gb

molecule MOL {
0 1

O	 3.219313	 0.959291	 -0.614106
C	 2.698710	 0.058177	 -0.050237
C	 1.246364	 -0.005813	 0.348416
O	 3.344101	 -1.038700	 0.312317
C	 0.453207	 1.232821	 -0.049003
H	 0.839270	 -0.907818	 -0.092281
H	 1.216683	 -0.160521	 1.422434
C	 -0.998367	 1.217982	 0.432195
H	 0.481498	 1.345443	 -1.127236
H	 0.951413	 2.105557	 0.354893
C	 -1.882951	 0.151251	 -0.211235
H	 -1.429490	 2.193659	 0.228843
H	 -1.019755	 1.099323	 1.513279
C	 -3.342450	 0.243269	 0.226009
H	 -1.826223	 0.246578	 -1.293162
H	 -1.508033	 -0.839650	 0.027695
C	 -4.333090	 -0.045063	 -0.898389
H	 -3.535157	 1.235590	 0.626637
H	 -3.517057	 -0.452688	 1.043335
C	 -5.788905	 0.050578	 -0.454282
H	 -4.159981	 0.649706	 -1.715732
H	 -4.143632	 -1.037652	 -1.298051
H	 -6.464949	 -0.159674	 -1.275100
H	 -6.019945	 1.043025	 -0.081752
H	 -6.003127	 -0.656957	 0.339891
C	 4.720529	 -1.114346	 0.001449
H	 4.874321	 -1.055557	 -1.065852
H	 5.057824	 -2.067950	 0.373977
H	 5.264321	 -0.313596	 0.480350

	symmetry c1
}
set optking {
	frozen_dihedral = ("
		17 14 11 15
	")
}

ee,wfn = optimize('scf', return_wfn=True)
oeprop( wfn, 'DIPOLE', 'QUADRUPOLE', 'MULLIKEN_CHARGES')
f=open( 'psi4out.xyz', 'w' )
f.write( "29  " )
f.write( str(ee) + "\n" )
f.write( MOL.save_string_xyz() )
f.close()
--------------------------------------------------------------------------

    Molecular point group: c1
  Charge       = 0
  Multiplicity = 1
  Basis Set: CC-PVTZ
  Basis Set:
  @DF-RHF Final Energy:  -501.22097458799203
    Total Energy =                       -501.2209745879928278
    Molecular point group: c1
  Basis Set: CC-PVTZ
  Basis Set:
  Basis Set: CC-PVTZ
  Basis Set:
  @DF-RHF Final Energy:  -501.22109098207727
    Total Energy =                       -501.2210909820773850
  Basis Set: CC-PVTZ
  Basis Set:
  Basis Set: CC-PVTZ
  Basis Set:
  @DF-RHF Final Energy:  -501.22128999288134
    Total Energy =                       -501.2212899928811112
  Basis Set: CC-PVTZ
  Basis Set:
  Basis Set: CC-PVTZ
  Basis Set:
  @DF-RHF Final Energy:  -501.22100270442581
    Total Energy =                       -501.2210027044254730
  Basis Set: CC-PVTZ
  Basis Set:
  Basis Set: CC-PVTZ
  Basis Set:
  @DF-RHF Final Energy:  -501.22130382467162
    Total Energy =                       -501.2213038246713950
  Basis Set: CC-PVTZ
  Basis Set:
  Basis Set: CC-PVTZ
  Basis Set:
  @DF-RHF Final Energy:  -501.22130246481811
    Total Energy =                       -501.2213024648176543
  Basis Set: CC-PVTZ
  Basis Set:
  Basis Set: CC-PVTZ
  Basis Set:
  @DF-RHF Final Energy:  -501.22130590193228
    Total Energy =                       -501.2213059019321690
  Basis Set: CC-PVTZ
  Basis Set:
  Charge       = 0
  Multiplicity = 1
  Basis Set: CC-PVTZ
  Basis Set:

    Orbital Energies (a.u.)
    -----------------------

    Doubly Occupied:

       1A    -20.596022     2A    -20.533867     3A    -11.364295
       4A    -11.278272     5A    -11.233018     6A    -11.217091
       7A    -11.216077     8A    -11.214136     9A    -11.213396
      10A    -11.212097    11A    -11.206868    12A     -1.471923
      13A     -1.365503    14A     -1.098533    15A     -1.067454
      16A     -1.020438    17A     -0.977626    18A     -0.929071
      19A     -0.862627    20A     -0.801315    21A     -0.790764
      22A     -0.765930    23A     -0.703316    24A     -0.685458
      25A     -0.675898    26A     -0.646794    27A     -0.628403
      28A     -0.606994    29A     -0.598682    30A     -0.581043
      31A     -0.565521    32A     -0.553422    33A     -0.533337
      34A     -0.531006    35A     -0.518810    36A     -0.510755
      37A     -0.498224    38A     -0.477109    39A     -0.472327
      40A     -0.462785    41A     -0.459361    42A     -0.453354
      43A     -0.444215    44A     -0.437609

  @DF-RHF Final Energy:  -501.22130601183767

   => Energetics <=

    Nuclear Repulsion Energy =            610.4826384865407363
    One-Electron Energy =               -1892.4463889257476694
    Two-Electron Energy =                 780.7424444273683548
    DFT Exchange-Correlation Energy =       0.0000000000000000
    Empirical Dispersion Energy =           0.0000000000000000
    PCM Polarization Energy =               0.0000000000000000
    EFP Energy =                            0.0000000000000000
    Total Energy =                       -501.2213060118385783
    Molecular point group: c1
  Basis Set: CC-PVTZ
  Basis Set:

  -Total Gradient:
     Atom            X                  Y                   Z
    ------   -----------------  -----------------  -----------------
       1        0.000009117346    -0.000001882079     0.000007875553
       2       -0.000007589942    -0.000011437892    -0.000017456698
       3        0.000002920651     0.000001651108     0.000004747242
       4        0.000000621405     0.000009477421     0.000001581903
       5       -0.000002616615     0.000004851921    -0.000000313389
       6        0.000003577787     0.000001111427     0.000001823642
       7       -0.000002002116    -0.000000178170     0.000001423223
       8        0.000006927796    -0.000007847638    -0.000001098439
       9       -0.000000119765     0.000000509586     0.000000305752
      10        0.000002677300     0.000000194327    -0.000001304109
      11        0.000299477628     0.005947594574     0.000398461064
      12       -0.000005254267    -0.000002285676     0.000000933204
      13        0.000001564461    -0.000001261155     0.000000541719
      14        0.000091917831    -0.004868810967     0.000684100181
      15       -0.000265013136    -0.003893299020    -0.000512151509
      16       -0.000002261522     0.000004950176    -0.000002491624
      17       -0.000122921577     0.002811109986    -0.000558566068
      18       -0.000005466332    -0.000001706436     0.000000322195
      19       -0.000005024436     0.000002142793     0.000002256553
      20       -0.000000126361     0.000005581159    -0.000011199123
      21       -0.000002394700     0.000001478092    -0.000002012246
      22       -0.000001724991    -0.000003041672     0.000002615579
      23       -0.000004005382     0.000001960825    -0.000002085929
      24        0.000001238311     0.000001889468     0.000001660155
      25        0.000005380558    -0.000002862531    -0.000000542835
      26        0.000000485210    -0.000002078934     0.000001341806
      27       -0.000001272229     0.000001823555    -0.000000796193
      28        0.000002331179    -0.000001183979     0.000000421481
      29       -0.000000444092     0.000001549732    -0.000000393091

  **** Optimization is complete! (in 8 steps) ****
    Final optimized geometry and variables:
    Molecular point group: c1

    Geometry (in Angstrom), charge = 0, multiplicity = 1:

    O            3.254839525443     0.805244179080    -0.520034697573
    C            2.721731439235    -0.095851515695     0.032061213129
    C            1.266980926732    -0.147935010111     0.423820073111
    O            3.353377542838    -1.203626094173     0.385555408368
    C            0.489748893188     1.104226684150     0.037098290308
    H            0.852075299190    -1.040570789776    -0.028367718823
    H            1.230958409890    -0.314010612703     1.495916997807
    C           -0.964532661734     1.101513763965     0.509773970322
    H            0.525439886110     1.230198835642    -1.039486116011
    H            0.995824168514     1.965907311266     0.454770900464
    C           -1.865789307531     0.074550876941    -0.171542080778
    H           -1.377784230910     2.090371950304     0.335483274633
    H           -0.995851857955     0.948885534057     1.586646270498
    C           -3.322082001098     0.113029411937     0.318043694563
    H           -1.837987739866     0.213993826507    -1.248977425812
    H           -1.473228776879    -0.924780386979    -0.009898360709
    C           -4.344630084574    -0.153990460413    -0.783675534830
    H           -3.532908539069     1.091123961184     0.743354443601
    H           -3.458909193691    -0.598681872563     1.126676842058
    C           -5.783979572491    -0.150365550143    -0.280874857616
    H           -4.230205241906     0.598151525238    -1.559026518426
    H           -4.130284746468    -1.110278688575    -1.254411608252
    H           -6.483364587693    -0.329410934987    -1.089471826947
    H           -6.037941158427     0.802930543957     0.170930237218
    H           -5.939381308717    -0.920591292132     0.467282055365
    C            4.730219742581    -1.291200906623     0.079621872062
    H            4.889196111377    -1.222613732908    -0.986337176541
    H            5.055449980545    -2.252426615336     0.443207025809
    H            5.280756155586    -0.501701205443     0.569383459100

  Mulliken Charges: (a.u.)
   Center  Symbol    Alpha    Beta     Spin     Total
       1     O     4.19699  4.19699  0.00000 -0.39397
       2     C     2.80473  2.80473  0.00000  0.39054
       3     C     3.10169  3.10169  0.00000 -0.20338
       4     O     4.14724  4.14724  0.00000 -0.29448
       5     C     3.09266  3.09266  0.00000 -0.18531
       6     H     0.43913  0.43913  0.00000  0.12173
       7     H     0.43995  0.43995  0.00000  0.12010
       8     C     3.10312  3.10312  0.00000 -0.20624
       9     H     0.44610  0.44610  0.00000  0.10781
      10     H     0.43955  0.43955  0.00000  0.12090
      11     C     3.09723  3.09723  0.00000 -0.19446
      12     H     0.44527  0.44527  0.00000  0.10946
      13     H     0.45267  0.45267  0.00000  0.09466
      14     C     3.08823  3.08823  0.00000 -0.17647
      15     H     0.45227  0.45227  0.00000  0.09547
      16     H     0.45247  0.45247  0.00000  0.09506
      17     C     3.08310  3.08310  0.00000 -0.16619
      18     H     0.45572  0.45572  0.00000  0.08856
      19     H     0.45239  0.45239  0.00000  0.09522
      20     C     3.15062  3.15062  0.00000 -0.30125
      21     H     0.45409  0.45409  0.00000  0.09182
      22     H     0.45427  0.45427  0.00000  0.09145
      23     H     0.44841  0.44841  0.00000  0.10318
      24     H     0.45496  0.45496  0.00000  0.09008
      25     H     0.45519  0.45519  0.00000  0.08961
      26     C     3.03810  3.03810  0.00000 -0.07620
      27     H     0.45434  0.45434  0.00000  0.09131
      28     H     0.44528  0.44528  0.00000  0.10944
      29     H     0.45423  0.45423  0.00000  0.09155

   Total alpha = 44.00000, Total beta = 44.00000, Total charge = -0.00000

*** Psi4 exiting successfully. Buy a developer a beer!
