  ==> Input File <==

--------------------------------------------------------------------------
set {
	reference rhf
	basis cc-pvtz
}

set_num_threads( 4 )
memory 2 gb

molecule MOL {
0 1

H	 -3.162190	 0.493205	 -0.000107
C	 -2.363908	 -0.234727	 0.000005
O	 -1.158738	 0.454634	 -0.000087
H	 -2.464314	 -0.863616	 -0.882153
H	 -2.464327	 -0.863359	 0.882345
C	 -0.028611	 -0.359694	 0.000037
C	 1.212847	 0.509314	 -0.000053
H	 -0.034155	 -1.007047	 -0.877198
H	 -0.034195	 -1.006836	 0.877430
C	 2.492116	 -0.302825	 -0.168137
H	 1.124843	 1.237298	 -0.798939
H	 1.244004	 1.067198	 0.929326
H	 2.492434	 -0.850745	 -1.104550
H	 3.362271	 0.342032	 -0.164814
H	 2.612544	 -1.021765	 0.635411

	symmetry c1
}
set optking {
	frozen_dihedral = ("
		11 7 6 8
	")
}

ee = optimize('scf')
oeprop('DIPOLE', 'QUADRUPOLE', 'MULLIKEN_CHARGES')
f=open( 'psi4out.xyz', 'w' )
f.write( "15  " )
f.write( str(ee) + "\n" )
f.write( MOL.save_string_xyz() )
f.close()
--------------------------------------------------------------------------

    Molecular point group: c1
  Charge       = 0
  Multiplicity = 1
  Basis Set: CC-PVTZ
  Basis Set:
  @DF-RHF Final Energy:  -232.22803006268731
    Total Energy =                       -232.2280300626875373
    Molecular point group: c1
  Basis Set: CC-PVTZ
  Basis Set:
  Basis Set: CC-PVTZ
  Basis Set:
  @DF-RHF Final Energy:  -232.22805655589397
    Total Energy =                       -232.2280565558939998
  Basis Set: CC-PVTZ
  Basis Set:
  Charge       = 0
  Multiplicity = 1
  Basis Set: CC-PVTZ
  Basis Set:

    Orbital Energies (a.u.)
    -----------------------

    Doubly Occupied:

       1A    -20.547897     2A    -11.264407     3A    -11.261906
       4A    -11.212747     5A    -11.210827     6A     -1.382173
       7A     -1.058371     8A     -0.956263     9A     -0.877574
      10A     -0.809753    11A     -0.676795    12A     -0.656467
      13A     -0.632492    14A     -0.608047    15A     -0.565421
      16A     -0.540853    17A     -0.504186    18A     -0.490661
      19A     -0.477786    20A     -0.463055    21A     -0.416717

  @DF-RHF Final Energy:  -232.22806290330593

   => Energetics <=

    Nuclear Repulsion Energy =            189.9908797702118193
    One-Electron Energy =                -691.2090907617036919
    Two-Electron Energy =                 268.9901480881857196
    DFT Exchange-Correlation Energy =       0.0000000000000000
    Empirical Dispersion Energy =           0.0000000000000000
    PCM Polarization Energy =               0.0000000000000000
    EFP Energy =                            0.0000000000000000
    Total Energy =                       -232.2280629033061814
    Molecular point group: c1
  Basis Set: CC-PVTZ
  Basis Set:

  -Total Gradient:
     Atom            X                  Y                   Z
    ------   -----------------  -----------------  -----------------
       1        0.000004335834     0.000007419887     0.000008096199
       2        0.000053855884    -0.000024247939    -0.000029633061
       3       -0.000142029565     0.000158665647    -0.000025659085
       4       -0.000016454068    -0.000008953549     0.000002620403
       5       -0.000000370593    -0.000000659602     0.000007893868
       6       -0.000875070323     0.001208043900    -0.000662829138
       7        0.000872443402    -0.001204287703    -0.000890602226
       8        0.000657667080    -0.000933518704     0.000761440605
       9        0.000017496699    -0.000005378605    -0.000041623324
      10        0.000043757480    -0.000069985984     0.000008306020
      11       -0.000614513350     0.000862471273     0.000899244980
      12        0.000009913150    -0.000002238746    -0.000033238372
      13       -0.000005335496    -0.000006079487    -0.000012214213
      14       -0.000010845460     0.000017503675     0.000012654876
      15        0.000005149327     0.000001245940    -0.000004457532

  **** Optimization is complete! (in 3 steps) ****
    Final optimized geometry and variables:
    Molecular point group: c1

    Geometry (in Angstrom), charge = 0, multiplicity = 1:

    H           -3.162254652889     0.491001582231     0.050287004880
    C           -2.363397973420    -0.236407315506     0.047268986538
    O           -1.158665270788     0.453245445525     0.029023691958
    H           -2.472981696157    -0.872147953938    -0.828953204728
    H           -2.453946276505    -0.858534100074     0.935320691214
    C           -0.028633961742    -0.360147648247     0.019879751456
    C            1.214666892546     0.507097209143     0.026535720913
    H           -0.032826957217    -1.006555225494    -0.858203373437
    H           -0.031648081979    -1.014532804211     0.892173094759
    C            2.495613559335    -0.305320643432    -0.123040742419
    H            1.129548682225     1.235882921227    -0.771809574859
    H            1.238022713723     1.070766948325     0.953128601892
    H            2.514594871694    -0.843024488221    -1.065034206228
    H            3.366732268838     0.337667878883    -0.093200898047
    H            2.597458547227    -1.033300137809     0.675205049754

  Mulliken Charges: (a.u.)
   Center  Symbol    Alpha    Beta     Spin     Total
       1     H     0.44684  0.44684  0.00000  0.10631
       2     C     3.03338  3.03338  0.00000 -0.06677
       3     O     4.17137  4.17137  0.00000 -0.34274
       4     H     0.47220  0.47220  0.00000  0.05560
       5     H     0.47194  0.47194  0.00000  0.05612
       6     C     2.95601  2.95601  0.00000  0.08798
       7     C     3.08040  3.08040  0.00000 -0.16081
       8     H     0.47661  0.47661  0.00000  0.04678
       9     H     0.47548  0.47548  0.00000  0.04905
      10     C     3.15562  3.15562  0.00000 -0.31124
      11     H     0.45042  0.45042  0.00000  0.09916
      12     H     0.45193  0.45193  0.00000  0.09614
      13     H     0.45542  0.45542  0.00000  0.08917
      14     H     0.44630  0.44630  0.00000  0.10741
      15     H     0.45608  0.45608  0.00000  0.08784

   Total alpha = 21.00000, Total beta = 21.00000, Total charge =  0.00000
