  ==> Input File <==

--------------------------------------------------------------------------
set {
	reference rhf
	basis cc-pvtz
}

set_num_threads( 4 )
memory 2 gb

molecule MOL {
0 1

H	 1.887054	 1.681374	 0.336132
O	 1.006873	 1.336734	 0.351661
C	 1.050374	 0.054877	 0.000135
C	 -0.318151	 -0.570512	 0.000144
O	 2.064343	 -0.489084	 -0.271788
C	 -1.454884	 0.441630	 -0.000560
H	 -0.371613	 -1.223646	 -0.864985
H	 -0.371920	 -1.222758	 0.865929
C	 -2.822577	 -0.232186	 0.000063
H	 -1.359760	 1.084704	 -0.867077
H	 -1.359641	 1.085996	 0.864983
H	 -2.954352	 -0.858985	 -0.875745
H	 -3.615886	 0.505352	 0.000019
H	 -2.953878	 -0.858359	 0.876394

	symmetry c1
}
set optking {
	frozen_dihedral = ("
		2 3 4 7
	")
}

ee = optimize('scf')
oeprop('DIPOLE', 'QUADRUPOLE', 'MULLIKEN_CHARGES')
f=open( 'psi4out.xyz', 'w' )
f.write( "14  " )
f.write( str(ee) + "\n" )
f.write( MOL.save_string_xyz() )
f.close()
--------------------------------------------------------------------------

    Molecular point group: c1
  Charge       = 0
  Multiplicity = 1
  Basis Set: CC-PVTZ
  Basis Set:
  @DF-RHF Final Energy:  -305.99731180830929
    Total Energy =                       -305.9973118083091776
    Molecular point group: c1
  Basis Set: CC-PVTZ
  Basis Set:
  Basis Set: CC-PVTZ
  Basis Set:
  @DF-RHF Final Energy:  -305.99814608063366
    Total Energy =                       -305.9981460806335463
  Basis Set: CC-PVTZ
  Basis Set:
  Basis Set: CC-PVTZ
  Basis Set:
  @DF-RHF Final Energy:  -305.99825466185126
    Total Energy =                       -305.9982546618513197
  Basis Set: CC-PVTZ
  Basis Set:
  Basis Set: CC-PVTZ
  Basis Set:
  @DF-RHF Final Energy:  -305.99837067934442
    Total Energy =                       -305.9983706793440206
  Basis Set: CC-PVTZ
  Basis Set:
  Basis Set: CC-PVTZ
  Basis Set:
  @DF-RHF Final Energy:  -305.99841965749556
    Total Energy =                       -305.9984196574955035
  Basis Set: CC-PVTZ
  Basis Set:
  Basis Set: CC-PVTZ
  Basis Set:
  @DF-RHF Final Energy:  -305.99843253363906
    Total Energy =                       -305.9984325336390043
  Basis Set: CC-PVTZ
  Basis Set:
  Charge       = 0
  Multiplicity = 1
  Basis Set: CC-PVTZ
  Basis Set:

    Orbital Energies (a.u.)
    -----------------------

    Doubly Occupied:

       1A    -20.607127     2A    -20.536810     3A    -11.374438
       4A    -11.240123     5A    -11.228422     6A    -11.217836
       7A     -1.479261     8A     -1.368116     9A     -1.086362
      10A     -0.979260    11A     -0.848422    12A     -0.820940
      13A     -0.703715    14A     -0.682615    15A     -0.668408
      16A     -0.620012    17A     -0.593197    18A     -0.565132
      19A     -0.550829    20A     -0.527189    21A     -0.498012
      22A     -0.493483    23A     -0.471247    24A     -0.439974

  @DF-RHF Final Energy:  -305.99843292039066

   => Energetics <=

    Nuclear Repulsion Energy =            240.8563719813189437
    One-Electron Energy =                -894.5077532017386375
    Two-Electron Energy =                 347.6529483000290384
    DFT Exchange-Correlation Energy =       0.0000000000000000
    Empirical Dispersion Energy =           0.0000000000000000
    PCM Polarization Energy =               0.0000000000000000
    EFP Energy =                            0.0000000000000000
    Total Energy =                       -305.9984329203906555
    Molecular point group: c1
  Basis Set: CC-PVTZ
  Basis Set:

  -Total Gradient:
     Atom            X                  Y                   Z
    ------   -----------------  -----------------  -----------------
       1        0.000018476311     0.000055070658     0.000019044164
       2        0.000030186324     0.000032903849    -0.000595385034
       3       -0.000057004904    -0.000139579941     0.000697098826
       4        0.000256153243    -0.000607148031     0.000288103792
       5        0.000078131140     0.000131215395     0.000000318721
       6       -0.000005217524     0.000001176799    -0.000062893157
       7       -0.000252468774     0.000517096299    -0.000365256324
       8       -0.000038412295     0.000003295366    -0.000014447470
       9       -0.000030919512     0.000021623095     0.000004623680
      10       -0.000006359357    -0.000017221019     0.000023370874
      11        0.000019696998     0.000003436392     0.000002060020
      12        0.000004509586     0.000002360832     0.000002008702
      13       -0.000020582359    -0.000007231974     0.000003573223
      14        0.000003811126     0.000003002281    -0.000002220017

  **** Optimization is complete! (in 7 steps) ****
    Final optimized geometry and variables:
    Molecular point group: c1

    Geometry (in Angstrom), charge = 0, multiplicity = 1:

    H            2.055245995776     1.518239780404     0.296402023081
    O            1.151357929355     1.240696698560     0.311553618819
    C            1.107537440975    -0.044538943569    -0.017428589398
    C           -0.279977917455    -0.637764302717    -0.010426145719
    O            2.085608271322    -0.658020705969    -0.276467348806
    C           -1.447090518232     0.344492606438    -0.005810579129
    H           -0.328640832260    -1.293263453506    -0.870677312707
    H           -0.322532893717    -1.281245812388     0.863188556440
    C           -2.791137463705    -0.375506207612    -0.029027986566
    H           -1.371173023838     1.001406982364    -0.865162907305
    H           -1.386468037737     0.978861912896     0.869456808609
    H           -2.891797194842    -0.994148210422    -0.914373835622
    H           -3.609719530445     0.333957798619    -0.026607872143
    H           -2.907672064909    -1.017958338030     0.837408365467

  Mulliken Charges: (a.u.)
   Center  Symbol    Alpha    Beta     Spin     Total
       1     H     0.38394  0.38394  0.00000  0.23212
       2     O     4.15151  4.15151  0.00000 -0.30301
       3     C     2.81213  2.81213  0.00000  0.37575
       4     C     3.09615  3.09615  0.00000 -0.19231
       5     O     4.19702  4.19702  0.00000 -0.39403
       6     C     3.08449  3.08449  0.00000 -0.16898
       7     H     0.43547  0.43547  0.00000  0.12906
       8     H     0.44028  0.44028  0.00000  0.11944
       9     C     3.15164  3.15164  0.00000 -0.30328
      10     H     0.44787  0.44787  0.00000  0.10425
      11     H     0.44538  0.44538  0.00000  0.10925
      12     H     0.45411  0.45411  0.00000  0.09179
      13     H     0.44542  0.44542  0.00000  0.10916
      14     H     0.45460  0.45460  0.00000  0.09080

   Total alpha = 24.00000, Total beta = 24.00000, Total charge = -0.00000
