  ==> Input File <==

--------------------------------------------------------------------------
set {
	reference rhf
	basis 6-31G*
}

set_num_threads( 4 )
memory 2 gb

molecule MOL {
0 1

O	 1.799108	 1.379915	 -0.286952
C	 1.566846	 0.358471	 -0.848935
C	 0.246615	 -0.372681	 -0.832366
O	 2.463226	 -0.284682	 -1.586494
C	 -0.823008	 0.326187	 0.001381
H	 -0.072660	 -0.489723	 -1.864392
H	 0.436787	 -1.377936	 -0.466284
C	 -2.149452	 -0.435131	 -0.000098
H	 -0.973909	 1.331072	 -0.380227
H	 -0.464501	 0.440967	 1.019520
C	 -3.368779	 0.488503	 -0.000883
H	 -2.193746	 -1.087250	 -0.871175
H	 -2.195311	 -1.087803	 0.870418
C	 -4.693822	 -0.272754	 -0.001129
H	 -3.325798	 1.139422	 -0.871284
H	 -3.326423	 1.139959	 0.869145
H	 -4.781274	 -0.907928	 -0.878124
H	 -5.538651	 0.408946	 -0.001420
H	 -4.781694	 -0.907783	 0.875984
C	 3.749666	 0.298238	 -1.687652
H	 3.687652	 1.281028	 -2.132405
H	 4.324125	 -0.362120	 -2.318366
H	 4.208535	 0.378012	 -0.712674

	symmetry c1
}
set optking {
	frozen_dihedral = ("
		9 5 8 12
	")
}

ee = optimize('scf')
oeprop('DIPOLE', 'QUADRUPOLE', 'MULLIKEN_CHARGES')
f=open( 'psi4out.xyz', 'w' )
f.write( "23  " )
f.write( str(ee) + "\n" )
f.write( MOL.save_string_xyz() )
f.close()
--------------------------------------------------------------------------

    Molecular point group: c1
  Charge       = 0
  Multiplicity = 1
  Basis Set: 6-31G*
  Basis Set:
  @DF-RHF Final Energy:  -422.97254679063781
    Total Energy =                       -422.9725467906375798
    Molecular point group: c1
  Basis Set: 6-31G*
  Basis Set:
  Basis Set: 6-31G*
  Basis Set:
  @DF-RHF Final Energy:  -422.97282867915368
    Total Energy =                       -422.9728286791539631
  Basis Set: 6-31G*
  Basis Set:
  Basis Set: 6-31G*
  Basis Set:
  @DF-RHF Final Energy:  -422.97267155447099
    Total Energy =                       -422.9726715544713898
  Basis Set: 6-31G*
  Basis Set:
  Basis Set: 6-31G*
  Basis Set:
  @DF-RHF Final Energy:  -422.97290700505135
    Total Energy =                       -422.9729070050512973
  Basis Set: 6-31G*
  Basis Set:
  Basis Set: 6-31G*
  Basis Set:
  @DF-RHF Final Energy:  -422.97290092199307
    Total Energy =                       -422.9729009219928457
  Basis Set: 6-31G*
  Basis Set:
  Charge       = 0
  Multiplicity = 1
  Basis Set: 6-31G*
  Basis Set:

    Orbital Energies (a.u.)
    -----------------------

    Doubly Occupied:

       1A    -20.603677     2A    -20.545545     3A    -11.372246
       4A    -11.280882     5A    -11.236037     6A    -11.218831
       7A    -11.217647     8A    -11.217008     9A    -11.209712
      10A     -1.469372    11A     -1.362833    12A     -1.091814
      13A     -1.043854    14A     -0.986620    15A     -0.931904
      16A     -0.844501    17A     -0.795786    18A     -0.767599
      19A     -0.698560    20A     -0.682882    21A     -0.672039
      22A     -0.644587    23A     -0.612723    24A     -0.599212
      25A     -0.572918    26A     -0.559229    27A     -0.555352
      28A     -0.526067    29A     -0.521547    30A     -0.505249
      31A     -0.486857    32A     -0.470679    33A     -0.463817
      34A     -0.459911    35A     -0.453908    36A     -0.435400

  @DF-RHF Final Energy:  -422.97291328545055

   => Energetics <=

    Nuclear Repulsion Energy =            452.1477638633272136
    One-Electron Energy =               -1472.0077429042150925
    Two-Electron Energy =                 596.8870657554374475
    DFT Exchange-Correlation Energy =       0.0000000000000000
    Empirical Dispersion Energy =           0.0000000000000000
    PCM Polarization Energy =               0.0000000000000000
    EFP Energy =                            0.0000000000000000
    Total Energy =                       -422.9729132854504314
    Molecular point group: c1
  Basis Set: 6-31G*
  Basis Set:

  -Total Gradient:
     Atom            X                  Y                   Z
    ------   -----------------  -----------------  -----------------
       1        0.000011430455     0.000000677397    -0.000005474395
       2       -0.000020452736     0.000003220618     0.000009982939
       3        0.000007985965    -0.000019728063    -0.000007703705
       4        0.000014960944     0.000005963093     0.000005842661
       5        0.001373041699    -0.002424569095    -0.004330776366
       6       -0.000009266511     0.000002940692     0.000003610042
       7       -0.000009254034     0.000010104019     0.000002263063
       8       -0.002428316713     0.004155973519    -0.001762467234
       9       -0.000735154144     0.001342696055     0.003910181917
      10       -0.000005032567    -0.000001507363    -0.000006972368
      11       -0.000012935169     0.000019707119     0.000010837713
      12        0.001801013084    -0.003076408057     0.002189113855
      13       -0.000001015837     0.000001853661    -0.000004222422
      14        0.000001468576    -0.000008173999    -0.000003282165
      15        0.000008204181    -0.000008105173     0.000001623757
      16        0.000008645535    -0.000005665276    -0.000004958376
      17       -0.000002035885     0.000000683560     0.000002600513
      18       -0.000009164039    -0.000001692606     0.000000326675
      19        0.000001941536     0.000002222718    -0.000003411281
      20       -0.000000922037     0.000000037025    -0.000009708831
      21        0.000002361339    -0.000000400889     0.000000675859
      22        0.000003626674     0.000000724498     0.000000545322
      23       -0.000001130317    -0.000000553453     0.000001372828

  **** Optimization is complete! (in 6 steps) ****
    Final optimized geometry and variables:
    Molecular point group: c1

    Geometry (in Angstrom), charge = 0, multiplicity = 1:

    O            1.901777135396     1.204187804473     0.318327253226
    C            1.674044073659     0.190779483995    -0.259805749658
    C            0.345350736304    -0.524551409009    -0.288738602332
    O            2.584694500418    -0.458121319532    -0.974485967395
    C           -0.740881942973     0.179343908246     0.516407303420
    H            0.055526673364    -0.630854778395    -1.330408330145
    H            0.511284932720    -1.534692380382     0.076266918342
    C           -2.072686323837    -0.591314918077     0.528339502233
    H           -0.890144063042     1.186978001825     0.141517359016
    H           -0.392093098423     0.314666495137     1.534999279330
    C           -3.301662412704     0.314924822885     0.596308677910
    H           -2.138437154343    -1.244928859108    -0.339983769270
    H           -2.082651489908    -1.265479523922     1.382939649246
    C           -4.614197173314    -0.462414899793     0.680685313841
    H           -3.318225557128     0.961101861962    -0.278544335550
    H           -3.213620152335     0.972431205489     1.458583105137
    H           -4.743093615559    -1.109085685387    -0.182834344248
    H           -5.466583470226     0.208579581266     0.721158706175
    H           -4.643364503467    -1.088053274113     1.568292885925
    C            3.880632929840     0.109581243618    -1.031982141875
    H            3.844237618062     1.096127300749    -1.471204569701
    H            4.466133546545    -0.553400466929    -1.649726038314
    H            4.310309511920     0.176801349563    -0.042853289596

  Mulliken Charges: (a.u.)
   Center  Symbol    Alpha    Beta     Spin     Total
       1     O     4.28595  4.28595  0.00000 -0.57190
       2     C     2.60525  2.60525  0.00000  0.78949
       3     C     3.20923  3.20923  0.00000 -0.41845
       4     O     4.30741  4.30741  0.00000 -0.61481
       5     C     3.15513  3.15513  0.00000 -0.31027
       6     H     0.40035  0.40035  0.00000  0.19930
       7     H     0.40027  0.40027  0.00000  0.19946
       8     C     3.15527  3.15527  0.00000 -0.31053
       9     H     0.41066  0.41066  0.00000  0.17869
      10     H     0.40983  0.40983  0.00000  0.18035
      11     C     3.15271  3.15271  0.00000 -0.30543
      12     H     0.42355  0.42355  0.00000  0.15290
      13     H     0.42123  0.42123  0.00000  0.15754
      14     C     3.24019  3.24019  0.00000 -0.48038
      15     H     0.42188  0.42188  0.00000  0.15624
      16     H     0.42038  0.42038  0.00000  0.15925
      17     H     0.42185  0.42185  0.00000  0.15629
      18     H     0.41847  0.41847  0.00000  0.16305
      19     H     0.42137  0.42137  0.00000  0.15725
      20     C     3.09246  3.09246  0.00000 -0.18492
      21     H     0.40906  0.40906  0.00000  0.18188
      22     H     0.40843  0.40843  0.00000  0.18313
      23     H     0.40906  0.40906  0.00000  0.18187

   Total alpha = 36.00000, Total beta = 36.00000, Total charge =  0.00000
