  ==> Input File <==

--------------------------------------------------------------------------
set {
	reference rhf
	basis cc-pvtz
}

set_num_threads( 4 )
memory 2 gb

molecule MOL {
0 1

H	 -0.366580	 2.045936	 -0.305741
C	 0.351829	 1.335402	 0.083179
N	 -0.000018	 0.000080	 -0.334836
H	 1.327156	 1.599860	 -0.305475
H	 0.380566	 1.445403	 1.171445
C	 0.417225	 -0.993471	 0.624926
C	 -1.402550	 -0.113738	 -0.654508
H	 0.200924	 -1.985124	 0.248190
H	 1.485202	 -0.923957	 0.788576
H	 -0.080844	 -0.883547	 1.592869
H	 -1.665003	 0.598759	 -1.426291
H	 -1.616983	 -1.106415	 -1.029657
H	 -2.050364	 0.068890	 0.208101

	symmetry c1
}
set optking {
	frozen_dihedral = ("
		6 3 2 1
	")
}

ee = optimize('scf')
oeprop('DIPOLE', 'QUADRUPOLE', 'MULLIKEN_CHARGES')
f=open( 'psi4out.xyz', 'w' )
f.write( "13  " )
f.write( str(ee) + "\n" )
f.write( MOL.save_string_xyz() )
f.close()
--------------------------------------------------------------------------

    Molecular point group: c1
  Charge       = 0
  Multiplicity = 1
  Basis Set: CC-PVTZ
  Basis Set:
  @DF-RHF Final Energy:  -173.32981894413928
    Total Energy =                       -173.3298189441393049
    Molecular point group: c1
  Basis Set: CC-PVTZ
  Basis Set:
  Basis Set: CC-PVTZ
  Basis Set:
  @DF-RHF Final Energy:  -173.33017026407529
    Total Energy =                       -173.3301702640752069
  Basis Set: CC-PVTZ
  Basis Set:
  Basis Set: CC-PVTZ
  Basis Set:
  @DF-RHF Final Energy:  -173.33024090660567
    Total Energy =                       -173.3302409066056100
  Basis Set: CC-PVTZ
  Basis Set:
  Charge       = 0
  Multiplicity = 1
  Basis Set: CC-PVTZ
  Basis Set:

    Orbital Energies (a.u.)
    -----------------------

    Doubly Occupied:

       1A    -15.538653     2A    -11.234126     3A    -11.234048
       4A    -11.233973     5A     -1.224542     6A     -0.951931
       7A     -0.951011     8A     -0.807947     9A     -0.641340
      10A     -0.630658    11A     -0.628587    12A     -0.549366
      13A     -0.545608    14A     -0.514696    15A     -0.501304
      16A     -0.498887    17A     -0.348369

  @DF-RHF Final Energy:  -173.33024302093762

   => Energetics <=

    Nuclear Repulsion Energy =            139.2971817043122371
    One-Electron Energy =                -509.1847532601844932
    Two-Electron Energy =                 196.5573285349345838
    DFT Exchange-Correlation Energy =       0.0000000000000000
    Empirical Dispersion Energy =           0.0000000000000000
    PCM Polarization Energy =               0.0000000000000000
    EFP Energy =                            0.0000000000000000
    Total Energy =                       -173.3302430209376439
    Molecular point group: c1
  Basis Set: CC-PVTZ
  Basis Set:

  -Total Gradient:
     Atom            X                  Y                   Z
    ------   -----------------  -----------------  -----------------
       1       -0.002850949137    -0.000524514390     0.004264656158
       2        0.002329028526     0.000757614328    -0.004664940569
       3        0.003836797388    -0.000556237026    -0.001324949450
       4        0.000028040235    -0.000000448803    -0.000007819162
       5       -0.000000605427     0.000041063385    -0.000020511594
       6       -0.003512500287     0.000412705015     0.001681813304
       7        0.000163452501    -0.000094902205     0.000024169899
       8        0.000015979925    -0.000050875319     0.000027189438
       9       -0.000011849811     0.000023121275    -0.000015218572
      10        0.000007907411     0.000002101000     0.000026678954
      11        0.000041982422     0.000005014492     0.000027550585
      12       -0.000049993283    -0.000029372417    -0.000019091556
      13        0.000002709537     0.000014730663     0.000000472564

  **** Optimization is complete! (in 4 steps) ****
    Final optimized geometry and variables:
    Molecular point group: c1

    Geometry (in Angstrom), charge = 0, multiplicity = 1:

    H           -0.172631090378     2.003663552737    -0.248698477426
    C            0.535508300317     1.279517521695     0.131256662212
    N            0.167886446129    -0.059666100120    -0.290105784059
    H            1.529553128700     1.537950323687    -0.213213692142
    H            0.518716739816     1.385517641437     1.217638444144
    C            0.582862774559    -1.054591817874     0.669866812477
    C           -1.240957430858    -0.180413419884    -0.587774322749
    H            0.388661870737    -2.048162660002     0.285707585958
    H            1.647520213560    -0.972497915385     0.852616221676
    H            0.068400903513    -0.952947473950     1.629838905375
    H           -1.515951818947     0.511819265021    -1.372862034538
    H           -1.456477595920    -1.181986615968    -0.938627675419
    H           -1.880850699266     0.015665437481     0.278120298998

  Mulliken Charges: (a.u.)
   Center  Symbol    Alpha    Beta     Spin     Total
       1     H     0.45634  0.45634  0.00000  0.08732
       2     C     3.08753  3.08753  0.00000 -0.17506
       3     N     3.59821  3.59821  0.00000 -0.19641
       4     H     0.44975  0.44975  0.00000  0.10049
       5     H     0.47041  0.47041  0.00000  0.05917
       6     C     3.09057  3.09057  0.00000 -0.18114
       7     C     3.08956  3.08956  0.00000 -0.17913
       8     H     0.45312  0.45312  0.00000  0.09376
       9     H     0.45219  0.45219  0.00000  0.09562
      10     H     0.47328  0.47328  0.00000  0.05344
      11     H     0.45209  0.45209  0.00000  0.09581
      12     H     0.45297  0.45297  0.00000  0.09405
      13     H     0.47396  0.47396  0.00000  0.05209

   Total alpha = 17.00000, Total beta = 17.00000, Total charge = -0.00000
