  ==> Input File <==

--------------------------------------------------------------------------
set {
	reference rhf
	basis 6-31G*
}

set_num_threads( 1 )
memory 2 gb

molecule MOL {
0 1

H	 -3.261111	 -0.295142	 1.469456
C	 -3.306842	 -0.277400	 0.373456
C	 -2.660244	 0.921717	 -0.272021
O	 -3.838538	 -1.161155	 -0.216482
C	 -1.220012	 1.144545	 0.209990
H	 -2.705793	 0.797307	 -1.347733
H	 -3.263782	 1.790044	 -0.010477
C	 -0.252658	 0.041456	 -0.226725
H	 -0.873521	 2.100229	 -0.171974
H	 -1.211708	 1.231594	 1.295398
C	 1.180775	 0.282413	 0.250794
H	 -0.266029	 -0.034465	 -1.312038
H	 -0.597733	 -0.921000	 0.146291
C	 2.148627	 -0.814315	 -0.201312
H	 1.516199	 1.249228	 -0.115937
H	 1.192670	 0.346017	 1.338083
C	 3.580890	 -0.659131	 0.322722
H	 2.166869	 -0.852443	 -1.289387
H	 1.762857	 -1.776509	 0.128956
C	 3.680403	 -0.119092	 1.750334
H	 4.118225	 0.013016	 -0.341686
H	 4.092424	 -1.617562	 0.262183
H	 3.163021	 0.832059	 1.844647
H	 3.250412	 -0.802911	 2.474539
H	 4.717344	 0.040485	 2.030128

	symmetry c1
}
set optking {
	frozen_dihedral = ("
		6 3 5 8,
		6 3 2 4,
		3 5 8 12,
		12 8 11 14,
		8 11 14 18
	")
}

ee = energy('scf')
oeprop('DIPOLE', 'QUADRUPOLE', 'MULLIKEN_CHARGES')
f=open( 'psi4out.xyz', 'w' )
f.write( "25  " )
f.write( str(ee) + "\n" )
f.write( MOL.save_string_xyz() )
f.close()
--------------------------------------------------------------------------

    Molecular point group: c1

    Geometry (in Angstrom), charge = 0, multiplicity = 1:

       Center              X                  Y                   Z               Mass
    ------------   -----------------  -----------------  -----------------  -----------------
           H         -3.185576510903    -0.215420873291     1.239400184163     1.007825032070
           C         -3.231307510903    -0.197678873291     0.143400184163    12.000000000000
           C         -2.584709510903     1.001438126709    -0.502076815837    12.000000000000
           O         -3.763003510903    -1.081433873291    -0.446537815837    15.994914619560
           C         -1.144477510903     1.224266126709    -0.020065815837    12.000000000000
           H         -2.630258510903     0.877028126709    -1.577788815837     1.007825032070
           H         -3.188247510903     1.869765126709    -0.240532815837     1.007825032070
           C         -0.177123510903     0.121177126709    -0.456780815837    12.000000000000
           H         -0.797986510903     2.179950126709    -0.402029815837     1.007825032070
           H         -1.136173510903     1.311315126709     1.065342184163     1.007825032070
           C          1.256309489097     0.362134126709     0.020738184163    12.000000000000
           H         -0.190494510903     0.045256126709    -1.542093815837     1.007825032070
           H         -0.522198510903    -0.841278873291    -0.083764815837     1.007825032070
           C          2.224161489097    -0.734593873291    -0.431367815837    12.000000000000
           H          1.591733489097     1.328949126709    -0.345992815837     1.007825032070
           H          1.268204489097     0.425738126709     1.108027184163     1.007825032070
           C          3.656424489097    -0.579409873291     0.092666184163    12.000000000000
           H          2.242403489097    -0.772721873291    -1.519442815837     1.007825032070
           H          1.838391489097    -1.696787873291    -0.101099815837     1.007825032070
           C          3.755937489097    -0.039370873291     1.520278184163    12.000000000000
           H          4.193759489097     0.092737126709    -0.571741815837     1.007825032070
           H          4.167958489097    -1.537840873291     0.032127184163     1.007825032070
           H          3.238555489097     0.911780126709     1.614591184163     1.007825032070
           H          3.325946489097    -0.723189873291     2.244483184163     1.007825032070
           H          4.792878489097     0.120206126709     1.800072184163     1.007825032070

  Charge       = 0
  Multiplicity = 1
  Basis Set: 6-31G*
  Basis Set:

    Orbital Energies (a.u.)
    -----------------------

    Doubly Occupied:

       1A    -20.561918     2A    -11.326076     3A    -11.235241
       4A    -11.234567     5A    -11.223590     6A    -11.219451
       7A    -11.217659     8A    -11.216622     9A    -11.210498
      10A     -1.401907    11A     -1.104353    12A     -1.070473
      13A     -1.011945    14A     -0.941397    15A     -0.879055
      16A     -0.823062    17A     -0.787862    18A     -0.775306
      19A     -0.664093    20A     -0.663376    21A     -0.635634
      22A     -0.624710    23A     -0.608952    24A     -0.587717
      25A     -0.568411    26A     -0.563048    27A     -0.527767
      28A     -0.523091    29A     -0.514776    30A     -0.495835
      31A     -0.490003    32A     -0.479730    33A     -0.461527
      34A     -0.455298    35A     -0.442824    36A     -0.409471

  @DF-RHF Final Energy:  -387.11758168119155

   => Energetics <=

    Nuclear Repulsion Energy =            441.6585608599120292
    One-Electron Energy =               -1399.6376222788071573
    Two-Electron Energy =                 570.8614797377047125
    DFT Exchange-Correlation Energy =       0.0000000000000000
    Empirical Dispersion Energy =           0.0000000000000000
    PCM Polarization Energy =               0.0000000000000000
    EFP Energy =                            0.0000000000000000
    Total Energy =                       -387.1175816811903587

  Mulliken Charges: (a.u.)
   Center  Symbol    Alpha    Beta     Spin     Total
       1     H     0.43262  0.43262  0.00000  0.13476
       2     C     2.83083  2.83083  0.00000  0.33834
       3     C     3.20811  3.20811  0.00000 -0.41622
       4     O     4.23777  4.23777  0.00000 -0.47553
       5     C     3.16657  3.16657  0.00000 -0.33314
       6     H     0.39967  0.39967  0.00000  0.20065
       7     H     0.40672  0.40672  0.00000  0.18656
       8     C     3.15398  3.15398  0.00000 -0.30796
       9     H     0.41296  0.41296  0.00000  0.17409
      10     H     0.41971  0.41971  0.00000  0.16058
      11     C     3.15803  3.15803  0.00000 -0.31606
      12     H     0.41836  0.41836  0.00000  0.16328
      13     H     0.41836  0.41836  0.00000  0.16328
      14     C     3.15300  3.15300  0.00000 -0.30599
      15     H     0.42315  0.42315  0.00000  0.15371
      16     H     0.41919  0.41919  0.00000  0.16162
      17     C     3.15206  3.15206  0.00000 -0.30412
      18     H     0.42024  0.42024  0.00000  0.15952
      19     H     0.42250  0.42250  0.00000  0.15499
      20     C     3.24502  3.24502  0.00000 -0.49004
      21     H     0.42279  0.42279  0.00000  0.15442
      22     H     0.41937  0.41937  0.00000  0.16127
      23     H     0.41900  0.41900  0.00000  0.16200
      24     H     0.42170  0.42170  0.00000  0.15660
      25     H     0.41829  0.41829  0.00000  0.16342

   Total alpha = 36.00000, Total beta = 36.00000, Total charge =  0.00000
