                              Psi4 1.0.54 Driver

  ==> Input File <==

--------------------------------------------------------------------------
set {
	reference rhf
	basis cc-pvtz
}

set_num_threads( 4 )
memory 2 gb

molecule MOL {
0 1

H	 3.359143	 -1.272119	 -0.639075
O	 2.824271	 -1.154299	 0.131461
C	 2.076458	 -0.067370	 -0.038225
C	 0.626018	 -0.337582	 0.258241
O	 2.538288	 0.965419	 -0.381593
C	 -0.267326	 0.883135	 0.076490
H	 0.325620	 -1.161483	 -0.378003
H	 0.574537	 -0.713685	 1.275261
C	 -1.726822	 0.642622	 0.463839
H	 -0.210803	 1.217591	 -0.953497
H	 0.129920	 1.693110	 0.675679
C	 -2.480891	 -0.340606	 -0.429852
H	 -2.243098	 1.597649	 0.438609
H	 -1.776542	 0.301208	 1.495542
C	 -3.955933	 -0.460128	 -0.060472
H	 -2.393755	 -0.020485	 -1.464726
H	 -2.024244	 -1.323637	 -0.374360
H	 -4.467673	 -1.160944	 -0.709827
H	 -4.458917	 0.497287	 -0.144505
H	 -4.076458	 -0.806900	 0.960497

	symmetry c1
}
set optking {
	frozen_dihedral = ("
		1 2 3 5
	")
}

ee,wfn = optimize('scf', return_wfn=True)
oeprop( wfn, 'DIPOLE', 'QUADRUPOLE', 'MULLIKEN_CHARGES')
f=open( 'psi4out.xyz', 'w' )
f.write( "20  " )
f.write( str(ee) + "\n" )
f.write( MOL.save_string_xyz() )
f.close()
--------------------------------------------------------------------------

    Molecular point group: c1
  Charge       = 0
  Multiplicity = 1
  Basis Set: CC-PVTZ
  Basis Set:
  @DF-RHF Final Energy:  -384.08319052901675
    Total Energy =                       -384.0831905290164059
    Molecular point group: c1
  Basis Set: CC-PVTZ
  Basis Set:
  Basis Set: CC-PVTZ
  Basis Set:
  @DF-RHF Final Energy:  -384.08086173253264
    Total Energy =                       -384.0808617325326395
  Basis Set: CC-PVTZ
  Basis Set:
  Basis Set: CC-PVTZ
  Basis Set:
  @DF-RHF Final Energy:  -384.08415503918218
    Total Energy =                       -384.0841550391824057
  Basis Set: CC-PVTZ
  Basis Set:
  Basis Set: CC-PVTZ
  Basis Set:
  @DF-RHF Final Energy:  -384.08424951365896
    Total Energy =                       -384.0842495136593016
  Basis Set: CC-PVTZ
  Basis Set:
  @DF-RHF Final Energy:  -384.08425909290287
    Total Energy =                       -384.0842590929029257
  Basis Set: CC-PVTZ
  Basis Set:
  @DF-RHF Final Energy:  -384.08426131376251
    Total Energy =                       -384.0842613137622266
  Basis Set: CC-PVTZ
  Basis Set:
  Basis Set: CC-PVTZ
  Basis Set:
  @DF-RHF Final Energy:  -384.08425714254122
    Total Energy =                       -384.0842571425413894
  Basis Set: CC-PVTZ
  Basis Set:
  Basis Set: CC-PVTZ
  Basis Set:
  @DF-RHF Final Energy:  -384.08426152032416
    Total Energy =                       -384.0842615203242758
  Basis Set: CC-PVTZ
  Basis Set:
  Charge       = 0
  Multiplicity = 1
  Basis Set: CC-PVTZ
  Basis Set:

    Orbital Energies (a.u.)
    -----------------------

    Doubly Occupied:

       1A    -20.594073     2A    -20.545761     3A    -11.373805
       4A    -11.238472     5A    -11.221021     6A    -11.219262
       7A    -11.218537     8A    -11.211023     9A     -1.468494
      10A     -1.370017    11A     -1.097463    12A     -1.041777
      13A     -0.961283    14A     -0.868654    15A     -0.817965
      16A     -0.779273    17A     -0.707553    18A     -0.687245
      19A     -0.665766    20A     -0.632615    21A     -0.617330
      22A     -0.590010    23A     -0.562383    24A     -0.550443
      25A     -0.548316    26A     -0.511211    27A     -0.499929
      28A     -0.487790    29A     -0.470870    30A     -0.468217
      31A     -0.458736    32A     -0.445951

  @DF-RHF Final Energy:  -384.08426195609502

   => Energetics <=

    Nuclear Repulsion Energy =            376.1170524799134682
    One-Electron Energy =               -1268.5401379888653537
    Two-Electron Energy =                 508.3388235528566383
    DFT Exchange-Correlation Energy =       0.0000000000000000
    Empirical Dispersion Energy =           0.0000000000000000
    PCM Polarization Energy =               0.0000000000000000
    EFP Energy =                            0.0000000000000000
    Total Energy =                       -384.0842619560952471
    Molecular point group: c1
  Basis Set: CC-PVTZ
  Basis Set:

  -Total Gradient:
     Atom            X                  Y                   Z
    ------   -----------------  -----------------  -----------------
       1       -0.007373123836    -0.006893144046    -0.004675218027
       2        0.009423377875     0.010102792819     0.010279838460
       3       -0.002729768571    -0.006866794327    -0.014934800066
       4       -0.000004338380     0.000025460203     0.000089645315
       5        0.000599518600     0.003687159009     0.009253219037
       6        0.000059035614     0.000036191922    -0.000025179382
       7       -0.000005328200    -0.000013097023     0.000004382398
       8       -0.000012948595    -0.000023398708     0.000005145617
       9        0.000027483574    -0.000058581727     0.000011072408
      10        0.000009865954    -0.000010409689    -0.000006003389
      11        0.000002921018     0.000013558375    -0.000003970613
      12       -0.000014219849    -0.000010124694     0.000007681834
      13        0.000028629667     0.000008937836    -0.000000073486
      14       -0.000003774298    -0.000010002699     0.000002585491
      15        0.000001183345     0.000001390502    -0.000005898131
      16        0.000003727794     0.000003136510    -0.000004555810
      17       -0.000009024930     0.000002093867     0.000003956734
      18       -0.000001621329     0.000000266108    -0.000002790328
      19       -0.000003899535     0.000004672086     0.000000295186
      20        0.000002304084    -0.000000106325     0.000000666751

  **** Optimization is complete! (in 9 steps) ****
    Final optimized geometry and variables:
    Molecular point group: c1

    Geometry (in Angstrom), charge = 0, multiplicity = 1:

    H            3.469154844823    -1.319759339650    -0.409717388599
    O            2.851395509231    -1.128664788430     0.277541869630
    C            2.076690079481    -0.079650153314    -0.061393134492
    C            0.625661671913    -0.335736817778     0.241883387564
    O            2.528837783582     0.933553736102    -0.457451547592
    C           -0.264413911754     0.886432827472     0.057957279617
    H            0.318737372376    -1.162533974086    -0.389340016737
    H            0.578080204724    -0.711609806456     1.259180448813
    C           -1.722866497256     0.654027687613     0.454411653467
    H           -0.211869011209     1.215726759494    -0.973890546495
    H            0.139019919649     1.698166202197     0.651113503808
    C           -2.486449894151    -0.328730230237    -0.431828392148
    H           -2.234901889272     1.611322585010     0.428821779460
    H           -1.768399155162     0.316323409473     1.487484413155
    C           -3.958915633104    -0.444268438981    -0.050776023357
    H           -2.406633561356    -0.010555462807    -1.467976320449
    H           -2.031735260725    -1.312826774118    -0.378100805829
    H           -4.476765299016    -1.147092592463    -0.693112902225
    H           -4.460988945874     0.513582349455    -0.135238392669
    H           -4.072274748559    -0.786284584803     0.972605840179

  Mulliken Charges: (a.u.)
   Center  Symbol    Alpha    Beta     Spin     Total
       1     H     0.38129  0.38129  0.00000  0.23743
       2     O     4.17284  4.17284  0.00000 -0.34567
       3     C     2.80309  2.80309  0.00000  0.39383
       4     C     3.11122  3.11122  0.00000 -0.22244
       5     O     4.17550  4.17550  0.00000 -0.35099
       6     C     3.09431  3.09431  0.00000 -0.18863
       7     H     0.44256  0.44256  0.00000  0.11487
       8     H     0.43677  0.43677  0.00000  0.12645
       9     C     3.09876  3.09876  0.00000 -0.19752
      10     H     0.44565  0.44565  0.00000  0.10870
      11     H     0.43924  0.43924  0.00000  0.12152
      12     C     3.08672  3.08672  0.00000 -0.17343
      13     H     0.44560  0.44560  0.00000  0.10880
      14     H     0.45358  0.45358  0.00000  0.09283
      15     C     3.14949  3.14949  0.00000 -0.29898
      16     H     0.45279  0.45279  0.00000  0.09442
      17     H     0.45458  0.45458  0.00000  0.09083
      18     H     0.44786  0.44786  0.00000  0.10428
      19     H     0.45351  0.45351  0.00000  0.09298
      20     H     0.45464  0.45464  0.00000  0.09072

   Total alpha = 32.00000, Total beta = 32.00000, Total charge = -0.00000

*** Psi4 exiting successfully. Buy a developer a beer!
