                              Psi4 1.0.54 Driver

  ==> Input File <==

--------------------------------------------------------------------------
set {
	reference rhf
	basis cc-pvtz
}

set_num_threads( 4 )
memory 2 gb

molecule MOL {
0 1

H	 2.785797	 -2.462822	 -3.740175
C	 2.395419	 -2.391660	 -2.731885
C	 1.154048	 -1.507641	 -2.685388
H	 2.172401	 -3.397922	 -2.393156
H	 3.184521	 -1.998271	 -2.099762
C	 0.572289	 -1.379255	 -1.285373
H	 0.389198	 -1.903897	 -3.343985
H	 1.402887	 -0.517892	 -3.060956
N	 -0.616576	 -0.554459	 -1.278574
H	 0.300312	 -2.364501	 -0.918644
H	 1.341888	 -0.999570	 -0.606668
C	 -1.215959	 -0.382435	 0.027143
H	 -0.409416	 0.338613	 -1.674588
C	 -2.451944	 0.502410	 -0.038737
H	 -1.496651	 -1.362828	 0.400265
H	 -0.511067	 0.033309	 0.753339
C	 -3.752217	 -0.292550	 0.005776
H	 -2.407325	 1.093801	 -0.946480
H	 -2.431979	 1.206234	 0.790023
H	 -3.817783	 -0.982946	 -0.828547
H	 -4.612613	 0.364348	 -0.042306
H	 -3.830160	 -0.871666	 0.919868

	symmetry c1
}
set optking {
	frozen_dihedral = ("
		15 12 14 18
	")
}

ee,wfn = optimize('scf', return_wfn=True)
oeprop( wfn, 'DIPOLE', 'QUADRUPOLE', 'MULLIKEN_CHARGES')
f=open( 'psi4out.xyz', 'w' )
f.write( "22  " )
f.write( str(ee) + "\n" )
f.write( MOL.save_string_xyz() )
f.close()
--------------------------------------------------------------------------

    Molecular point group: c1
  Charge       = 0
  Multiplicity = 1
  Basis Set: CC-PVTZ
  Basis Set:
  @DF-RHF Final Energy:  -290.48514180056929
    Total Energy =                       -290.4851418005687265
    Molecular point group: c1
  Basis Set: CC-PVTZ
  Basis Set:
  Basis Set: CC-PVTZ
  Basis Set:
  @DF-RHF Final Energy:  -290.48562060533817
    Total Energy =                       -290.4856206053382266
  Basis Set: CC-PVTZ
  Basis Set:
  Basis Set: CC-PVTZ
  Basis Set:
  @DF-RHF Final Energy:  -290.48575507754515
    Total Energy =                       -290.4857550775451500
  Basis Set: CC-PVTZ
  Basis Set:
  Basis Set: CC-PVTZ
  Basis Set:
  @DF-RHF Final Energy:  -290.48575867432521
    Total Energy =                       -290.4857586743252114
  Basis Set: CC-PVTZ
  Basis Set:
  Charge       = 0
  Multiplicity = 1
  Basis Set: CC-PVTZ
  Basis Set:

    Orbital Energies (a.u.)
    -----------------------

    Doubly Occupied:

       1A    -15.528790     2A    -11.236472     3A    -11.236137
       4A    -11.212093     5A    -11.211676     6A    -11.207732
       7A    -11.202913     8A     -1.207146     9A     -1.058718
      10A     -1.024369    11A     -0.927043    12A     -0.870534
      13A     -0.811039    14A     -0.793866    15A     -0.663293
      16A     -0.634487    17A     -0.615031    18A     -0.608458
      19A     -0.572421    20A     -0.563553    21A     -0.540831
      22A     -0.524577    23A     -0.506026    24A     -0.488176
      25A     -0.477444    26A     -0.474653    27A     -0.467313
      28A     -0.451244    29A     -0.361032

  @DF-RHF Final Energy:  -290.48575958364688

   => Energetics <=

    Nuclear Repulsion Energy =            315.9413716632201385
    One-Electron Energy =               -1017.9001296863549442
    Two-Electron Energy =                 411.4729984394881512
    DFT Exchange-Correlation Energy =       0.0000000000000000
    Empirical Dispersion Energy =           0.0000000000000000
    PCM Polarization Energy =               0.0000000000000000
    EFP Energy =                            0.0000000000000000
    Total Energy =                       -290.4857595836466544
    Molecular point group: c1
  Basis Set: CC-PVTZ
  Basis Set:

  -Total Gradient:
     Atom            X                  Y                   Z
    ------   -----------------  -----------------  -----------------
       1        0.000001306824    -0.000001742756     0.000000559050
       2        0.000001789794     0.000003662225    -0.000007028060
       3        0.000015377253    -0.000012001054     0.000008600334
       4       -0.000000673721     0.000003424065    -0.000000222366
       5       -0.000004509232    -0.000001002327    -0.000001633634
       6       -0.000008320717     0.000016335380    -0.000039574113
       7        0.000002383831     0.000001249671     0.000000501256
       8        0.000001312245    -0.000003503745    -0.000001663033
       9        0.000026684104    -0.000014027591     0.000064058094
      10        0.000002458626     0.000001921251     0.000000734374
      11        0.000008348135    -0.000006820816    -0.000000774596
      12        0.000337225875     0.000901737257     0.004225360468
      13       -0.000000475343    -0.000015321630     0.000013897994
      14        0.002152590868     0.003408471836     0.001571080052
      15       -0.000631697179    -0.001259886945    -0.003824709299
      16       -0.000019795187     0.000007621691    -0.000028008062
      17       -0.000002588323    -0.000001938857    -0.000007467032
      18       -0.001865084662    -0.002994234042    -0.001997920572
      19        0.000008080869    -0.000020260852     0.000002744425
      20        0.000014984124    -0.000008327885     0.000007042762
      21       -0.000018698931     0.000008025579     0.000000562241
      22       -0.000020699252    -0.000013380454     0.000013859717

  **** Optimization is complete! (in 5 steps) ****
    Final optimized geometry and variables:
    Molecular point group: c1

    Geometry (in Angstrom), charge = 0, multiplicity = 1:

    H            3.290487649986    -1.631778713816    -2.621536501596
    C            2.911273967113    -1.557325060575    -1.609215632831
    C            1.690004375867    -0.646779818442    -1.546512779270
    H            2.669541085162    -2.560177992308    -1.273267073110
    H            3.714598037901    -1.184298878258    -0.982706751273
    C            1.123798715346    -0.513877020573    -0.140429850936
    H            0.910868984768    -1.022748725745    -2.200267414192
    H            1.957126295258     0.339377095436    -1.918931932678
    N           -0.048543492814     0.333785261251    -0.118571633654
    H            0.836870950412    -1.495609030803     0.224370305501
    H            1.907197920104    -0.152275202586     0.532511446946
    C           -0.624791138190     0.521443187003     1.200173082247
    H            0.173066594857     1.222322503192    -0.516773521219
    C           -1.901593606789     1.369370370873     1.128440986899
    H           -0.867917306749    -0.468203735524     1.571685944928
    H            0.089334401774     0.962863877082     1.897600798769
    C           -3.173628229893     0.525384373082     1.093449135080
    H           -1.873381232046     1.961881881942     0.220008135100
    H           -1.943323605416     2.057173935719     1.965442185413
    H           -3.142659155488    -0.174248128955     0.265980538096
    H           -4.054886122240     1.145884108896     0.975019269817
    H           -3.290877953668    -0.044602314510     2.009211814227

  Mulliken Charges: (a.u.)
   Center  Symbol    Alpha    Beta     Spin     Total
       1     H     0.44771  0.44771  0.00000  0.10457
       2     C     3.15357  3.15357  0.00000 -0.30713
       3     C     3.08067  3.08067  0.00000 -0.16133
       4     H     0.45472  0.45472  0.00000  0.09055
       5     H     0.45612  0.45612  0.00000  0.08776
       6     C     3.02181  3.02181  0.00000 -0.04363
       7     H     0.44922  0.44922  0.00000  0.10156
       8     H     0.45958  0.45958  0.00000  0.08083
       9     N     3.64288  3.64288  0.00000 -0.28575
      10     H     0.45933  0.45933  0.00000  0.08133
      11     H     0.47496  0.47496  0.00000  0.05008
      12     C     3.03328  3.03328  0.00000 -0.06656
      13     H     0.44418  0.44418  0.00000  0.11164
      14     C     3.07999  3.07999  0.00000 -0.15999
      15     H     0.45968  0.45968  0.00000  0.08064
      16     H     0.46456  0.46456  0.00000  0.07088
      17     C     3.15011  3.15011  0.00000 -0.30021
      18     H     0.45857  0.45857  0.00000  0.08286
      19     H     0.45127  0.45127  0.00000  0.09747
      20     H     0.44988  0.44988  0.00000  0.10024
      21     H     0.45117  0.45117  0.00000  0.09766
      22     H     0.45673  0.45673  0.00000  0.08654

   Total alpha = 29.00000, Total beta = 29.00000, Total charge = -0.00000

*** Psi4 exiting successfully. Buy a developer a beer!
