  ==> Input File <==

--------------------------------------------------------------------------
set {
	reference rhf
	basis 6-31G*
}

set_num_threads( 4 )
memory 2 gb

molecule MOL {
0 1

H	 1.169963	 -0.640524	 1.331760
O	 1.344235	 -0.524901	 0.407577
C	 0.709265	 0.639550	 -0.033818
C	 -0.793441	 0.596080	 0.058728
H	 1.006708	 0.772832	 -1.067726
H	 1.075505	 1.509857	 0.509743
C	 -1.530462	 -0.493172	 -0.025500
H	 -1.268471	 1.554324	 0.202247
H	 -1.092586	 -1.461565	 -0.186463
H	 -2.602122	 -0.450675	 0.050101

	symmetry c1
}
set optking {
	frozen_dihedral = ("
		5 3 4 7
	")
}

ee = optimize('scf')
oeprop('DIPOLE', 'QUADRUPOLE', 'MULLIKEN_CHARGES')
f=open( 'psi4out.xyz', 'w' )
f.write( "10  " )
f.write( str(ee) + "\n" )
f.write( MOL.save_string_xyz() )
f.close()
--------------------------------------------------------------------------

    Molecular point group: c1
  Charge       = 0
  Multiplicity = 1
  Basis Set: 6-31G*
  Basis Set:
  @DF-RHF Final Energy:  -191.91568814588385
    Total Energy =                       -191.9156881458838768
    Molecular point group: c1
  Basis Set: 6-31G*
  Basis Set:
  Basis Set: 6-31G*
  Basis Set:
  @DF-RHF Final Energy:  -191.91607395069764
    Total Energy =                       -191.9160739506977222
  Basis Set: 6-31G*
  Basis Set:
  Basis Set: 6-31G*
  Basis Set:
  @DF-RHF Final Energy:  -191.91612840033966
    Total Energy =                       -191.9161284003396872
  Basis Set: 6-31G*
  Basis Set:
  Basis Set: 6-31G*
  Basis Set:
  @DF-RHF Final Energy:  -191.91612964712425
    Total Energy =                       -191.9161296471243361
  Basis Set: 6-31G*
  Basis Set:
  Charge       = 0
  Multiplicity = 1
  Basis Set: 6-31G*
  Basis Set:

    Orbital Energies (a.u.)
    -----------------------

    Doubly Occupied:

       1A    -20.558294     2A    -11.277007     3A    -11.230866
       4A    -11.221190     5A     -1.366226     6A     -1.057869
       7A     -0.926043     8A     -0.771258     9A     -0.682373
      10A     -0.661420    11A     -0.610391    12A     -0.573243
      13A     -0.544440    14A     -0.483572    15A     -0.448374
      16A     -0.365856

  @DF-RHF Final Energy:  -191.91612994425401

   => Energetics <=

    Nuclear Repulsion Energy =            119.2537315357910899
    One-Electron Energy =                -496.7828759556597333
    Two-Electron Energy =                 185.6130144756146763
    DFT Exchange-Correlation Energy =       0.0000000000000000
    Empirical Dispersion Energy =           0.0000000000000000
    PCM Polarization Energy =               0.0000000000000000
    EFP Energy =                            0.0000000000000000
    Total Energy =                       -191.9161299442539814
    Molecular point group: c1
  Basis Set: 6-31G*
  Basis Set:

  -Total Gradient:
     Atom            X                  Y                   Z
    ------   -----------------  -----------------  -----------------
       1       -0.000009123569     0.000013130314    -0.000005317642
       2        0.000014868872    -0.000001658841    -0.000000563097
       3       -0.000174410538     0.003808248104    -0.000963786677
       4        0.000298295587    -0.001155924169     0.004088787970
       5        0.000079143651    -0.002954883349    -0.000332432749
       6       -0.000020623603    -0.000013239598    -0.000010570231
       7       -0.000185452554     0.000300750590    -0.002752328391
       8       -0.000000612907    -0.000004217324    -0.000000400764
       9       -0.000002494006     0.000003637259    -0.000005363000
      10        0.000000409066     0.000004157012    -0.000018025420

  **** Optimization is complete! (in 5 steps) ****
    Final optimized geometry and variables:
    Molecular point group: c1

    Geometry (in Angstrom), charge = 0, multiplicity = 1:

    H            1.072831521366    -0.747460541574     1.150573383761
    O            1.329118213009    -0.560679313966     0.257519263214
    C            0.702798863132     0.622160833676    -0.157112564998
    C           -0.803184416734     0.572568426494    -0.058337812473
    H            0.996801652595     0.748315622915    -1.192420608013
    H            1.082016491074     1.477030957922     0.398786137017
    C           -1.520058676975    -0.531407920891    -0.133266505383
    H           -1.299105804372     1.526223230965     0.031834372226
    H           -1.058427551893    -1.496581614614    -0.240761607190
    H           -2.593835021588    -0.507193617053    -0.082917078883

  Mulliken Charges: (a.u.)
   Center  Symbol    Alpha    Beta     Spin     Total
       1     H     0.28214  0.28214  0.00000  0.43571
       2     O     4.36794  4.36794  0.00000 -0.73587
       3     C     2.99718  2.99718  0.00000  0.00564
       4     C     3.10456  3.10456  0.00000 -0.20911
       5     H     0.40722  0.40722  0.00000  0.18557
       6     H     0.42597  0.42597  0.00000  0.14806
       7     C     3.19194  3.19194  0.00000 -0.38387
       8     H     0.40937  0.40937  0.00000  0.18126
       9     H     0.40290  0.40290  0.00000  0.19421
      10     H     0.41080  0.41080  0.00000  0.17841

   Total alpha = 16.00000, Total beta = 16.00000, Total charge =  0.00000
