  ==> Input File <==

--------------------------------------------------------------------------
set {
	reference rhf
	basis cc-pvtz
}

set_num_threads( 4 )
memory 2 gb

molecule MOL {
0 1

H	 1.128311	 0.207724	 1.465118
C	 1.134565	 0.093781	 0.372499
C	 0.062554	 0.862911	 -0.350953
O	 1.948932	 -0.587720	 -0.146651
C	 0.600456	 2.125212	 -1.032035
H	 -0.727567	 1.096220	 0.351024
H	 -0.345534	 0.195111	 -1.106321
C	 1.076104	 3.190131	 -0.047983
H	 -0.182226	 2.536135	 -1.659032
H	 1.412989	 1.854934	 -1.700754
H	 0.269430	 3.502659	 0.605591
H	 1.438073	 4.065642	 -0.573435
H	 1.881948	 2.825562	 0.579504

	symmetry c1
}
set optking {
	frozen_dihedral = ("
		6 3 2 4
	")
}

ee = optimize('scf')
oeprop('DIPOLE', 'QUADRUPOLE', 'MULLIKEN_CHARGES')
f=open( 'psi4out.xyz', 'w' )
f.write( "13  " )
f.write( str(ee) + "\n" )
f.write( MOL.save_string_xyz() )
f.close()
--------------------------------------------------------------------------

    Molecular point group: c1
  Charge       = 0
  Multiplicity = 1
  Basis Set: CC-PVTZ
  Basis Set:
  @DF-RHF Final Energy:  -231.06828073771754
    Total Energy =                       -231.0682807377175152
    Molecular point group: c1
  Basis Set: CC-PVTZ
  Basis Set:
  Basis Set: CC-PVTZ
  Basis Set:
  @DF-RHF Final Energy:  -231.06864129949565
    Total Energy =                       -231.0686412994953685
  Basis Set: CC-PVTZ
  Basis Set:
  Basis Set: CC-PVTZ
  Basis Set:
  @DF-RHF Final Energy:  -231.06847632279045
    Total Energy =                       -231.0684763227905023
  Basis Set: CC-PVTZ
  Basis Set:
  Basis Set: CC-PVTZ
  Basis Set:
  @DF-RHF Final Energy:  -231.06864034407022
    Total Energy =                       -231.0686403440701611
  Basis Set: CC-PVTZ
  Basis Set:
  Basis Set: CC-PVTZ
  Basis Set:
  @DF-RHF Final Energy:  -231.06868540721649
    Total Energy =                       -231.0686854072164635
  Basis Set: CC-PVTZ
  Basis Set:
  Basis Set: CC-PVTZ
  Basis Set:
  @DF-RHF Final Energy:  -231.06868830140201
    Total Energy =                       -231.0686883014020623
  Basis Set: CC-PVTZ
  Basis Set:
  Basis Set: CC-PVTZ
  Basis Set:
  @DF-RHF Final Energy:  -231.06868936078669
    Total Energy =                       -231.0686893607869479
  Basis Set: CC-PVTZ
  Basis Set:
  Charge       = 0
  Multiplicity = 1
  Basis Set: CC-PVTZ
  Basis Set:

    Orbital Energies (a.u.)
    -----------------------

    Doubly Occupied:

       1A    -20.552494     2A    -11.321816     3A    -11.234205
       4A    -11.233615     5A    -11.220615     6A     -1.407524
       7A     -1.083992     8A     -0.972651     9A     -0.854496
      10A     -0.775323    11A     -0.686999    12A     -0.645477
      13A     -0.616731    14A     -0.600008    15A     -0.560990
      16A     -0.538762    17A     -0.506504    18A     -0.491353
      19A     -0.481150    20A     -0.411812

  @DF-RHF Final Energy:  -231.06868937217328

   => Energetics <=

    Nuclear Repulsion Energy =            174.7852866966138379
    One-Electron Energy =                -659.3149195785749725
    Two-Electron Energy =                 253.4609435097879953
    DFT Exchange-Correlation Energy =       0.0000000000000000
    Empirical Dispersion Energy =           0.0000000000000000
    PCM Polarization Energy =               0.0000000000000000
    EFP Energy =                            0.0000000000000000
    Total Energy =                       -231.0686893721731110
    Molecular point group: c1
  Basis Set: CC-PVTZ
  Basis Set:

  -Total Gradient:
     Atom            X                  Y                   Z
    ------   -----------------  -----------------  -----------------
       1        0.000001239208    -0.000001392283    -0.000001892508
       2       -0.000260565890    -0.000321632594     0.000069809513
       3       -0.000089383695    -0.000240740196    -0.000116933154
       4        0.000209309270     0.000272279329    -0.000032967780
       5       -0.000007175731    -0.000002016210     0.000003063327
       6        0.000147144522     0.000293605625     0.000072307551
       7       -0.000000045741     0.000000234627     0.000002678443
       8        0.000005037641     0.000000164453     0.000000284512
       9       -0.000003635411    -0.000001676700    -0.000000320177
      10       -0.000000292241     0.000001173466     0.000004690266
      11       -0.000002792125     0.000003502011    -0.000002398511
      12        0.000001351375    -0.000001251749     0.000000810812
      13       -0.000000191178    -0.000002249776     0.000000867707

  **** Optimization is complete! (in 8 steps) ****
    Final optimized geometry and variables:
    Molecular point group: c1

    Geometry (in Angstrom), charge = 0, multiplicity = 1:

    H            0.163957033521    -0.909343264408     1.712894363034
    C            0.151905150146    -1.035784920040     0.624299717017
    C           -0.922690734904    -0.293364041153    -0.133861776463
    O            0.966907264215    -1.715127468502     0.101297084842
    C           -0.380469094453     0.980344244903    -0.798149070330
    H           -1.734472265462    -0.042568463486     0.541095978229
    H           -1.304136397846    -0.962374724355    -0.895281601343
    C            0.107567350279     2.036571190722     0.189674604643
    H           -1.168518841139     1.400776248609    -1.412618950097
    H            0.424749325710     0.703390766731    -1.468508459366
    H           -0.683596824369     2.333741169382     0.870121876021
    H            0.442980894117     2.923383764653    -0.334078885676
    H            0.940523350002     1.677365796196     0.784158116455

  Mulliken Charges: (a.u.)
   Center  Symbol    Alpha    Beta     Spin     Total
       1     H     0.45688  0.45688  0.00000  0.08624
       2     C     2.91208  2.91208  0.00000  0.17583
       3     C     3.09053  3.09053  0.00000 -0.18107
       4     O     4.16814  4.16814  0.00000 -0.33627
       5     C     3.09135  3.09135  0.00000 -0.18270
       6     H     0.45023  0.45023  0.00000  0.09954
       7     H     0.43798  0.43798  0.00000  0.12403
       8     C     3.15075  3.15075  0.00000 -0.30151
       9     H     0.44711  0.44711  0.00000  0.10577
      10     H     0.44370  0.44370  0.00000  0.11260
      11     H     0.45458  0.45458  0.00000  0.09083
      12     H     0.44459  0.44459  0.00000  0.11081
      13     H     0.45206  0.45206  0.00000  0.09588

   Total alpha = 20.00000, Total beta = 20.00000, Total charge = -0.00000
