                              Psi4 1.0.54 Driver

  ==> Input File <==

--------------------------------------------------------------------------
set {
	reference rhf
	basis cc-pvtz
}

set_num_threads( 4 )
memory 2 gb

molecule MOL {
0 1

H	 3.721907	 -0.933076	 -0.066039
O	 2.824271	 -1.154299	 0.131461
C	 2.076458	 -0.067370	 -0.038225
C	 0.626018	 -0.337582	 0.258241
O	 2.538288	 0.965419	 -0.381593
C	 -0.267326	 0.883135	 0.076490
H	 0.325620	 -1.161483	 -0.378003
H	 0.574537	 -0.713685	 1.275261
C	 -1.726822	 0.642622	 0.463839
H	 -0.210803	 1.217591	 -0.953497
H	 0.129920	 1.693110	 0.675679
C	 -2.480891	 -0.340606	 -0.429852
H	 -2.243098	 1.597649	 0.438609
H	 -1.776542	 0.301208	 1.495542
C	 -3.548474	 -1.124481	 0.326641
H	 -2.945923	 0.204836	 -1.246719
H	 -1.787739	 -1.040759	 -0.885134
H	 -4.069298	 -1.812181	 -0.329480
H	 -4.286382	 -0.459601	 0.762673
H	 -3.110482	 -1.704069	 1.132492

	symmetry c1
}
set optking {
	frozen_dihedral = ("
		16 12 9 6
	")
}

ee,wfn = optimize('scf', return_wfn=True)
oeprop( wfn, 'DIPOLE', 'QUADRUPOLE', 'MULLIKEN_CHARGES')
f=open( 'psi4out.xyz', 'w' )
f.write( "20  " )
f.write( str(ee) + "\n" )
f.write( MOL.save_string_xyz() )
f.close()
--------------------------------------------------------------------------

    Molecular point group: c1
  Charge       = 0
  Multiplicity = 1
  Basis Set: CC-PVTZ
  Basis Set:
  @DF-RHF Final Energy:  -384.09139590559658
    Total Energy =                       -384.0913959055969826
    Molecular point group: c1
  Basis Set: CC-PVTZ
  Basis Set:
  Basis Set: CC-PVTZ
  Basis Set:
  @DF-RHF Final Energy:  -384.08999501456265
    Total Energy =                       -384.0899950145627599
  Basis Set: CC-PVTZ
  Basis Set:
  Basis Set: CC-PVTZ
  Basis Set:
  @DF-RHF Final Energy:  -384.09167885717426
    Total Energy =                       -384.0916788571741449
  Basis Set: CC-PVTZ
  Basis Set:
  Basis Set: CC-PVTZ
  Basis Set:
  @DF-RHF Final Energy:  -384.09184797585891
    Total Energy =                       -384.0918479758583999
  Basis Set: CC-PVTZ
  Basis Set:
  @DF-RHF Final Energy:  -384.09189778845689
    Total Energy =                       -384.0918977884567767
  Basis Set: CC-PVTZ
  Basis Set:
  @DF-RHF Final Energy:  -384.09190679982083
    Total Energy =                       -384.0919067998214018
  Basis Set: CC-PVTZ
  Basis Set:
  Basis Set: CC-PVTZ
  Basis Set:
  @DF-RHF Final Energy:  -384.09191296247621
    Total Energy =                       -384.0919129624763855
  Basis Set: CC-PVTZ
  Basis Set:
  Basis Set: CC-PVTZ
  Basis Set:
  @DF-RHF Final Energy:  -384.09191586694465
    Total Energy =                       -384.0919158669443618
  Basis Set: CC-PVTZ
  Basis Set:
  Charge       = 0
  Multiplicity = 1
  Basis Set: CC-PVTZ
  Basis Set:

    Orbital Energies (a.u.)
    -----------------------

    Doubly Occupied:

       1A    -20.604029     2A    -20.540639     3A    -11.373632
       4A    -11.239028     5A    -11.221276     6A    -11.218682
       7A    -11.218092     8A    -11.210826     9A     -1.477621
      10A     -1.369137    11A     -1.097024    12A     -1.041553
      13A     -0.962480    14A     -0.870373    15A     -0.815912
      16A     -0.780680    17A     -0.703816    18A     -0.693850
      19A     -0.666552    20A     -0.633558    21A     -0.608074
      22A     -0.594876    23A     -0.581951    24A     -0.554237
      25A     -0.539680    26A     -0.511094    27A     -0.501443
      28A     -0.484675    29A     -0.470269    30A     -0.466388
      31A     -0.457227    32A     -0.446622

  @DF-RHF Final Energy:  -384.09191686344712

   => Energetics <=

    Nuclear Repulsion Energy =            377.6361026586379808
    One-Electron Energy =               -1271.5454408972973397
    Two-Electron Energy =                 509.8174213752124615
    DFT Exchange-Correlation Energy =       0.0000000000000000
    Empirical Dispersion Energy =           0.0000000000000000
    PCM Polarization Energy =               0.0000000000000000
    EFP Energy =                            0.0000000000000000
    Total Energy =                       -384.0919168634468406
    Molecular point group: c1
  Basis Set: CC-PVTZ
  Basis Set:

  -Total Gradient:
     Atom            X                  Y                   Z
    ------   -----------------  -----------------  -----------------
       1       -0.000002756370    -0.000001200677     0.000002517129
       2        0.000004996167     0.000011056523     0.000003314071
       3       -0.000011372871    -0.000017255557    -0.000041093292
       4        0.000005432891     0.000004031677     0.000009327949
       5        0.000005322376     0.000003068771     0.000025328395
       6        0.000818263601    -0.002041230008     0.001860510068
       7        0.000001290881     0.000008077807     0.000004184737
       8       -0.000002041033    -0.000000708989     0.000005889914
       9       -0.001838501417     0.003037982581    -0.002111443131
      10       -0.000003735487    -0.000010363419     0.000006330546
      11       -0.000004583402    -0.000001742557    -0.000013154263
      12        0.004169396097    -0.001801298684    -0.001920832499
      13        0.000010837052    -0.000002576250    -0.000015415248
      14       -0.000020538312    -0.000000081025    -0.000007914043
      15        0.000020648755    -0.000011750090     0.000001379551
      16       -0.003130956501     0.000808804008     0.002235865983
      17       -0.000025207095     0.000015247163    -0.000035640267
      18        0.000024998349    -0.000028809479     0.000009453759
      19       -0.000018621706    -0.000007933372    -0.000037383273
      20       -0.000002871969     0.000036681574     0.000018773915

  **** Optimization is complete! (in 9 steps) ****
    Final optimized geometry and variables:
    Molecular point group: c1

    Geometry (in Angstrom), charge = 0, multiplicity = 1:

    H            3.654729755582    -0.943661546272    -0.046370424645
    O            2.770199176568    -1.084450893617     0.256134136948
    C            2.025476059103    -0.050761065955    -0.126446718758
    C            0.596169925848    -0.199011785159     0.320429446451
    O            2.474311358018     0.853911922829    -0.741234912328
    C           -0.293056272643     0.968319578418    -0.088337580888
    H            0.240321073520    -1.143351850064    -0.074697604674
    H            0.611768530211    -0.317632221789     1.399119690930
    C           -1.744961790271     0.807549737396     0.367446816675
    H           -0.251899274043     1.093096393093    -1.164814315868
    H            0.118881161925     1.877376920763     0.332786871337
    C           -2.554640398058    -0.236196030621    -0.417134490726
    H           -2.245185337167     1.767150809539     0.299640268092
    H           -1.747574162158     0.545500582566     1.422883619806
    C           -3.647339052213    -0.893709016481     0.422482532013
    H           -3.029895955359     0.249574114581    -1.263370842728
    H           -1.905304193650    -1.004946454774    -0.820278860806
    H           -4.232822859131    -1.588867490607    -0.168326764470
    H           -4.326767164283    -0.151140085358     0.828066534399
    H           -3.223690475391    -1.441661742559     1.257559990698

  Mulliken Charges: (a.u.)
   Center  Symbol    Alpha    Beta     Spin     Total
       1     H     0.38239  0.38239  0.00000  0.23521
       2     O     4.16043  4.16043  0.00000 -0.32085
       3     C     2.80338  2.80338  0.00000  0.39324
       4     C     3.11160  3.11160  0.00000 -0.22319
       5     O     4.19098  4.19098  0.00000 -0.38195
       6     C     3.09126  3.09126  0.00000 -0.18251
       7     H     0.43770  0.43770  0.00000  0.12461
       8     H     0.43759  0.43759  0.00000  0.12482
       9     C     3.10162  3.10162  0.00000 -0.20324
      10     H     0.44491  0.44491  0.00000  0.11018
      11     H     0.44056  0.44056  0.00000  0.11888
      12     C     3.08849  3.08849  0.00000 -0.17699
      13     H     0.44288  0.44288  0.00000  0.11424
      14     H     0.45703  0.45703  0.00000  0.08594
      15     C     3.14809  3.14809  0.00000 -0.29619
      16     H     0.44856  0.44856  0.00000  0.10289
      17     H     0.45437  0.45437  0.00000  0.09126
      18     H     0.44836  0.44836  0.00000  0.10329
      19     H     0.45370  0.45370  0.00000  0.09260
      20     H     0.45612  0.45612  0.00000  0.08776

   Total alpha = 32.00000, Total beta = 32.00000, Total charge =  0.00000

*** Psi4 exiting successfully. Buy a developer a beer!
