  ==> Input File <==

--------------------------------------------------------------------------
set {
	reference rhf
	basis 6-31G*
}

set_num_threads( 4 )
memory 2 gb

molecule MOL {
0 1

H	 3.295965	 -0.452436	 -0.003647
C	 2.236903	 -0.265869	 -0.002863
C	 1.763546	 1.023595	 0.207077
C	 1.353496	 -1.311926	 -0.211034
H	 2.455572	 1.830286	 0.367935
C	 0.404074	 1.266694	 0.208711
H	 1.723360	 -2.308011	 -0.373083
C	 -0.010120	 -1.066742	 -0.209162
H	 0.017979	 2.255819	 0.369066
C	 -0.488460	 0.219100	 0.000000
H	 -0.701825	 -1.875747	 -0.370412
C	 -1.949954	 0.470334	 0.000000
O	 -2.781584	 -0.381627	 0.000000
H	 -2.238022	 1.526388	 0.000000

	symmetry c1
}
set optking {
	frozen_dihedral = ("
		8 10 12 14
	")
}

ee = optimize('scf')
oeprop('DIPOLE', 'QUADRUPOLE', 'MULLIKEN_CHARGES')
f=open( 'psi4out.xyz', 'w' )
f.write( "14  " )
f.write( str(ee) + "\n" )
f.write( MOL.save_string_xyz() )
f.close()
--------------------------------------------------------------------------

    Molecular point group: c1
  Charge       = 0
  Multiplicity = 1
  Basis Set: 6-31G*
  Basis Set:
  @DF-RHF Final Energy:  -343.43238777118194
    Total Energy =                       -343.4323877711817659
    Molecular point group: c1
  Basis Set: 6-31G*
  Basis Set:
  Basis Set: 6-31G*
  Basis Set:
  @DF-RHF Final Energy:  -343.43183200587492
    Total Energy =                       -343.4318320058747531
  Basis Set: 6-31G*
  Basis Set:
  Basis Set: 6-31G*
  Basis Set:
  @DF-RHF Final Energy:  -343.43252254419758
    Total Energy =                       -343.4325225441972407
  Basis Set: 6-31G*
  Basis Set:
  Basis Set: 6-31G*
  Basis Set:
  @DF-RHF Final Energy:  -343.43262398220315
    Total Energy =                       -343.4326239822033813
  Basis Set: 6-31G*
  Basis Set:
  Charge       = 0
  Multiplicity = 1
  Basis Set: 6-31G*
  Basis Set:

    Orbital Energies (a.u.)
    -----------------------

    Doubly Occupied:

       1A    -20.562008     2A    -11.331213     3A    -11.254201
       4A    -11.251388     5A    -11.247605     6A    -11.245802
       7A    -11.245159     8A    -11.243252     9A     -1.402685
      10A     -1.171193    11A     -1.047274    12A     -1.031561
      13A     -0.889349    14A     -0.843968    15A     -0.790720
      16A     -0.720815    17A     -0.677753    18A     -0.651486
      19A     -0.619102    20A     -0.615158    21A     -0.602380
      22A     -0.554727    23A     -0.526180    24A     -0.506541
      25A     -0.501249    26A     -0.421571    27A     -0.350062
      28A     -0.346752

  @DF-RHF Final Energy:  -343.43262692130469

   => Energetics <=

    Nuclear Repulsion Energy =            323.2124183193482736
    One-Electron Energy =               -1105.9877860918975330
    Two-Electron Energy =                 439.3427408512446846
    DFT Exchange-Correlation Energy =       0.0000000000000000
    Empirical Dispersion Energy =           0.0000000000000000
    PCM Polarization Energy =               0.0000000000000000
    EFP Energy =                            0.0000000000000000
    Total Energy =                       -343.4326269213046317
    Molecular point group: c1
  Basis Set: 6-31G*
  Basis Set:

  -Total Gradient:
     Atom            X                  Y                   Z
    ------   -----------------  -----------------  -----------------
       1        0.000000220580     0.000017739455    -0.000028882568
       2       -0.000083892303    -0.000453594776    -0.000010502913
       3       -0.000313635542     0.000259535722     0.000113799164
       4        0.000384454875     0.000186368689    -0.000016652925
       5        0.000016957079    -0.000023465620    -0.000013290675
       6        0.000305812101     0.000170765484    -0.000117215222
       7       -0.000023731285    -0.000022062665     0.000010591031
       8       -0.000160840948     0.000574672167    -0.001577186482
       9       -0.000012180875    -0.000038631994     0.000025100181
      10       -0.000146699166    -0.000763958717     0.001762201863
      11       -0.000007849443    -0.000042113615    -0.000002538034
      12        0.000029893904     0.000172142523     0.001791949821
      13       -0.000033374905    -0.000035993056     0.000022210444
      14        0.000044865943    -0.000001403597    -0.001959583685

  **** Optimization is complete! (in 5 steps) ****
    Final optimized geometry and variables:
    Molecular point group: c1

    Geometry (in Angstrom), charge = 0, multiplicity = 1:

    H            3.300466467439    -0.433548415466    -0.007801555852
    C            2.240984331953    -0.249401406233    -0.000727384485
    C            1.767012106554     1.035071877295     0.210053169869
    C            1.356235613688    -1.300196172822    -0.207777057697
    H            2.454672300306     1.846043520969     0.367152497696
    C            0.401686773136     1.269058920883     0.211482039214
    H            1.731362888154    -2.293449758510    -0.375861581103
    C           -0.005290303475    -1.067059485826    -0.197976563574
    H            0.027557557994     2.266395807605     0.367666012449
    C           -0.487089782634     0.220534275907     0.017745346775
    H           -0.705453290509    -1.866259190315    -0.353621551020
    C           -1.946715597016     0.483954143878     0.007095723000
    O           -2.784623663333    -0.360933692617    -0.030649019782
    H           -2.226520849879     1.542071453430     0.013862181109

  Mulliken Charges: (a.u.)
   Center  Symbol    Alpha    Beta     Spin     Total
       1     H     0.39411  0.39411  0.00000  0.21177
       2     C     3.09119  3.09119  0.00000 -0.18238
       3     C     3.10450  3.10450  0.00000 -0.20900
       4     C     3.10426  3.10426  0.00000 -0.20852
       5     H     0.39467  0.39467  0.00000  0.21066
       6     C     3.10195  3.10195  0.00000 -0.20390
       7     H     0.39394  0.39394  0.00000  0.21212
       8     C     3.08802  3.08802  0.00000 -0.17603
       9     H     0.39249  0.39249  0.00000  0.21502
      10     C     3.05322  3.05322  0.00000 -0.10644
      11     H     0.37740  0.37740  0.00000  0.24519
      12     C     2.83261  2.83261  0.00000  0.33478
      13     O     4.24845  4.24845  0.00000 -0.49689
      14     H     0.42319  0.42319  0.00000  0.15362

   Total alpha = 28.00000, Total beta = 28.00000, Total charge = -0.00000
