                              Psi4 1.0.54 Driver

  ==> Input File <==

--------------------------------------------------------------------------
set {
	reference rhf
	basis cc-pvtz
}

set_num_threads( 4 )
memory 2 gb

molecule MOL {
0 1

O	 -2.081319	 -0.951530	 -0.502732
N	 -1.613558	 0.006676	 0.014756
C	 -0.329345	 -0.171618	 0.743966
O	 -2.068523	 1.100482	 -0.024385
C	 0.835904	 0.041968	 -0.213982
H	 -0.346048	 -1.174374	 1.137184
H	 -0.333613	 0.555559	 1.538590
C	 2.177039	 -0.130175	 0.494460
H	 0.754456	 -0.665923	 -1.030569
H	 0.765464	 1.037260	 -0.637266
C	 3.023327	 1.137362	 0.454135
H	 2.726218	 -0.946323	 0.034306
H	 2.005250	 -0.417341	 1.527625
H	 3.239715	 1.430396	 -0.567141
H	 2.512357	 1.963866	 0.935297
H	 3.967388	 0.988875	 0.963902

	symmetry c1
}
set optking {
	frozen_dihedral = ("
		11 8 5 9
	")
}

ee,wfn = optimize('scf', return_wfn=True)
oeprop( wfn, 'DIPOLE', 'QUADRUPOLE', 'MULLIKEN_CHARGES')
f=open( 'psi4out.xyz', 'w' )
f.write( "16  " )
f.write( str(ee) + "\n" )
f.write( MOL.save_string_xyz() )
f.close()
--------------------------------------------------------------------------

    Molecular point group: c1
  Charge       = 0
  Multiplicity = 1
  Basis Set: CC-PVTZ
  Basis Set:
  @DF-RHF Final Energy:  -360.90373465041580
    Total Energy =                       -360.9037346504162542
    Molecular point group: c1
  Basis Set: CC-PVTZ
  Basis Set:
  Basis Set: CC-PVTZ
  Basis Set:
  @DF-RHF Final Energy:  -360.90398392446502
    Total Energy =                       -360.9039839244650238
  Basis Set: CC-PVTZ
  Basis Set:
  Basis Set: CC-PVTZ
  Basis Set:
  @DF-RHF Final Energy:  -360.90156860737807
    Total Energy =                       -360.9015686073785218
  Basis Set: CC-PVTZ
  Basis Set:
  Basis Set: CC-PVTZ
  Basis Set:
  @DF-RHF Final Energy:  -360.90394205305762
    Total Energy =                       -360.9039420530573352
  Basis Set: CC-PVTZ
  Basis Set:
  Basis Set: CC-PVTZ
  Basis Set:
  @DF-RHF Final Energy:  -360.90405337611452
    Total Energy =                       -360.9040533761148026
  Basis Set: CC-PVTZ
  Basis Set:
  Basis Set: CC-PVTZ
  Basis Set:
  @DF-RHF Final Energy:  -360.90405793844718
    Total Energy =                       -360.9040579384468970
  Basis Set: CC-PVTZ
  Basis Set:
  Charge       = 0
  Multiplicity = 1
  Basis Set: CC-PVTZ
  Basis Set:

    Orbital Energies (a.u.)
    -----------------------

    Doubly Occupied:

       1A    -20.589658     2A    -20.589601     3A    -15.835903
       4A    -11.296815     5A    -11.250515     6A    -11.241982
       7A    -11.226415     8A     -1.635032     9A     -1.419401
      10A     -1.135419    11A     -1.058032    12A     -0.948744
      13A     -0.845874    14A     -0.828583    15A     -0.759676
      16A     -0.737453    17A     -0.727762    18A     -0.669060
      19A     -0.626654    20A     -0.604751    21A     -0.561233
      22A     -0.552371    23A     -0.514758    24A     -0.503435
      25A     -0.493274    26A     -0.485257    27A     -0.468924
      28A     -0.451851

  @DF-RHF Final Energy:  -360.90405813222185

   => Energetics <=

    Nuclear Repulsion Energy =            313.7471447732150409
    One-Electron Energy =               -1113.1855412709846860
    Two-Electron Energy =                 438.5343383655477965
    DFT Exchange-Correlation Energy =       0.0000000000000000
    Empirical Dispersion Energy =           0.0000000000000000
    PCM Polarization Energy =               0.0000000000000000
    EFP Energy =                            0.0000000000000000
    Total Energy =                       -360.9040581322218486
    Molecular point group: c1
  Basis Set: CC-PVTZ
  Basis Set:

  -Total Gradient:
     Atom            X                  Y                   Z
    ------   -----------------  -----------------  -----------------
       1       -0.000023929928    -0.000064655652    -0.000044437856
       2        0.000026893333    -0.000025673213     0.000048005035
       3        0.000002091203     0.000009111555    -0.000001975337
       4       -0.000011840619     0.000072243460    -0.000007239220
       5       -0.000044741531    -0.000036558603     0.000021379145
       6        0.000000570350    -0.000000124468     0.000009637221
       7        0.000001853430     0.000007248841     0.000002754162
       8        0.000004484049     0.000004569146     0.000024285531
       9        0.000022077652     0.000048583294    -0.000033585446
      10       -0.000000987924    -0.000004893166     0.000003146110
      11        0.000017938969    -0.000008822048    -0.000023074357
      12        0.000001302511     0.000006568885     0.000007613628
      13        0.000009273834    -0.000001675691    -0.000006215805
      14        0.000001510668    -0.000006462899     0.000000800700
      15       -0.000004467568     0.000002562783    -0.000008054804
      16       -0.000002028429    -0.000002022219     0.000006961292

  **** Optimization is complete! (in 7 steps) ****
    Final optimized geometry and variables:
    Molecular point group: c1

    Geometry (in Angstrom), charge = 0, multiplicity = 1:

    O           -2.041228217932    -1.103018053507    -0.635478028832
    N           -1.570600585605    -0.147457060294    -0.115426728122
    C           -0.283923200597    -0.330287378791     0.608950212319
    O           -2.024271605002     0.947216533800    -0.148488724063
    C            0.880419700535    -0.116331314629    -0.351039667546
    H           -0.300762189213    -1.333931552117     0.999710294175
    H           -0.283401555374     0.395243322923     1.405406824202
    C            2.237940857601    -0.277137976210     0.364992218817
    H            0.790348576824    -0.822906265520    -1.165383106713
    H            0.795533908799     0.874856675785    -0.778208544318
    C            3.090864436927     0.987104405319     0.327717160505
    H            2.787737737198    -1.093769429684    -0.086513132380
    H            2.078785517701    -0.564482134211     1.399700581894
    H            3.314284115049     1.275431304738    -0.693312742731
    H            2.579676597286     1.818540940475     0.801116246514
    H            4.031151044353     0.836883989934     0.844515669789

  Mulliken Charges: (a.u.)
   Center  Symbol    Alpha    Beta     Spin     Total
       1     O     4.17418  4.17418  0.00000 -0.34836
       2     N     3.27629  3.27629  0.00000  0.44742
       3     C     3.04237  3.04237  0.00000 -0.08475
       4     O     4.17397  4.17397  0.00000 -0.34794
       5     C     3.10734  3.10734  0.00000 -0.21469
       6     H     0.43304  0.43304  0.00000  0.13392
       7     H     0.43363  0.43363  0.00000  0.13274
       8     C     3.09597  3.09597  0.00000 -0.19195
       9     H     0.43235  0.43235  0.00000  0.13530
      10     H     0.43787  0.43787  0.00000  0.12425
      11     C     3.14597  3.14597  0.00000 -0.29194
      12     H     0.44360  0.44360  0.00000  0.11280
      13     H     0.45337  0.45337  0.00000  0.09325
      14     H     0.45090  0.45090  0.00000  0.09820
      15     H     0.45270  0.45270  0.00000  0.09460
      16     H     0.44643  0.44643  0.00000  0.10714

   Total alpha = 28.00000, Total beta = 28.00000, Total charge = -0.00000

*** Psi4 exiting successfully. Buy a developer a beer!
