  ==> Input File <==

--------------------------------------------------------------------------
set {
	reference rhf
	basis cc-pvtz
}

set_num_threads( 4 )
memory 2 gb

molecule MOL {
0 1

H	 1.166964	 -1.062386	 0.758429
O	 1.324748	 -0.612467	 -0.052206
C	 0.706474	 0.636793	 -0.025501
C	 0.189483	 1.050476	 1.323284
H	 -0.120578	 0.584663	 -0.723763
H	 1.377139	 1.409439	 -0.396884
C	 0.183422	 0.305359	 2.406367
H	 -0.204488	 2.052622	 1.364993
H	 0.551133	 -0.702970	 2.400558
H	 -0.204360	 0.679755	 3.334545

	symmetry c1
}
set optking {
	frozen_dihedral = ("
		5 3 2 1
	")
}

ee = optimize('scf')
oeprop('DIPOLE', 'QUADRUPOLE', 'MULLIKEN_CHARGES')
f=open( 'psi4out.xyz', 'w' )
f.write( "10  " )
f.write( str(ee) + "\n" )
f.write( MOL.save_string_xyz() )
f.close()
--------------------------------------------------------------------------

    Molecular point group: c1
  Charge       = 0
  Multiplicity = 1
  Basis Set: CC-PVTZ
  Basis Set:
  @DF-RHF Final Energy:  -191.99321997408583
    Total Energy =                       -191.9932199740858323
    Molecular point group: c1
  Basis Set: CC-PVTZ
  Basis Set:
  Basis Set: CC-PVTZ
  Basis Set:
  @DF-RHF Final Energy:  -191.99449497711493
    Total Energy =                       -191.9944949771149254
  Basis Set: CC-PVTZ
  Basis Set:
  Basis Set: CC-PVTZ
  Basis Set:
  @DF-RHF Final Energy:  -191.99507337556093
    Total Energy =                       -191.9950733755608780
  Basis Set: CC-PVTZ
  Basis Set:
  Basis Set: CC-PVTZ
  Basis Set:
  @DF-RHF Final Energy:  -191.99528546873609
    Total Energy =                       -191.9952854687361139
  Basis Set: CC-PVTZ
  Basis Set:
  Basis Set: CC-PVTZ
  Basis Set:
  @DF-RHF Final Energy:  -191.99536260009984
    Total Energy =                       -191.9953626000998952
  Basis Set: CC-PVTZ
  Basis Set:
  Basis Set: CC-PVTZ
  Basis Set:
  @DF-RHF Final Energy:  -191.99536999863199
    Total Energy =                       -191.9953699986319862
  Basis Set: CC-PVTZ
  Basis Set:
  Charge       = 0
  Multiplicity = 1
  Basis Set: CC-PVTZ
  Basis Set:

    Orbital Energies (a.u.)
    -----------------------

    Doubly Occupied:

       1A    -20.551063     2A    -11.278551     3A    -11.240732
       4A    -11.226364     5A     -1.372605     6A     -1.069296
       7A     -0.938618     8A     -0.779108     9A     -0.693440
      10A     -0.658857    11A     -0.633416    12A     -0.574139
      13A     -0.556741    14A     -0.486427    15A     -0.457840
      16A     -0.375070

  @DF-RHF Final Energy:  -191.99537026150159

   => Energetics <=

    Nuclear Repulsion Energy =            119.4599049901677716
    One-Electron Energy =                -497.1260166527598017
    Two-Electron Energy =                 185.6707414010903676
    DFT Exchange-Correlation Energy =       0.0000000000000000
    Empirical Dispersion Energy =           0.0000000000000000
    PCM Polarization Energy =               0.0000000000000000
    EFP Energy =                            0.0000000000000000
    Total Energy =                       -191.9953702615016482
    Molecular point group: c1
  Basis Set: CC-PVTZ
  Basis Set:

  -Total Gradient:
     Atom            X                  Y                   Z
    ------   -----------------  -----------------  -----------------
       1        0.002399515592     0.000889655919     0.001557291675
       2       -0.002522794493    -0.000860445381    -0.002364258978
       3       -0.001729638204    -0.000962995036     0.002386922656
       4        0.000058339182     0.000076244716     0.000019060847
       5        0.001831970302     0.000860962432    -0.001616192908
       6       -0.000012069891     0.000024263337     0.000008232445
       7        0.000034243748     0.000026766281     0.000021046557
       8       -0.000018867555    -0.000018615771    -0.000002207839
       9       -0.000016063394    -0.000010767729     0.000000576968
      10       -0.000024635285    -0.000025068770    -0.000010471427

  **** Optimization is complete! (in 7 steps) ****
    Final optimized geometry and variables:
    Molecular point group: c1

    Geometry (in Angstrom), charge = 0, multiplicity = 1:

    H            0.367148238307    -1.461669537422    -0.244335599572
    O            0.643493295619    -0.932858269220    -0.968278709631
    C            0.104231775481     0.350442086899    -0.876412469882
    C           -0.492366306129     0.720315294101     0.449745925118
    H           -0.642982454316     0.484882164869    -1.653988075332
    H            0.897309006087     1.058901272316    -1.099561634839
    C           -0.377864442191     0.063642850372     1.583184875805
    H           -1.057699990754     1.636715078337     0.434797249395
    H            0.190536055471    -0.843421927357     1.680782036734
    H           -0.846397886364     0.422621426637     2.479126170736

  Mulliken Charges: (a.u.)
   Center  Symbol    Alpha    Beta     Spin     Total
       1     H     0.38925  0.38925  0.00000  0.22149
       2     O     4.20252  4.20252  0.00000 -0.40504
       3     C     2.93346  2.93346  0.00000  0.13307
       4     C     3.07707  3.07707  0.00000 -0.15413
       5     H     0.47158  0.47158  0.00000  0.05683
       6     H     0.46482  0.46482  0.00000  0.07037
       7     C     3.17606  3.17606  0.00000 -0.35212
       8     H     0.42178  0.42178  0.00000  0.15643
       9     H     0.43760  0.43760  0.00000  0.12480
      10     H     0.42585  0.42585  0.00000  0.14830

   Total alpha = 16.00000, Total beta = 16.00000, Total charge = -0.00000
