                              Psi4 1.0.54 Driver

  ==> Input File <==

--------------------------------------------------------------------------
set {
	reference rhf
	basis cc-pvtz
}

set_num_threads( 4 )
memory 2 gb

molecule MOL {
0 1

H	 2.017776	 -3.567949	 1.171480
C	 2.230186	 -2.597194	 0.739477
C	 0.963156	 -1.756102	 0.630611
H	 2.969637	 -2.111714	 1.367617
H	 2.680647	 -2.760823	 -0.233830
C	 1.215950	 -0.382441	 0.027187
H	 0.515403	 -1.627901	 1.609819
H	 0.231904	 -2.284065	 0.023074
N	 0.000002	 0.398953	 -0.040851
H	 1.927370	 0.155571	 0.646536
H	 1.687267	 -0.498628	 -0.953345
C	 -1.215959	 -0.382435	 0.027143
H	 -0.000012	 1.086078	 0.683841
C	 -2.451944	 0.502410	 -0.038737
H	 -1.221867	 -1.069392	 -0.813828
H	 -1.259993	 -0.999709	 0.929424
C	 -3.752217	 -0.292550	 0.005776
H	 -2.407325	 1.093801	 -0.946480
H	 -2.431979	 1.206234	 0.790023
H	 -3.817783	 -0.982946	 -0.828547
H	 -4.612613	 0.364348	 -0.042306
H	 -3.830160	 -0.871666	 0.919868

	symmetry c1
}
set optking {
	frozen_dihedral = ("
		10 6 9 12
	")
}

ee,wfn = optimize('scf', return_wfn=True)
oeprop( wfn, 'DIPOLE', 'QUADRUPOLE', 'MULLIKEN_CHARGES')
f=open( 'psi4out.xyz', 'w' )
f.write( "22  " )
f.write( str(ee) + "\n" )
f.write( MOL.save_string_xyz() )
f.close()
--------------------------------------------------------------------------

    Molecular point group: c1
  Charge       = 0
  Multiplicity = 1
  Basis Set: CC-PVTZ
  Basis Set:
  @DF-RHF Final Energy:  -290.47336989953152
    Total Energy =                       -290.4733698995315194
    Molecular point group: c1
  Basis Set: CC-PVTZ
  Basis Set:
  Basis Set: CC-PVTZ
  Basis Set:
  @DF-RHF Final Energy:  -290.46384290711359
    Total Energy =                       -290.4638429071135306
  Basis Set: CC-PVTZ
  Basis Set:
  Basis Set: CC-PVTZ
  Basis Set:
  @DF-RHF Final Energy:  -290.47796282999315
    Total Energy =                       -290.4779628299932028
  Basis Set: CC-PVTZ
  Basis Set:
  Basis Set: CC-PVTZ
  Basis Set:
  @DF-RHF Final Energy:  -290.48062201968679
    Total Energy =                       -290.4806220196867912
  Basis Set: CC-PVTZ
  Basis Set:
  Basis Set: CC-PVTZ
  Basis Set:
  @DF-RHF Final Energy:  -290.48093936418149
    Total Energy =                       -290.4809393641813244
  Basis Set: CC-PVTZ
  Basis Set:
  Basis Set: CC-PVTZ
  Basis Set:
  @DF-RHF Final Energy:  -290.48096439402417
    Total Energy =                       -290.4809643940238857
  Basis Set: CC-PVTZ
  Basis Set:
  Basis Set: CC-PVTZ
  Basis Set:
  @DF-RHF Final Energy:  -290.48096681077715
    Total Energy =                       -290.4809668107770335
  Basis Set: CC-PVTZ
  Basis Set:
  Charge       = 0
  Multiplicity = 1
  Basis Set: CC-PVTZ
  Basis Set:

    Orbital Energies (a.u.)
    -----------------------

    Doubly Occupied:

       1A    -15.525037     2A    -11.237270     3A    -11.235142
       4A    -11.212405     5A    -11.210519     6A    -11.208516
       7A    -11.206768     8A     -1.199809     9A     -1.057805
      10A     -1.028449    11A     -0.930074    12A     -0.874477
      13A     -0.813743    14A     -0.782917    15A     -0.670022
      16A     -0.627871    17A     -0.619700    18A     -0.609170
      19A     -0.573953    20A     -0.557897    21A     -0.539477
      22A     -0.530862    23A     -0.502689    24A     -0.491626
      25A     -0.482805    26A     -0.472846    27A     -0.463421
      28A     -0.459619    29A     -0.352347

  @DF-RHF Final Energy:  -290.48096716407969

   => Energetics <=

    Nuclear Repulsion Energy =            318.2867935626804297
    One-Electron Energy =               -1022.5810498063506202
    Two-Electron Energy =                 413.8132890795904473
    DFT Exchange-Correlation Energy =       0.0000000000000000
    Empirical Dispersion Energy =           0.0000000000000000
    PCM Polarization Energy =               0.0000000000000000
    EFP Energy =                            0.0000000000000000
    Total Energy =                       -290.4809671640796864
    Molecular point group: c1
  Basis Set: CC-PVTZ
  Basis Set:

  -Total Gradient:
     Atom            X                  Y                   Z
    ------   -----------------  -----------------  -----------------
       1       -0.000001784666    -0.000030048005     0.000020837381
       2        0.000030345262     0.000009629584     0.000014340565
       3       -0.000018763082    -0.000055997295    -0.000026391433
       4        0.000019413856     0.000009433704     0.000002749473
       5       -0.000000125283    -0.000005115208    -0.000008547717
       6        0.002339636464     0.002986744914    -0.003803291213
       7       -0.000020767753     0.000006767861     0.000017896008
       8       -0.000017805116    -0.000011972658    -0.000005932081
       9       -0.000571136771    -0.001931924969    -0.005603809740
      10       -0.001911769286    -0.001981792011     0.004896055388
      11       -0.000008261459     0.000011698369    -0.000016282575
      12        0.000174429212     0.001002941490     0.004517754312
      13        0.000005016469     0.000013361129    -0.000005009236
      14        0.000007974240    -0.000001668408     0.000003761702
      15       -0.000013879749    -0.000016641113    -0.000012864342
      16       -0.000007254799    -0.000015021333     0.000012745742
      17        0.000002126491    -0.000004646219     0.000000565752
      18        0.000002493035     0.000010375133    -0.000014435417
      19       -0.000002134057     0.000005929291     0.000005329354
      20        0.000001138532    -0.000004239722    -0.000001590512
      21       -0.000006459323     0.000009639991    -0.000002115658
      22       -0.000002432212    -0.000007454525     0.000008234248

  **** Optimization is complete! (in 8 steps) ****
    Final optimized geometry and variables:
    Molecular point group: c1

    Geometry (in Angstrom), charge = 0, multiplicity = 1:

    H            2.759674758852    -2.858662408326     1.217057825340
    C            2.843662567369    -1.925914137678     0.671836915738
    C            1.495427226576    -1.217362239755     0.583059839116
    H            3.579320621158    -1.311449786988     1.180409673595
    H            3.231848160464    -2.154485072547    -0.315105573977
    C            1.605177699409     0.097389762387    -0.192970455140
    H            1.124556397635    -1.022306498373     1.584829308512
    H            0.778448080024    -1.878441191109     0.109412551687
    N            0.391371896404     0.898419010202    -0.334796422189
    H            2.333382233627     0.701972810830     0.337019709291
    H            2.012761871356    -0.116486193352    -1.177022003008
    C           -0.900601115236     0.265959039030    -0.162572087373
    H            0.444535484320     1.688269370036     0.269121567927
    C           -2.019714948748     1.272293803976    -0.391667765113
    H           -0.997067210025    -0.535073667647    -0.889060803611
    H           -1.029534895818    -0.188751257430     0.819929644305
    C           -3.407347136953     0.658981767703    -0.239872167660
    H           -1.906125911210     1.699540456526    -1.381594081068
    H           -1.910677689236     2.093389755007     0.313315131357
    H           -3.560476840938    -0.144718756074    -0.952435132327
    H           -4.181049628552     1.398966892500    -0.407479872199
    H           -3.552426637209     0.250041159195     0.754562066793

  Mulliken Charges: (a.u.)
   Center  Symbol    Alpha    Beta     Spin     Total
       1     H     0.44719  0.44719  0.00000  0.10562
       2     C     3.15254  3.15254  0.00000 -0.30509
       3     C     3.09505  3.09505  0.00000 -0.19009
       4     H     0.45529  0.45529  0.00000  0.08941
       5     H     0.45465  0.45465  0.00000  0.09069
       6     C     3.02967  3.02967  0.00000 -0.05935
       7     H     0.45426  0.45426  0.00000  0.09149
       8     H     0.45028  0.45028  0.00000  0.09945
       9     N     3.64248  3.64248  0.00000 -0.28497
      10     H     0.46077  0.46077  0.00000  0.07846
      11     H     0.45574  0.45574  0.00000  0.08852
      12     C     3.02569  3.02569  0.00000 -0.05139
      13     H     0.44470  0.44470  0.00000  0.11059
      14     C     3.08139  3.08139  0.00000 -0.16277
      15     H     0.45933  0.45933  0.00000  0.08133
      16     H     0.46927  0.46927  0.00000  0.06146
      17     C     3.15363  3.15363  0.00000 -0.30727
      18     H     0.44869  0.44869  0.00000  0.10263
      19     H     0.46029  0.46029  0.00000  0.07942
      20     H     0.45486  0.45486  0.00000  0.09029
      21     H     0.44770  0.44770  0.00000  0.10459
      22     H     0.45652  0.45652  0.00000  0.08697

   Total alpha = 29.00000, Total beta = 29.00000, Total charge =  0.00000

*** Psi4 exiting successfully. Buy a developer a beer!
