  ==> Input File <==

--------------------------------------------------------------------------
set {
	reference rhf
	basis 6-31G*
}

set_num_threads( 4 )
memory 2 gb

molecule MOL {
0 1

H	 -3.261111	 -0.295142	 1.469456
C	 -3.306842	 -0.277400	 0.373456
C	 -2.660244	 0.921717	 -0.272021
O	 -3.838538	 -1.161155	 -0.216482
C	 -1.220012	 1.144545	 0.209990
H	 -2.705793	 0.797307	 -1.347733
H	 -3.263782	 1.790044	 -0.010477
C	 -0.252658	 0.041456	 -0.226725
H	 -0.873521	 2.100229	 -0.171974
H	 -1.211708	 1.231594	 1.295398
C	 1.180775	 0.282413	 0.250794
H	 -0.266029	 -0.034465	 -1.312038
H	 -0.597733	 -0.921000	 0.146291
C	 2.148627	 -0.814315	 -0.201312
H	 1.516199	 1.249228	 -0.115937
H	 1.192670	 0.346017	 1.338083
C	 3.580890	 -0.659131	 0.322722
H	 2.166869	 -0.852443	 -1.289387
H	 1.762857	 -1.776509	 0.128956
C	 3.770296	 -1.065871	 1.785017
H	 3.876553	 0.380964	 0.209878
H	 4.258138	 -1.236045	 -0.303717
H	 3.093533	 -0.515974	 2.433766
H	 3.589450	 -2.124401	 1.939236
H	 4.783981	 -0.858221	 2.114135

	symmetry c1
}
set optking {
	frozen_dihedral = ("
		20 17 14 18
	")
}

ee = optimize('scf')
oeprop('DIPOLE', 'QUADRUPOLE', 'MULLIKEN_CHARGES')
f=open( 'psi4out.xyz', 'w' )
f.write( "25  " )
f.write( str(ee) + "\n" )
f.write( MOL.save_string_xyz() )
f.close()
--------------------------------------------------------------------------

    Molecular point group: c1
  Charge       = 0
  Multiplicity = 1
  Basis Set: 6-31G*
  Basis Set:
  @DF-RHF Final Energy:  -387.12124115195013
    Total Energy =                       -387.1212411519503576
    Molecular point group: c1
  Basis Set: 6-31G*
  Basis Set:
  Basis Set: 6-31G*
  Basis Set:
  @DF-RHF Final Energy:  -387.12134280136712
    Total Energy =                       -387.1213428013672910
  Basis Set: 6-31G*
  Basis Set:
  Basis Set: 6-31G*
  Basis Set:
  @DF-RHF Final Energy:  -387.12150471880909
    Total Energy =                       -387.1215047188094331
  Basis Set: 6-31G*
  Basis Set:
  Basis Set: 6-31G*
  Basis Set:
  @DF-RHF Final Energy:  -387.12161234566543
    Total Energy =                       -387.1216123456657670
  Basis Set: 6-31G*
  Basis Set:
  Basis Set: 6-31G*
  Basis Set:
  @DF-RHF Final Energy:  -387.12160474085948
    Total Energy =                       -387.1216047408584018
  Basis Set: 6-31G*
  Basis Set:
  Basis Set: 6-31G*
  Basis Set:
  @DF-RHF Final Energy:  -387.12161432909141
    Total Energy =                       -387.1216143290911305
  Basis Set: 6-31G*
  Basis Set:
  Basis Set: 6-31G*
  Basis Set:
  @DF-RHF Final Energy:  -387.12161704906595
    Total Energy =                       -387.1216170490669128
  Basis Set: 6-31G*
  Basis Set:
  Charge       = 0
  Multiplicity = 1
  Basis Set: 6-31G*
  Basis Set:

    Orbital Energies (a.u.)
    -----------------------

    Doubly Occupied:

       1A    -20.562033     2A    -11.326190     3A    -11.235406
       4A    -11.234712     5A    -11.224011     6A    -11.220177
       7A    -11.217924     8A    -11.216839     9A    -11.210731
      10A     -1.401975    11A     -1.103949    12A     -1.069573
      13A     -1.013707    14A     -0.942611    15A     -0.873777
      16A     -0.819646    17A     -0.788385    18A     -0.784131
      19A     -0.664188    20A     -0.662165    21A     -0.630001
      22A     -0.625798    23A     -0.608505    24A     -0.591213
      25A     -0.566850    26A     -0.561836    27A     -0.525763
      28A     -0.519900    29A     -0.519354    30A     -0.497006
      31A     -0.486416    32A     -0.481300    33A     -0.465780
      34A     -0.458336    35A     -0.441107    36A     -0.409565

  @DF-RHF Final Energy:  -387.12161715827398

   => Energetics <=

    Nuclear Repulsion Energy =            439.0246002983599851
    One-Electron Energy =               -1394.3707188447992849
    Two-Electron Energy =                 568.2245013881647537
    DFT Exchange-Correlation Energy =       0.0000000000000000
    Empirical Dispersion Energy =           0.0000000000000000
    PCM Polarization Energy =               0.0000000000000000
    EFP Energy =                            0.0000000000000000
    Total Energy =                       -387.1216171582746028
    Molecular point group: c1
  Basis Set: 6-31G*
  Basis Set:

  -Total Gradient:
     Atom            X                  Y                   Z
    ------   -----------------  -----------------  -----------------
       1        0.000001575539    -0.000000490076    -0.000000565782
       2        0.000007791941    -0.000003045634    -0.000005801727
       3        0.000007553117    -0.000002669521    -0.000000163965
       4       -0.000000715744    -0.000001232090     0.000000289859
       5       -0.000002966032     0.000005506916    -0.000016968645
       6       -0.000002973393     0.000002584012     0.000001518349
       7       -0.000001940169     0.000009387059     0.000000895043
       8       -0.000007905778    -0.000001403551     0.000004737150
       9       -0.000003545233    -0.000000302484     0.000001082167
      10        0.000002377481    -0.000002685234     0.000000674807
      11       -0.000004865538     0.000016209268    -0.000004317357
      12       -0.000011402262     0.000002488977     0.000001334816
      13        0.000004908363    -0.000002111356     0.000000583801
      14       -0.000131259382     0.001901930160    -0.000310677542
      15       -0.000010089783    -0.000013197480     0.000012963813
      16       -0.000003904893     0.000002125094     0.000012233396
      17       -0.000407559872     0.001412333482     0.000605765763
      18        0.000225580041    -0.001983332077     0.000078598764
      19        0.000026506742     0.000023343577     0.000027431816
      20        0.000332892843    -0.001391068640    -0.000410819138
      21       -0.000044981608    -0.000005992797     0.000006542073
      22        0.000025348944     0.000014365666    -0.000017906930
      23       -0.000007313028     0.000014038034    -0.000000432943
      24        0.000000364001     0.000023112618     0.000014935987
      25        0.000006523710    -0.000019893920    -0.000001933574

  **** Optimization is complete! (in 8 steps) ****
    Final optimized geometry and variables:
    Molecular point group: c1

    Geometry (in Angstrom), charge = 0, multiplicity = 1:

    H           -3.234099972068    -0.119253972201     1.200761956699
    C           -3.258462966815    -0.083479687722     0.104428616324
    C           -2.590545221413     1.120911081895    -0.508874865291
    O           -3.790681705584    -0.950549358537    -0.509391470660
    C           -1.156483011073     1.321990157158     0.000507885576
    H           -2.619213863305     1.015569395501    -1.587251036221
    H           -3.190632618151     1.990017489863    -0.242268952388
    C           -0.190909846026     0.219602428771    -0.442013200121
    H           -0.795858624516     2.282317995285    -0.356412003430
    H           -1.165284706852     1.387228883352     1.087279030428
    C            1.238470283685     0.444189529807     0.054658718676
    H           -0.192498598397     0.160834308619    -1.528457502174
    H           -0.545813534309    -0.746502817061    -0.087824800319
    C            2.207927480352    -0.648234889408    -0.402590315774
    H            1.594726835650     1.409313722010    -0.301605177509
    H            1.232708886176     0.503278882786     1.140775686189
    C            3.651422169623    -0.455938260435     0.081723291537
    H            2.200873438894    -0.701307952929    -1.488993872056
    H            1.846006947057    -1.616462563906    -0.060073994067
    C            3.874529510754    -0.841049790966     1.545402979167
    H            3.954449816665     0.576665368010    -0.077551198819
    H            4.309868932694    -1.062059417364    -0.535337581180
    H            3.272201950507    -0.240757245390     2.220364077432
    H            3.620064299209    -1.883526033853     1.714028801467
    H            4.913799601914    -0.704896954955     1.828427371332

  Mulliken Charges: (a.u.)
   Center  Symbol    Alpha    Beta     Spin     Total
       1     H     0.43261  0.43261  0.00000  0.13479
       2     C     2.83083  2.83083  0.00000  0.33833
       3     C     3.20816  3.20816  0.00000 -0.41633
       4     O     4.23775  4.23775  0.00000 -0.47550
       5     C     3.16658  3.16658  0.00000 -0.33316
       6     H     0.39969  0.39969  0.00000  0.20061
       7     H     0.40659  0.40659  0.00000  0.18681
       8     C     3.15494  3.15494  0.00000 -0.30987
       9     H     0.41279  0.41279  0.00000  0.17442
      10     H     0.41969  0.41969  0.00000  0.16063
      11     C     3.15340  3.15340  0.00000 -0.30680
      12     H     0.41807  0.41807  0.00000  0.16386
      13     H     0.41826  0.41826  0.00000  0.16348
      14     C     3.15404  3.15404  0.00000 -0.30807
      15     H     0.42293  0.42293  0.00000  0.15413
      16     H     0.42198  0.42198  0.00000  0.15603
      17     C     3.15379  3.15379  0.00000 -0.30759
      18     H     0.42056  0.42056  0.00000  0.15887
      19     H     0.42250  0.42250  0.00000  0.15500
      20     C     3.24047  3.24047  0.00000 -0.48094
      21     H     0.42294  0.42294  0.00000  0.15413
      22     H     0.41988  0.41988  0.00000  0.16024
      23     H     0.42161  0.42161  0.00000  0.15678
      24     H     0.42107  0.42107  0.00000  0.15786
      25     H     0.41886  0.41886  0.00000  0.16228

   Total alpha = 36.00000, Total beta = 36.00000, Total charge =  0.00000
