                              Psi4 1.0.54 Driver

  ==> Input File <==

--------------------------------------------------------------------------
set {
	reference rhf
	basis cc-pvtz
}

set_num_threads( 4 )
memory 2 gb

molecule MOL {
0 1

H	 -2.832109	 -0.661343	 0.918978
C	 -2.768027	 -0.308281	 -0.107727
O	 -1.448387	 -0.162153	 -0.513605
H	 -3.234501	 -1.036216	 -0.755339
H	 -3.316097	 0.629120	 -0.183782
C	 -0.718530	 0.758693	 0.228682
C	 0.718529	 0.758687	 -0.228709
H	 -1.130285	 1.759443	 0.098579
H	 -0.756483	 0.515577	 1.288344
O	 1.401606	 -0.295166	 0.366636
H	 0.748705	 0.673477	 -1.312803
H	 1.176496	 1.708671	 0.046552
C	 2.714315	 -0.441627	 -0.061017
H	 2.765292	 -0.641548	 -1.128869
H	 3.305661	 0.447341	 0.150952
H	 3.143725	 -1.278506	 0.470147

	symmetry c1
}
set optking {
	frozen_dihedral = ("
		3 6 7 11
	")
}

ee,wfn = optimize('scf', return_wfn=True)
oeprop( wfn, 'DIPOLE', 'QUADRUPOLE', 'MULLIKEN_CHARGES')
f=open( 'psi4out.xyz', 'w' )
f.write( "16  " )
f.write( str(ee) + "\n" )
f.write( MOL.save_string_xyz() )
f.close()
--------------------------------------------------------------------------

    Molecular point group: c1
  Charge       = 0
  Multiplicity = 1
  Basis Set: CC-PVTZ
  Basis Set:
  @DF-RHF Final Energy:  -307.09757967138449
    Total Energy =                       -307.0975796713844375
    Molecular point group: c1
  Basis Set: CC-PVTZ
  Basis Set:
  Basis Set: CC-PVTZ
  Basis Set:
  @DF-RHF Final Energy:  -307.09762819429238
    Total Energy =                       -307.0976281942924970
  Basis Set: CC-PVTZ
  Basis Set:
  Basis Set: CC-PVTZ
  Basis Set:
  @DF-RHF Final Energy:  -307.09763765699506
    Total Energy =                       -307.0976376569947774
  Basis Set: CC-PVTZ
  Basis Set:
  Charge       = 0
  Multiplicity = 1
  Basis Set: CC-PVTZ
  Basis Set:

    Orbital Energies (a.u.)
    -----------------------

    Doubly Occupied:

       1A    -20.548441     2A    -20.547962     3A    -11.267344
       4A    -11.266669     5A    -11.261900     6A    -11.261669
       7A     -1.391247     8A     -1.374952     9A     -1.031660
      10A     -0.937628    11A     -0.890820    12A     -0.825932
      13A     -0.685549    14A     -0.683726    15A     -0.659115
      16A     -0.636363    17A     -0.634497    18A     -0.599056
      19A     -0.546433    20A     -0.540079    21A     -0.509804
      22A     -0.480287    23A     -0.464896    24A     -0.424623
      25A     -0.413310

  @DF-RHF Final Energy:  -307.09763795468132

   => Energetics <=

    Nuclear Repulsion Energy =            258.4061666289109098
    One-Electron Energy =                -931.2396788429659864
    Two-Electron Energy =                 365.7358742593736451
    DFT Exchange-Correlation Energy =       0.0000000000000000
    Empirical Dispersion Energy =           0.0000000000000000
    PCM Polarization Energy =               0.0000000000000000
    EFP Energy =                            0.0000000000000000
    Total Energy =                       -307.0976379546814314
    Molecular point group: c1
  Basis Set: CC-PVTZ
  Basis Set:

  -Total Gradient:
     Atom            X                  Y                   Z
    ------   -----------------  -----------------  -----------------
       1        0.000003053791     0.000003768290    -0.000003959363
       2       -0.000019955748    -0.000027513091    -0.000026551956
       3       -0.000325013662     0.001118216880    -0.001014996201
       4       -0.000018885365    -0.000003745268     0.000007161681
       5        0.000002772570     0.000002767088     0.000004739764
       6        0.000438890315    -0.001904115560     0.001392697726
       7       -0.000108034833     0.002783544942    -0.000502747428
       8       -0.000005928737     0.000015582745     0.000014214643
       9       -0.000007746736    -0.000010186429    -0.000011996664
      10       -0.000023228848     0.000041403337    -0.000017643810
      11        0.000042080586    -0.001997833449     0.000159047545
      12       -0.000000499676    -0.000003366865     0.000001061171
      13        0.000028032081    -0.000022943254     0.000001523614
      14        0.000002451706     0.000002279003    -0.000000095987
      15       -0.000008066199    -0.000000905996     0.000000068591
      16        0.000000078759     0.000003047626    -0.000002523327

  **** Optimization is complete! (in 4 steps) ****
    Final optimized geometry and variables:
    Molecular point group: c1

    Geometry (in Angstrom), charge = 0, multiplicity = 1:

    H           -2.800813733124    -0.721487075725     0.979684608009
    C           -2.742730427685    -0.365518911929    -0.046273708811
    O           -1.425495225832    -0.206237708226    -0.455601180181
    H           -3.204667282501    -1.095854536150    -0.694467015086
    H           -3.299039089457     0.567296165619    -0.118553906495
    C           -0.702663231343     0.723114233291     0.285311845381
    C            0.736522492398     0.727653180318    -0.171529888447
    H           -1.125664802105     1.717785828709     0.146158691418
    H           -0.739205167112     0.487962728922     1.346071465923
    O            1.413738805345    -0.338065864722     0.414915211979
    H            0.762091891721     0.637359630291    -1.254647333545
    H            1.205025989703     1.669886565021     0.109150469455
    C            2.721886308631    -0.495725831533    -0.022712099205
    H            2.763532887201    -0.691203999623    -1.091790390907
    H            3.323387120675     0.386459396575     0.188984683253
    H            3.146966043437    -1.339057448179     0.501744497573

  Mulliken Charges: (a.u.)
   Center  Symbol    Alpha    Beta     Spin     Total
       1     H     0.46988  0.46988  0.00000  0.06023
       2     C     3.03155  3.03155  0.00000 -0.06310
       3     O     4.17184  4.17184  0.00000 -0.34369
       4     H     0.44646  0.44646  0.00000  0.10707
       5     H     0.47361  0.47361  0.00000  0.05279
       6     C     2.95987  2.95987  0.00000  0.08025
       7     C     2.96037  2.96037  0.00000  0.07926
       8     H     0.47665  0.47665  0.00000  0.04669
       9     H     0.46998  0.46998  0.00000  0.06004
      10     O     4.17229  4.17229  0.00000 -0.34458
      11     H     0.47001  0.47001  0.00000  0.05999
      12     H     0.47564  0.47564  0.00000  0.04872
      13     C     3.03148  3.03148  0.00000 -0.06296
      14     H     0.47017  0.47017  0.00000  0.05965
      15     H     0.47368  0.47368  0.00000  0.05265
      16     H     0.44651  0.44651  0.00000  0.10699

   Total alpha = 25.00000, Total beta = 25.00000, Total charge =  0.00000

*** Psi4 exiting successfully. Buy a developer a beer!
