  ==> Input File <==

--------------------------------------------------------------------------
set {
	reference rhf
	basis cc-pvtz
}

set_num_threads( 4 )
memory 2 gb

molecule MOL {
0 1

H	 -3.162190	 0.493205	 -0.000107
C	 -2.363908	 -0.234727	 0.000005
O	 -1.158738	 0.454634	 -0.000087
H	 -2.464314	 -0.863616	 -0.882153
H	 -2.464327	 -0.863359	 0.882345
C	 -0.028611	 -0.359694	 0.000037
C	 -0.340148	 -1.646049	 -0.737952
H	 0.274710	 -0.578113	 1.024208
H	 0.803935	 0.156117	 -0.478970
C	 0.851924	 -2.595457	 -0.782016
H	 -1.182871	 -2.126777	 -0.253552
H	 -0.657798	 -1.398382	 -1.744784
H	 1.171269	 -2.875733	 0.216258
H	 0.601855	 -3.505016	 -1.314170
H	 1.699740	 -2.142591	 -1.285196

	symmetry c1
}
set optking {
	frozen_dihedral = ("
		8 6 3 2
	")
}

ee = optimize('scf')
oeprop('DIPOLE', 'QUADRUPOLE', 'MULLIKEN_CHARGES')
f=open( 'psi4out.xyz', 'w' )
f.write( "15  " )
f.write( str(ee) + "\n" )
f.write( MOL.save_string_xyz() )
f.close()
--------------------------------------------------------------------------

    Molecular point group: c1
  Charge       = 0
  Multiplicity = 1
  Basis Set: CC-PVTZ
  Basis Set:
  @DF-RHF Final Energy:  -232.20958153429029
    Total Energy =                       -232.2095815342903506
    Molecular point group: c1
  Basis Set: CC-PVTZ
  Basis Set:
  Basis Set: CC-PVTZ
  Basis Set:
  @DF-RHF Final Energy:  -232.20985522716813
    Total Energy =                       -232.2098552271680774
  Basis Set: CC-PVTZ
  Basis Set:
  Basis Set: CC-PVTZ
  Basis Set:
  @DF-RHF Final Energy:  -232.21718968669245
    Total Energy =                       -232.2171896866927341
  Basis Set: CC-PVTZ
  Basis Set:
  Basis Set: CC-PVTZ
  Basis Set:
  @DF-RHF Final Energy:  -232.22022581223607
    Total Energy =                       -232.2202258122361513
  Basis Set: CC-PVTZ
  Basis Set:
  @DF-RHF Final Energy:  -232.22072867751800
    Total Energy =                       -232.2207286775179114
  Basis Set: CC-PVTZ
  Basis Set:
  @DF-RHF Final Energy:  -232.22098805927206
    Total Energy =                       -232.2209880592720879
  Basis Set: CC-PVTZ
  Basis Set:
  Basis Set: CC-PVTZ
  Basis Set:
  @DF-RHF Final Energy:  -232.22102214008066
    Total Energy =                       -232.2210221400806063
  Basis Set: CC-PVTZ
  Basis Set:
  Basis Set: CC-PVTZ
  Basis Set:
  @DF-RHF Final Energy:  -232.22102424835876
    Total Energy =                       -232.2210242483589582
  Basis Set: CC-PVTZ
  Basis Set:
  Charge       = 0
  Multiplicity = 1
  Basis Set: CC-PVTZ
  Basis Set:

    Orbital Energies (a.u.)
    -----------------------

    Doubly Occupied:

       1A    -20.543157     2A    -11.263976     3A    -11.260036
       4A    -11.219612     5A    -11.214819     6A     -1.373603
       7A     -1.059768     8A     -0.962368     9A     -0.886157
      10A     -0.799525    11A     -0.671613    12A     -0.661056
      13A     -0.630287    14A     -0.606926    15A     -0.561785
      16A     -0.535869    17A     -0.525471    18A     -0.500333
      19A     -0.490502    20A     -0.447180    21A     -0.407780

  @DF-RHF Final Energy:  -232.22102451930317

   => Energetics <=

    Nuclear Repulsion Energy =            192.3759268631383748
    One-Electron Energy =                -695.9502585439981885
    Two-Electron Energy =                 271.3533071615568133
    DFT Exchange-Correlation Energy =       0.0000000000000000
    Empirical Dispersion Energy =           0.0000000000000000
    PCM Polarization Energy =               0.0000000000000000
    EFP Energy =                            0.0000000000000000
    Total Energy =                       -232.2210245193030005
    Molecular point group: c1
  Basis Set: CC-PVTZ
  Basis Set:

  -Total Gradient:
     Atom            X                  Y                   Z
    ------   -----------------  -----------------  -----------------
       1       -0.000003056232    -0.000002582655    -0.000000859222
       2       -0.000144824940    -0.000186417620    -0.004319220816
       3        0.001066958961     0.001285266994     0.006318882939
       4        0.000001949468     0.000001827102     0.000002949465
       5       -0.000004034297    -0.000000540124    -0.000001848204
       6       -0.004191963836    -0.005035678047    -0.001716056726
       7        0.000007249293    -0.000006445909    -0.000014210621
       8        0.003283229864     0.003946131259    -0.000265049194
       9       -0.000008897581     0.000000710084     0.000001185058
      10       -0.000008859375     0.000001019673    -0.000000536762
      11       -0.000000118483     0.000004345088     0.000000361058
      12        0.000000315600    -0.000007653833    -0.000005147443
      13        0.000000160141     0.000001180270    -0.000000291233
      14        0.000000072516    -0.000000091531     0.000001612363
      15        0.000001818902    -0.000001070747    -0.000001770662

  **** Optimization is complete! (in 9 steps) ****
    Final optimized geometry and variables:
    Molecular point group: c1

    Geometry (in Angstrom), charge = 0, multiplicity = 1:

    H           -2.504876251373     1.657648405282     0.430070608679
    C           -1.839073986572     0.810668653241     0.345540316467
    O           -0.545913161398     1.316782868956     0.283201298411
    H           -2.107977422037     0.251397938582    -0.543927334101
    H           -1.987568030607     0.172075785065     1.214231575419
    C            0.528028539390     0.418029952159     0.288756332601
    C            0.332053926173    -0.890478423647    -0.462307017607
    H            0.836801699246     0.231064793707     1.317079520975
    H            1.348287601014     0.957840660020    -0.170279552091
    C            1.622284873221    -1.704488947348    -0.488852342483
    H           -0.452070139039    -1.482110470310    -0.003771475868
    H            0.014722638374    -0.675592206162    -1.477813673054
    H            1.957521482371    -1.942204984348     0.515036978210
    H            1.479645320204    -2.638590583339    -1.018206660307
    H            2.419967394496    -1.161900906772    -0.984200091367

  Mulliken Charges: (a.u.)
   Center  Symbol    Alpha    Beta     Spin     Total
       1     H     0.44331  0.44331  0.00000  0.11338
       2     C     3.03626  3.03626  0.00000 -0.07253
       3     O     4.17749  4.17749  0.00000 -0.35499
       4     H     0.46858  0.46858  0.00000  0.06285
       5     H     0.47292  0.47292  0.00000  0.05416
       6     C     2.96727  2.96727  0.00000  0.06545
       7     C     3.10020  3.10020  0.00000 -0.20039
       8     H     0.46909  0.46909  0.00000  0.06183
       9     H     0.45707  0.45707  0.00000  0.08587
      10     C     3.15252  3.15252  0.00000 -0.30504
      11     H     0.45201  0.45201  0.00000  0.09597
      12     H     0.44919  0.44919  0.00000  0.10163
      13     H     0.45444  0.45444  0.00000  0.09113
      14     H     0.44646  0.44646  0.00000  0.10709
      15     H     0.45320  0.45320  0.00000  0.09361

   Total alpha = 21.00000, Total beta = 21.00000, Total charge =  0.00000
