                              Psi4 1.0.54 Driver

  ==> Input File <==

--------------------------------------------------------------------------
set {
	reference rhf
	basis cc-pvtz
}

set_num_threads( 4 )
memory 2 gb

molecule MOL {
0 1

H	 -2.428107	 1.537782	 0.859465
O	 -1.596345	 1.090085	 0.897657
C	 -1.605397	 0.107680	 0.001145
C	 -0.310616	 -0.658853	 0.000791
O	 -2.541161	 -0.104894	 -0.689599
C	 0.926581	 0.227233	 0.000178
H	 -0.327628	 -1.313681	 -0.864448
H	 -0.327041	 -1.313334	 0.866298
C	 2.220156	 -0.582071	 -0.000088
H	 0.899945	 0.878221	 -0.866390
H	 0.900542	 0.878581	 0.866486
C	 3.466689	 0.296012	 -0.000457
H	 2.239073	 -1.234095	 -0.869382
H	 2.239505	 -1.233985	 0.869270
H	 3.493549	 0.935857	 -0.875887
H	 4.368821	 -0.304526	 -0.001199
H	 3.494559	 0.935166	 0.875458

	symmetry c1
}
set optking {
	frozen_dihedral = ("
		2 3 4 7
	")
}

ee,wfn = optimize('scf', return_wfn=True)
oeprop( wfn, 'DIPOLE', 'QUADRUPOLE', 'MULLIKEN_CHARGES')
f=open( 'psi4out.xyz', 'w' )
f.write( "17  " )
f.write( str(ee) + "\n" )
f.write( MOL.save_string_xyz() )
f.close()
--------------------------------------------------------------------------

    Molecular point group: c1
  Charge       = 0
  Multiplicity = 1
  Basis Set: CC-PVTZ
  Basis Set:
  @DF-RHF Final Energy:  -345.04685144595732
    Total Energy =                       -345.0468514459570315
    Molecular point group: c1
  Basis Set: CC-PVTZ
  Basis Set:
  Basis Set: CC-PVTZ
  Basis Set:
  @DF-RHF Final Energy:  -345.04708008547124
    Total Energy =                       -345.0470800854706681
  Basis Set: CC-PVTZ
  Basis Set:
  Basis Set: CC-PVTZ
  Basis Set:
  @DF-RHF Final Energy:  -345.04715632239567
    Total Energy =                       -345.0471563223959492
  Basis Set: CC-PVTZ
  Basis Set:
  Basis Set: CC-PVTZ
  Basis Set:
  @DF-RHF Final Energy:  -345.04724024229540
    Total Energy =                       -345.0472402422955724
  Basis Set: CC-PVTZ
  Basis Set:
  Basis Set: CC-PVTZ
  Basis Set:
  @DF-RHF Final Energy:  -345.04724777006044
    Total Energy =                       -345.0472477700607783
  Basis Set: CC-PVTZ
  Basis Set:
  Charge       = 0
  Multiplicity = 1
  Basis Set: CC-PVTZ
  Basis Set:

    Orbital Energies (a.u.)
    -----------------------

    Doubly Occupied:

       1A    -20.605024     2A    -20.538766     3A    -11.372987
       4A    -11.238668     5A    -11.228327     6A    -11.224034
       7A    -11.213853     8A     -1.477745     9A     -1.367930
      10A     -1.095970    11A     -1.020806    12A     -0.911044
      13A     -0.825628    14A     -0.809018    15A     -0.704473
      16A     -0.684150    17A     -0.660744    18A     -0.637206
      19A     -0.591742    20A     -0.585158    21A     -0.579950
      22A     -0.537192    23A     -0.515286    24A     -0.499209
      25A     -0.487216    26A     -0.477994    27A     -0.475501
      28A     -0.437234

  @DF-RHF Final Energy:  -345.04724839697599

   => Energetics <=

    Nuclear Repulsion Energy =            305.4451504013990188
    One-Electron Energy =               -1075.3790876191749248
    Two-Electron Energy =                 424.8866888208004866
    DFT Exchange-Correlation Energy =       0.0000000000000000
    Empirical Dispersion Energy =           0.0000000000000000
    PCM Polarization Energy =               0.0000000000000000
    EFP Energy =                            0.0000000000000000
    Total Energy =                       -345.0472483969754194
    Molecular point group: c1
  Basis Set: CC-PVTZ
  Basis Set:

  -Total Gradient:
     Atom            X                  Y                   Z
    ------   -----------------  -----------------  -----------------
       1       -0.000003505465    -0.000015868535     0.000002466253
       2        0.000312333248     0.000508733911    -0.000491411785
       3       -0.000332647072    -0.000511566893     0.000567963193
       4       -0.000378967382    -0.000633569167     0.000370827030
       5        0.000012271919    -0.000004762129    -0.000002034309
       6       -0.000001888014    -0.000002185500     0.000048642943
       7        0.000380461615     0.000640792682    -0.000488143505
       8        0.000020390295     0.000007900908     0.000011561195
       9        0.000009926554    -0.000013466790    -0.000031431546
      10        0.000004640662    -0.000016452164    -0.000003530558
      11       -0.000000946553     0.000034655489     0.000011286575
      12       -0.000013174828     0.000008212291     0.000003146475
      13        0.000008836741    -0.000005121551    -0.000004394223
      14       -0.000015401639     0.000002290170     0.000002250677
      15        0.000001028722     0.000002444184    -0.000002739824
      16       -0.000006097901    -0.000004213165     0.000000642199
      17        0.000002739095     0.000002176259     0.000004899208

  **** Optimization is complete! (in 6 steps) ****
    Final optimized geometry and variables:
    Molecular point group: c1

    Geometry (in Angstrom), charge = 0, multiplicity = 1:

    H           -2.541725724938     1.460543248705     0.747317785695
    O           -1.697027536584     1.041587853876     0.816239841246
    C           -1.654562044364     0.041816708167    -0.059330793460
    C           -0.357961493271    -0.722137496049    -0.019440427742
    O           -2.565928363701    -0.205515165746    -0.771726316087
    C            0.895584339387     0.153802164026    -0.007846699968
    H           -0.360653738160    -1.381006199615    -0.875605423087
    H           -0.383845654360    -1.339471261953     0.873831858289
    C            2.175977790479    -0.676153761123    -0.017756480873
    H            0.884302584273     0.808169644584    -0.874999247541
    H            0.882459518611     0.795823025866     0.864259132304
    C            3.436800700967     0.181177849751    -0.010573337689
    H            2.182418580961    -1.320197386078    -0.892459335899
    H            2.182589583653    -1.334810120228     0.846457214411
    H            3.475448235133     0.827260895453    -0.881073747415
    H            4.328238603368    -0.434893413629    -0.016323911984
    H            3.475783446331     0.812261715555     0.870796772853

  Mulliken Charges: (a.u.)
   Center  Symbol    Alpha    Beta     Spin     Total
       1     H     0.38087  0.38087  0.00000  0.23826
       2     O     4.16101  4.16101  0.00000 -0.32202
       3     C     2.81175  2.81175  0.00000  0.37650
       4     C     3.08790  3.08790  0.00000 -0.17579
       5     O     4.19371  4.19371  0.00000 -0.38742
       6     C     3.09573  3.09573  0.00000 -0.19146
       7     H     0.43546  0.43546  0.00000  0.12909
       8     H     0.44465  0.44465  0.00000  0.11069
       9     C     3.08765  3.08765  0.00000 -0.17529
      10     H     0.44943  0.44943  0.00000  0.10113
      11     H     0.44198  0.44198  0.00000  0.11603
      12     C     3.14904  3.14904  0.00000 -0.29809
      13     H     0.45220  0.45220  0.00000  0.09560
      14     H     0.45359  0.45359  0.00000  0.09282
      15     H     0.45387  0.45387  0.00000  0.09226
      16     H     0.44716  0.44716  0.00000  0.10568
      17     H     0.45401  0.45401  0.00000  0.09199

   Total alpha = 28.00000, Total beta = 28.00000, Total charge = -0.00000

*** Psi4 exiting successfully. Buy a developer a beer!
