                              Psi4 1.0.54 Driver

  ==> Input File <==

--------------------------------------------------------------------------
set {
	reference rhf
	basis cc-pvtz
}

set_num_threads( 4 )
memory 2 gb

molecule MOL {
0 1

H	 -2.498963	 -0.741158	 -0.729149
O	 -2.346257	 -0.289210	 0.080372
C	 -1.183935	 0.486039	 -0.009831
C	 0.062853	 -0.375310	 0.027457
H	 -1.178881	 1.094526	 -0.908634
H	 -1.184406	 1.155156	 0.838676
O	 1.172093	 0.457955	 -0.054438
H	 0.052476	 -1.081302	 -0.804627
H	 0.076323	 -0.955658	 0.947560
C	 1.877497	 0.367849	 -1.248385
H	 1.255352	 0.637714	 -2.098904
H	 2.709404	 1.054628	 -1.194062
H	 2.261652	 -0.636874	 -1.407997

	symmetry c1
}
set optking {
	frozen_dihedral = ("
		10 7 4 8
	")
}

ee,wfn = optimize('scf', return_wfn=True)
oeprop( wfn, 'DIPOLE', 'QUADRUPOLE', 'MULLIKEN_CHARGES')
f=open( 'psi4out.xyz', 'w' )
f.write( "13  " )
f.write( str(ee) + "\n" )
f.write( MOL.save_string_xyz() )
f.close()
--------------------------------------------------------------------------

    Molecular point group: c1
  Charge       = 0
  Multiplicity = 1
  Basis Set: CC-PVTZ
  Basis Set:
  @DF-RHF Final Energy:  -268.05795924132565
    Total Energy =                       -268.0579592413257046
    Molecular point group: c1
  Basis Set: CC-PVTZ
  Basis Set:
  Basis Set: CC-PVTZ
  Basis Set:
  @DF-RHF Final Energy:  -268.05844451039724
    Total Energy =                       -268.0584445103972371
  Basis Set: CC-PVTZ
  Basis Set:
  Basis Set: CC-PVTZ
  Basis Set:
  @DF-RHF Final Energy:  -268.05856005645967
    Total Energy =                       -268.0585600564596689
  Basis Set: CC-PVTZ
  Basis Set:
  Basis Set: CC-PVTZ
  Basis Set:
  @DF-RHF Final Energy:  -268.05856158968697
    Total Energy =                       -268.0585615896869740
  Basis Set: CC-PVTZ
  Basis Set:
  Charge       = 0
  Multiplicity = 1
  Basis Set: CC-PVTZ
  Basis Set:

    Orbital Energies (a.u.)
    -----------------------

    Doubly Occupied:

       1A    -20.553682     2A    -20.553625     3A    -11.269569
       4A    -11.269355     5A    -11.267690     6A     -1.388154
       7A     -1.369436     8A     -1.017601     9A     -0.920862
      10A     -0.841330    11A     -0.712330    12A     -0.669986
      13A     -0.663418    14A     -0.643366    15A     -0.591807
      16A     -0.577723    17A     -0.547487    18A     -0.491533
      19A     -0.472241    20A     -0.469271    21A     -0.408735

  @DF-RHF Final Energy:  -268.05856176527476

   => Energetics <=

    Nuclear Repulsion Energy =            191.1530014782917419
    One-Electron Energy =                -745.0247239656853253
    Two-Electron Energy =                 285.8131607221185959
    DFT Exchange-Correlation Energy =       0.0000000000000000
    Empirical Dispersion Energy =           0.0000000000000000
    PCM Polarization Energy =               0.0000000000000000
    EFP Energy =                            0.0000000000000000
    Total Energy =                       -268.0585617652749306
    Molecular point group: c1
  Basis Set: CC-PVTZ
  Basis Set:

  -Total Gradient:
     Atom            X                  Y                   Z
    ------   -----------------  -----------------  -----------------
       1       -0.000001534361     0.000013628964     0.000000498861
       2        0.000004845779    -0.000013023793     0.000012015976
       3        0.000005677387    -0.000008122162    -0.000009155127
       4        0.000332877368    -0.000401281706     0.000290136542
       5        0.000004307401     0.000002159656     0.000007120130
       6       -0.000010426964     0.000005096484    -0.000003905547
       7       -0.000290051187     0.000386225876    -0.000201184838
       8       -0.000183687469     0.000231832118    -0.000215245494
       9       -0.000003774955     0.000015552704     0.000000322439
      10        0.000145092897    -0.000227940366     0.000120940817
      11        0.000002728563    -0.000002448081    -0.000000094869
      12       -0.000005140309    -0.000000958971     0.000001777602
      13       -0.000000914156    -0.000000720723    -0.000003226492

  **** Optimization is complete! (in 5 steps) ****
    Final optimized geometry and variables:
    Molecular point group: c1

    Geometry (in Angstrom), charge = 0, multiplicity = 1:

    H           -2.422676318165    -0.887464256595    -0.407120083940
    O           -2.260583524865    -0.394561023205     0.376324280641
    C           -1.100445835258     0.376427950504     0.234567866743
    C            0.152813409151    -0.481926985774     0.262080777414
    H           -1.125575960622     0.966348954090    -0.677890147458
    H           -1.077367959913     1.065984286275     1.066187990505
    O            1.289697370514     0.325898404337     0.190731326036
    H            0.129305199491    -1.196020121906    -0.558737280279
    H            0.179876754043    -1.047976159793     1.185440398026
    C            2.037378974153     0.234016639507    -0.978525659118
    H            1.447229403576     0.483349409554    -1.857357852750
    H            2.852886192709     0.938363913374    -0.901593415423
    H            2.449565056923    -0.763097532831    -1.110886525011

  Mulliken Charges: (a.u.)
   Center  Symbol    Alpha    Beta     Spin     Total
       1     H     0.39481  0.39481  0.00000  0.21038
       2     O     4.20167  4.20167  0.00000 -0.40335
       3     C     2.96971  2.96971  0.00000  0.06059
       4     C     2.97853  2.97853  0.00000  0.04294
       5     H     0.47098  0.47098  0.00000  0.05803
       6     H     0.45290  0.45290  0.00000  0.09420
       7     O     4.18182  4.18182  0.00000 -0.36364
       8     H     0.47963  0.47963  0.00000  0.04074
       9     H     0.45081  0.45081  0.00000  0.09838
      10     C     3.03029  3.03029  0.00000 -0.06058
      11     H     0.47379  0.47379  0.00000  0.05243
      12     H     0.44750  0.44750  0.00000  0.10500
      13     H     0.46756  0.46756  0.00000  0.06489

   Total alpha = 21.00000, Total beta = 21.00000, Total charge = -0.00000

*** Psi4 exiting successfully. Buy a developer a beer!
