                              Psi4 1.0.54 Driver

  ==> Input File <==

--------------------------------------------------------------------------
set {
	reference rhf
	basis cc-pvtz
}

set_num_threads( 4 )
memory 2 gb

molecule MOL {
0 1

H	 5.269878	 0.195679	 1.068175
C	 4.673900	 -0.208485	 0.258034
C	 3.190199	 -0.204714	 0.610086
H	 4.865136	 0.391893	 -0.624684
H	 5.027838	 -1.214511	 0.056939
C	 2.319208	 -0.778154	 -0.505491
H	 2.876954	 0.809861	 0.827925
H	 3.035335	 -0.782733	 1.518235
C	 0.882286	 -1.063982	 -0.080705
H	 2.309226	 -0.094326	 -1.345198
H	 2.761014	 -1.705590	 -0.858271
C	 0.027319	 0.172852	 0.137831
H	 0.379776	 -1.646490	 -0.848776
H	 0.856330	 -1.675860	 0.816206
C	 -1.257276	 0.004581	 0.925786
O	 0.336020	 1.231436	 -0.306441
C	 -2.280107	 -0.914687	 0.249676
H	 -1.676723	 0.992087	 1.062662
H	 -1.008678	 -0.392611	 1.906415
C	 -3.596168	 -0.986774	 1.019388
H	 -2.472554	 -0.554535	 -0.757225
H	 -1.873006	 -1.915750	 0.148962
C	 -4.625961	 -1.892789	 0.353214
H	 -4.006319	 0.013562	 1.120268
H	 -3.402097	 -1.340593	 2.028210
H	 -4.863799	 -1.545697	 -0.646607
H	 -4.258388	 -2.910209	 0.270712
H	 -5.548226	 -1.919991	 0.921544

	symmetry c1
}
set optking {
	frozen_dihedral = ("
		10 6 3 2
	")
}

ee,wfn = optimize('scf', return_wfn=True)
oeprop( wfn, 'DIPOLE', 'QUADRUPOLE', 'MULLIKEN_CHARGES')
f=open( 'psi4out.xyz', 'w' )
f.write( "28  " )
f.write( str(ee) + "\n" )
f.write( MOL.save_string_xyz() )
f.close()
--------------------------------------------------------------------------

    Molecular point group: c1
  Charge       = 0
  Multiplicity = 1
  Basis Set: CC-PVTZ
  Basis Set:
  @DF-RHF Final Energy:  -426.31935999047766
    Total Energy =                       -426.3193599904770963
    Molecular point group: c1
  Basis Set: CC-PVTZ
  Basis Set:
  Basis Set: CC-PVTZ
  Basis Set:
  @DF-RHF Final Energy:  -426.31940113785652
    Total Energy =                       -426.3194011378560617
  Basis Set: CC-PVTZ
  Basis Set:
  Basis Set: CC-PVTZ
  Basis Set:
  @DF-RHF Final Energy:  -426.31926625474227
    Total Energy =                       -426.3192662547419332
  Basis Set: CC-PVTZ
  Basis Set:
  Basis Set: CC-PVTZ
  Basis Set:
  @DF-RHF Final Energy:  -426.31943043041326
    Total Energy =                       -426.3194304304131492
  Basis Set: CC-PVTZ
  Basis Set:
  Basis Set: CC-PVTZ
  Basis Set:
  @DF-RHF Final Energy:  -426.31942848031304
    Total Energy =                       -426.3194284803133769
  Basis Set: CC-PVTZ
  Basis Set:
  Basis Set: CC-PVTZ
  Basis Set:
  @DF-RHF Final Energy:  -426.31943251443693
    Total Energy =                       -426.3194325144376080
  Basis Set: CC-PVTZ
  Basis Set:
  Basis Set: CC-PVTZ
  Basis Set:
  @DF-RHF Final Energy:  -426.31943531615013
    Total Energy =                       -426.3194353161503614
  Basis Set: CC-PVTZ
  Basis Set:
  Charge       = 0
  Multiplicity = 1
  Basis Set: CC-PVTZ
  Basis Set:

    Orbital Energies (a.u.)
    -----------------------

    Doubly Occupied:

       1A    -20.536636     2A    -11.316569     3A    -11.229806
       4A    -11.228141     5A    -11.226831     6A    -11.223798
       7A    -11.214838     8A    -11.214230     9A    -11.210693
      10A    -11.204573    11A     -1.396532    12A     -1.096156
      13A     -1.078740    14A     -1.023597    15A     -0.991879
      16A     -0.908115    17A     -0.873939    18A     -0.809360
      19A     -0.800530    20A     -0.724179    21A     -0.670475
      22A     -0.654284    23A     -0.631073    24A     -0.621704
      25A     -0.609648    26A     -0.587673    27A     -0.578912
      28A     -0.576812    29A     -0.543031    30A     -0.534861
      31A     -0.521024    32A     -0.505925    33A     -0.502123
      34A     -0.485550    35A     -0.479843    36A     -0.476638
      37A     -0.473360    38A     -0.465138    39A     -0.456697
      40A     -0.394103

  @DF-RHF Final Energy:  -426.31943537221377

   => Energetics <=

    Nuclear Repulsion Energy =            531.7283123189081380
    One-Electron Energy =               -1631.9394661873552650
    Two-Electron Energy =                 673.8917184962327838
    DFT Exchange-Correlation Energy =       0.0000000000000000
    Empirical Dispersion Energy =           0.0000000000000000
    PCM Polarization Energy =               0.0000000000000000
    EFP Energy =                            0.0000000000000000
    Total Energy =                       -426.3194353722143433
    Molecular point group: c1
  Basis Set: CC-PVTZ
  Basis Set:

  -Total Gradient:
     Atom            X                  Y                   Z
    ------   -----------------  -----------------  -----------------
       1       -0.000001183734     0.000000172152    -0.000001562381
       2        0.000163833591    -0.001459678943     0.000645230161
       3       -0.000636162353     0.002248802051    -0.000691849869
       4        0.000001475658    -0.000002023938     0.000000263278
       5       -0.000001090537     0.000001147445     0.000001844534
       6        0.002276373115    -0.001803687643    -0.000801521009
       7       -0.000001299173     0.000002788164    -0.000000062003
       8       -0.000001153885    -0.000000355197     0.000000261118
       9        0.000002610780    -0.000002674152     0.000014820939
      10       -0.001787838234     0.001004601486     0.000842885672
      11       -0.000001045791     0.000003369296     0.000003420987
      12       -0.000006403112     0.000002442729    -0.000006555200
      13       -0.000001563439     0.000003548007    -0.000003374874
      14       -0.000000311469    -0.000000490508    -0.000002606395
      15       -0.000003215425    -0.000000076824    -0.000006147397
      16       -0.000005333448     0.000004529611    -0.000003794736
      17        0.000007996732    -0.000003418208     0.000002898384
      18       -0.000000165205    -0.000000681840     0.000000254853
      19       -0.000002066685    -0.000001525907    -0.000001116565
      20       -0.000005960818    -0.000003069705     0.000002681346
      21        0.000003583047     0.000001080066     0.000000820980
      22        0.000004240553     0.000000491408    -0.000001748005
      23        0.000000325699     0.000005752385     0.000003154503
      24       -0.000003301052    -0.000001071113     0.000001748200
      25       -0.000002315456    -0.000001168060     0.000000610013
      26       -0.000000041785     0.000000028475    -0.000001073784
      27        0.000001097607     0.000001180879     0.000001351243
      28       -0.000001085184    -0.000000012118    -0.000000833993

  **** Optimization is complete! (in 8 steps) ****
    Final optimized geometry and variables:
    Molecular point group: c1

    Geometry (in Angstrom), charge = 0, multiplicity = 1:

    H            5.280749937147     0.713567253525     0.803913896627
    C            4.696721725394     0.277232937929     0.001790116374
    C            3.211140191796     0.262105169704     0.346592911037
    H            4.884634759362     0.857054574541    -0.895782180283
    H            5.068286595186    -0.727481366609    -0.170462422048
    C            2.352102312155    -0.328329397848    -0.771094238394
    H            2.875101461278     1.267829309250     0.567876280888
    H            3.069304413702    -0.321690730246     1.253521060309
    C            0.909969149184    -0.608651662913    -0.356668206309
    H            2.337682900737     0.352901864582    -1.612956019407
    H            2.794483790991    -1.259413911770    -1.111538205427
    C            0.062635644327     0.631494646300    -0.127660247667
    H            0.407588694395    -1.176449142970    -1.135922377871
    H            0.874526503255    -1.232256194502     0.531536297836
    C           -1.220128943807     0.466134777284     0.663580251823
    O            0.375191729466     1.690526097363    -0.568281296149
    C           -2.249481130640    -0.444115241755    -0.014785405699
    H           -1.634018232642     1.455024544426     0.807133371920
    H           -0.970638922582     0.062091511464     1.641140745654
    C           -3.562544319593    -0.516489967482     0.759915760028
    H           -2.444629557470    -0.075751672101    -1.018153185118
    H           -1.846779012239    -1.446001314397    -0.124565816931
    C           -4.597434405353    -1.416250787080     0.093287266609
    H           -3.969562488418     0.484411979720     0.867611899016
    H           -3.365327853410    -0.876090797155     1.766063423944
    H           -4.839151276280    -1.062728306927    -0.903334382251
    H           -4.232509301959    -2.433962935722     0.003085784588
    H           -5.517060964347    -1.444732445502     0.665802935771

  Mulliken Charges: (a.u.)
   Center  Symbol    Alpha    Beta     Spin     Total
       1     H     0.44854  0.44854  0.00000  0.10292
       2     C     3.15108  3.15108  0.00000 -0.30216
       3     C     3.08796  3.08796  0.00000 -0.17592
       4     H     0.45290  0.45290  0.00000  0.09419
       5     H     0.45680  0.45680  0.00000  0.08641
       6     C     3.08729  3.08729  0.00000 -0.17458
       7     H     0.44205  0.44205  0.00000  0.11591
       8     H     0.45919  0.45919  0.00000  0.08161
       9     C     3.13117  3.13117  0.00000 -0.26234
      10     H     0.44378  0.44378  0.00000  0.11244
      11     H     0.44774  0.44774  0.00000  0.10453
      12     C     2.86360  2.86360  0.00000  0.27279
      13     H     0.43458  0.43458  0.00000  0.13084
      14     H     0.44257  0.44257  0.00000  0.11486
      15     C     3.09253  3.09253  0.00000 -0.18507
      16     O     4.17843  4.17843  0.00000 -0.35685
      17     C     3.10111  3.10111  0.00000 -0.20223
      18     H     0.43810  0.43810  0.00000  0.12380
      19     H     0.44927  0.44927  0.00000  0.10147
      20     C     3.08732  3.08732  0.00000 -0.17463
      21     H     0.44565  0.44565  0.00000  0.10871
      22     H     0.45032  0.45032  0.00000  0.09936
      23     C     3.14917  3.14917  0.00000 -0.29834
      24     H     0.44977  0.44977  0.00000  0.10046
      25     H     0.45364  0.45364  0.00000  0.09271
      26     H     0.45343  0.45343  0.00000  0.09315
      27     H     0.45521  0.45521  0.00000  0.08958
      28     H     0.44680  0.44680  0.00000  0.10639

   Total alpha = 40.00000, Total beta = 40.00000, Total charge = -0.00000

*** Psi4 exiting successfully. Buy a developer a beer!
