  ==> Input File <==

--------------------------------------------------------------------------
set {
	reference rhf
	basis 6-31G*
}

set_num_threads( 4 )
memory 2 gb

molecule MOL {
0 1

H	 3.729471	 -0.928294	 -0.070608
O	 2.826016	 -1.159218	 0.122261
C	 2.077727	 -0.067559	 -0.035091
C	 0.624473	 -0.343591	 0.253101
O	 2.542965	 0.974826	 -0.363729
C	 -0.265902	 0.883932	 0.072916
H	 0.324016	 -1.163849	 -0.390541
H	 0.565024	 -0.726111	 1.268924
C	 -1.728698	 0.646073	 0.462102
H	 -0.209144	 1.219470	 -0.958188
H	 0.135059	 1.692851	 0.673903
C	 -1.934408	 -0.260645	 1.678861
H	 -2.236471	 0.201634	 -0.390776
H	 -2.217954	 1.602909	 0.638876
C	 -3.410402	 -0.545451	 1.955998
H	 -1.409528	 -1.200166	 1.518096
H	 -1.490943	 0.190561	 2.562678
H	 -3.530862	 -1.187788	 2.822720
H	 -3.879819	 -1.039140	 1.109979
H	 -3.957649	 0.373440	 2.146779

	symmetry c1
}
set optking {
	frozen_dihedral = ("
		12 9 6 10
	")
}

ee = optimize('scf')
oeprop('DIPOLE', 'QUADRUPOLE', 'MULLIKEN_CHARGES')
f=open( 'psi4out.xyz', 'w' )
f.write( "20  " )
f.write( str(ee) + "\n" )
f.write( MOL.save_string_xyz() )
f.close()
--------------------------------------------------------------------------

    Molecular point group: c1
  Charge       = 0
  Multiplicity = 1
  Basis Set: 6-31G*
  Basis Set:
  @DF-RHF Final Energy:  -383.94398355739008
    Total Energy =                       -383.9439835573903110
    Molecular point group: c1
  Basis Set: 6-31G*
  Basis Set:
  Basis Set: 6-31G*
  Basis Set:
  @DF-RHF Final Energy:  -383.94490837518305
    Total Energy =                       -383.9449083751829335
  Basis Set: 6-31G*
  Basis Set:
  Basis Set: 6-31G*
  Basis Set:
  @DF-RHF Final Energy:  -383.94599405036257
    Total Energy =                       -383.9459940503631969
  Basis Set: 6-31G*
  Basis Set:
  Basis Set: 6-31G*
  Basis Set:
  @DF-RHF Final Energy:  -383.94605753802574
    Total Energy =                       -383.9460575380252294
  Basis Set: 6-31G*
  Basis Set:
  Basis Set: 6-31G*
  Basis Set:
  @DF-RHF Final Energy:  -383.94609004862411
    Total Energy =                       -383.9460900486241144
  Basis Set: 6-31G*
  Basis Set:
  Basis Set: 6-31G*
  Basis Set:
  @DF-RHF Final Energy:  -383.94609337165861
    Total Energy =                       -383.9460933716586055
  Basis Set: 6-31G*
  Basis Set:
  Charge       = 0
  Multiplicity = 1
  Basis Set: 6-31G*
  Basis Set:

    Orbital Energies (a.u.)
    -----------------------

    Doubly Occupied:

       1A    -20.612324     2A    -20.551510     3A    -11.380942
       4A    -11.239975     5A    -11.223167     6A    -11.221211
       7A    -11.220385     8A    -11.212706     9A     -1.474432
      10A     -1.365461    11A     -1.095707    12A     -1.040349
      13A     -0.960931    14A     -0.869587    15A     -0.820144
      16A     -0.770570    17A     -0.699440    18A     -0.689189
      19A     -0.667472    20A     -0.636924    21A     -0.598374
      22A     -0.594817    23A     -0.578700    24A     -0.552951
      25A     -0.538518    26A     -0.516419    27A     -0.497744
      28A     -0.478992    29A     -0.470270    30A     -0.463743
      31A     -0.456901    32A     -0.443824

  @DF-RHF Final Energy:  -383.94609436734726

   => Energetics <=

    Nuclear Repulsion Energy =            376.9881799365370512
    One-Electron Energy =               -1269.9811882453614089
    Two-Electron Energy =                 509.0469139414770439
    DFT Exchange-Correlation Energy =       0.0000000000000000
    Empirical Dispersion Energy =           0.0000000000000000
    PCM Polarization Energy =               0.0000000000000000
    EFP Energy =                            0.0000000000000000
    Total Energy =                       -383.9460943673472570
    Molecular point group: c1
  Basis Set: 6-31G*
  Basis Set:

  -Total Gradient:
     Atom            X                  Y                   Z
    ------   -----------------  -----------------  -----------------
       1        0.000012712483    -0.000002079971     0.000009599443
       2       -0.000009667076     0.000010854252    -0.000059275888
       3       -0.000022166061     0.000004970914     0.000041243879
       4       -0.000013686590    -0.000046382860    -0.000120955951
       5        0.000021301360    -0.000003908314     0.000000831755
       6       -0.000857978124     0.004869952490     0.000889715591
       7        0.000047290794     0.000038544110     0.000051529729
       8       -0.000003993026     0.000001848659     0.000081261721
       9       -0.000084395604     0.003601087271     0.003137618753
      10        0.000730317833    -0.005177187018    -0.001597749145
      11       -0.000037329663    -0.000033260361    -0.000015514291
      12        0.000218300566    -0.003336718280    -0.002400589471
      13        0.000040666501     0.000011271657     0.000002809262
      14       -0.000010281831     0.000022010141     0.000000590189
      15       -0.000004749520     0.000026980973    -0.000017972498
      16       -0.000006409805    -0.000006243690     0.000012940813
      17       -0.000007560773     0.000009878760    -0.000026067796
      18        0.000011863531    -0.000006537431    -0.000008808796
      19       -0.000001779429     0.000015137426     0.000000761395
      20       -0.000022455565    -0.000000218725     0.000018031308

  **** Optimization is complete! (in 7 steps) ****
    Final optimized geometry and variables:
    Molecular point group: c1

    Geometry (in Angstrom), charge = 0, multiplicity = 1:

    H            3.633783410112    -0.859654478200    -0.722805237564
    O            2.757317090876    -1.101077319889    -0.439481065511
    C            1.966369678156    -0.039155366214    -0.592264270588
    C            0.552026117989    -0.334238782741    -0.162399570284
    O            2.371651982840     0.993252692392    -1.017771819558
    C           -0.382046911943     0.864597792760    -0.332807198160
    H            0.212426407452    -1.188052337822    -0.742860316982
    H            0.599801500525    -0.674873881590     0.866574620175
    C           -1.860282150387     0.559773241559    -0.035990860681
    H           -0.294816238561     1.185521720794    -1.364748956622
    H           -0.028217919695     1.679408212874     0.289169079195
    C           -2.137927891013    -0.337296973033     1.174210527899
    H           -2.301004991785     0.084913093867    -0.911170986926
    H           -2.385692577260     1.503260170889     0.086895895808
    C           -3.633125717792    -0.479670017797     1.458486381265
    H           -1.714957943596    -1.323876927019     1.009399786175
    H           -1.642998960736     0.066688426099     2.055858019118
    H           -3.811250924133    -1.134485718744     2.305722386480
    H           -4.156146452520    -0.896731445348     0.602417799445
    H           -4.083519171172     0.482822524488     1.683005999146

  Mulliken Charges: (a.u.)
   Center  Symbol    Alpha    Beta     Spin     Total
       1     H     0.26788  0.26788  0.00000  0.46425
       2     O     4.35160  4.35160  0.00000 -0.70320
       3     C     2.62198  2.62198  0.00000  0.75603
       4     C     3.21561  3.21561  0.00000 -0.43122
       5     O     4.27930  4.27930  0.00000 -0.55859
       6     C     3.15347  3.15347  0.00000 -0.30694
       7     H     0.39920  0.39920  0.00000  0.20160
       8     H     0.39632  0.39632  0.00000  0.20737
       9     C     3.15461  3.15461  0.00000 -0.30923
      10     H     0.40820  0.40820  0.00000  0.18361
      11     H     0.41130  0.41130  0.00000  0.17740
      12     C     3.15746  3.15746  0.00000 -0.31493
      13     H     0.42268  0.42268  0.00000  0.15464
      14     H     0.41759  0.41759  0.00000  0.16482
      15     C     3.23912  3.23912  0.00000 -0.47823
      16     H     0.42117  0.42117  0.00000  0.15765
      17     H     0.42257  0.42257  0.00000  0.15486
      18     H     0.41832  0.41832  0.00000  0.16335
      19     H     0.42114  0.42114  0.00000  0.15773
      20     H     0.42049  0.42049  0.00000  0.15902

   Total alpha = 32.00000, Total beta = 32.00000, Total charge = -0.00000
