  ==> Input File <==

--------------------------------------------------------------------------
set {
	reference rhf
	basis cc-pvtz
}

set_num_threads( 4 )
memory 2 gb

molecule MOL {
0 1

H	 -1.514236	 -0.493662	 -1.133634
O	 -1.432053	 -0.565244	 -0.200812
C	 -0.727158	 0.534527	 0.310686
C	 0.680222	 0.664433	 -0.252229
H	 -1.306802	 1.408001	 0.044211
H	 -0.690821	 0.490158	 1.397609
C	 1.605391	 -0.489360	 0.123098
H	 0.615089	 0.745647	 -1.332226
H	 1.101414	 1.597893	 0.110950
H	 1.247627	 -1.432485	 -0.275204
H	 2.601435	 -0.332816	 -0.273062
H	 1.691776	 -0.589902	 1.200774

	symmetry c1
}
set optking {
	frozen_dihedral = ("
		1 2 3 4
	")
}

ee = optimize('scf')
oeprop('DIPOLE', 'QUADRUPOLE', 'MULLIKEN_CHARGES')
f=open( 'psi4out.xyz', 'w' )
f.write( "12  " )
f.write( str(ee) + "\n" )
f.write( MOL.save_string_xyz() )
f.close()
--------------------------------------------------------------------------

    Molecular point group: c1
  Charge       = 0
  Multiplicity = 1
  Basis Set: CC-PVTZ
  Basis Set:
  @DF-RHF Final Energy:  -193.18919726676279
    Total Energy =                       -193.1891972667628181
    Molecular point group: c1
  Basis Set: CC-PVTZ
  Basis Set:
  Basis Set: CC-PVTZ
  Basis Set:
  @DF-RHF Final Energy:  -193.19055619008563
    Total Energy =                       -193.1905561900855446
  Basis Set: CC-PVTZ
  Basis Set:
  Basis Set: CC-PVTZ
  Basis Set:
  @DF-RHF Final Energy:  -193.19094158246995
    Total Energy =                       -193.1909415824698328
  Basis Set: CC-PVTZ
  Basis Set:
  Basis Set: CC-PVTZ
  Basis Set:
  @DF-RHF Final Energy:  -193.19094680903078
    Total Energy =                       -193.1909468090308337
  Basis Set: CC-PVTZ
  Basis Set:
  Basis Set: CC-PVTZ
  Basis Set:
  @DF-RHF Final Energy:  -193.19094780958420
    Total Energy =                       -193.1909478095842019
  Basis Set: CC-PVTZ
  Basis Set:
  Charge       = 0
  Multiplicity = 1
  Basis Set: CC-PVTZ
  Basis Set:

    Orbital Energies (a.u.)
    -----------------------

    Doubly Occupied:

       1A    -20.546765     2A    -11.266076     3A    -11.219071
       4A    -11.207000     5A     -1.364835     6A     -1.050461
       7A     -0.922902     8A     -0.816094     9A     -0.679635
      10A     -0.639707    11A     -0.629033    12A     -0.568341
      13A     -0.532823    14A     -0.520624    15A     -0.485919
      16A     -0.468357    17A     -0.433390

  @DF-RHF Final Energy:  -193.19094789720481

   => Energetics <=

    Nuclear Repulsion Energy =            133.2181545191464238
    One-Electron Energy =                -526.1161441292244945
    Two-Electron Energy =                 199.7070417128734334
    DFT Exchange-Correlation Energy =       0.0000000000000000
    Empirical Dispersion Energy =           0.0000000000000000
    PCM Polarization Energy =               0.0000000000000000
    EFP Energy =                            0.0000000000000000
    Total Energy =                       -193.1909478972046372
    Molecular point group: c1
  Basis Set: CC-PVTZ
  Basis Set:

  -Total Gradient:
     Atom            X                  Y                   Z
    ------   -----------------  -----------------  -----------------
       1        0.000417777611    -0.000244198379    -0.000038769220
       2       -0.000561822340     0.000364044782    -0.000068728995
       3        0.000247291395    -0.000304452323     0.000331961003
       4       -0.000112096854     0.000166310132    -0.000212795738
       5        0.000001267291    -0.000004879132    -0.000005055660
       6        0.000004374027     0.000012873916     0.000006494324
       7        0.000006953652     0.000007492681    -0.000008169240
       8       -0.000003134319    -0.000001373556     0.000002952171
       9        0.000011801199     0.000006406940    -0.000003940223
      10       -0.000010258471    -0.000004376816    -0.000009771207
      11       -0.000003491925    -0.000003894778     0.000004111328
      12        0.000001338731     0.000006046532     0.000001711454

  **** Optimization is complete! (in 6 steps) ****
    Final optimized geometry and variables:
    Molecular point group: c1

    Geometry (in Angstrom), charge = 0, multiplicity = 1:

    H           -1.471617811249    -0.552689756420    -1.105172077428
    O           -1.406614536197    -0.596705104148    -0.168278672138
    C           -0.726668906989     0.530744809883     0.315865020259
    C            0.687268809033     0.661976944773    -0.229788043271
    H           -1.289758075917     1.434293438103     0.095290002222
    H           -0.701408723370     0.421225223849     1.392716986742
    C            1.597439651968    -0.503152216638     0.143519657986
    H            0.640437530207     0.760785332265    -1.312604985108
    H            1.107205154026     1.592697182763     0.141313880568
    H            1.195630160345    -1.442322131311    -0.214070451991
    H            2.586443000834    -0.375117315957    -0.280871747616
    H            1.705752157535    -0.579315306903     1.220335237264

  Mulliken Charges: (a.u.)
   Center  Symbol    Alpha    Beta     Spin     Total
       1     H     0.39453  0.39453  0.00000  0.21095
       2     O     4.20395  4.20395  0.00000 -0.40789
       3     C     2.97198  2.97198  0.00000  0.05604
       4     C     3.09286  3.09286  0.00000 -0.18572
       5     H     0.46280  0.46280  0.00000  0.07441
       6     H     0.46010  0.46010  0.00000  0.07980
       7     C     3.14486  3.14486  0.00000 -0.28973
       8     H     0.45992  0.45992  0.00000  0.08015
       9     H     0.45398  0.45398  0.00000  0.09205
      10     H     0.44901  0.44901  0.00000  0.10198
      11     H     0.45033  0.45033  0.00000  0.09935
      12     H     0.45570  0.45570  0.00000  0.08861

   Total alpha = 17.00000, Total beta = 17.00000, Total charge =  0.00000
