  ==> Input File <==

--------------------------------------------------------------------------
set {
	reference rhf
	basis cc-pvtz
}

set_num_threads( 4 )
memory 2 gb

molecule MOL {
0 1

H	 -2.265262	 0.566814	 3.052769
C	 -2.302930	 0.038521	 2.122288
C	 -1.202499	 -0.128365	 1.430517
H	 -3.245120	 -0.343134	 1.781091
O	 -1.189946	 -0.765863	 0.237511
H	 -0.251574	 0.242537	 1.767119
C	 0.026572	 -0.995256	 -0.379403
C	 1.057223	 0.049888	 -0.004615
H	 -0.054361	 -1.010670	 -1.459674
H	 0.397526	 -1.952058	 -0.044198
F	 2.203233	 -0.234060	 -0.590375
F	 0.698147	 1.254887	 -0.392621
F	 1.266440	 0.094219	 1.288722

	symmetry c1
}
set optking {
	frozen_dihedral = ("
		3 5 7 9
	")
}

ee = optimize('scf')
oeprop('DIPOLE', 'QUADRUPOLE', 'MULLIKEN_CHARGES')
f=open( 'psi4out.xyz', 'w' )
f.write( "13  " )
f.write( str(ee) + "\n" )
f.write( MOL.save_string_xyz() )
f.close()
--------------------------------------------------------------------------

    Molecular point group: c1
  Charge       = 0
  Multiplicity = 1
  Basis Set: CC-PVTZ
  Basis Set:
  @DF-RHF Final Energy:  -527.71050139514523
    Total Energy =                       -527.7105013951444334
    Molecular point group: c1
  Basis Set: CC-PVTZ
  Basis Set:
  Basis Set: CC-PVTZ
  Basis Set:
  @DF-RHF Final Energy:  -527.72785346844000
    Total Energy =                       -527.7278534684398892
  Basis Set: CC-PVTZ
  Basis Set:
  Basis Set: CC-PVTZ
  Basis Set:
  @DF-RHF Final Energy:  -527.73261530182117
    Total Energy =                       -527.7326153018208288
  Basis Set: CC-PVTZ
  Basis Set:
  Basis Set: CC-PVTZ
  Basis Set:
  @DF-RHF Final Energy:  -527.73378344705634
    Total Energy =                       -527.7337834470565667
  Basis Set: CC-PVTZ
  Basis Set:
  @DF-RHF Final Energy:  -527.73417908687497
    Total Energy =                       -527.7341790868742919
  @DF-RHF Final Energy:  -527.73429787208715
    Total Energy =                       -527.7342978720874953
  @DF-RHF Final Energy:  -527.73431462833082
    Total Energy =                       -527.7343146283305941
  @DF-RHF Final Energy:  -527.73432161825247
    Total Energy =                       -527.7343216182521246
  @DF-RHF Final Energy:  -527.73432405581070
    Total Energy =                       -527.7343240558108164
  @DF-RHF Final Energy:  -527.73432916738216
    Total Energy =                       -527.7343291673814747
  @DF-RHF Final Energy:  -527.73434122873516
    Total Energy =                       -527.7343412287352749
  @DF-RHF Final Energy:  -527.73188478971338
    Total Energy =                       -527.7318847897131491
  @DF-RHF Final Energy:  -527.73435451129285
    Total Energy =                       -527.7343545112926222
  Basis Set: CC-PVTZ
  Basis Set:
  @DF-RHF Final Energy:  -527.73437492552489
    Total Energy =                       -527.7343749255244347
  Basis Set: CC-PVTZ
  Basis Set:
  Basis Set: CC-PVTZ
  Basis Set:
  @DF-RHF Final Energy:  -527.73439208719105
    Total Energy =                       -527.7343920871913951
  Basis Set: CC-PVTZ
  Basis Set:
  Basis Set: CC-PVTZ
  Basis Set:
  @DF-RHF Final Energy:  -527.73439507577564
    Total Energy =                       -527.7343950757755238
  Basis Set: CC-PVTZ
  Basis Set:
  Charge       = 0
  Multiplicity = 1
  Basis Set: CC-PVTZ
  Basis Set:

    Orbital Energies (a.u.)
    -----------------------

    Doubly Occupied:

       1A    -26.346649     2A    -26.346379     3A    -26.346031
       4A    -20.598190     5A    -11.505598     6A    -11.320191
       7A    -11.294596     8A    -11.214554     9A     -1.757043
      10A     -1.652933    11A     -1.651850    12A     -1.435514
      13A     -1.087506    14A     -1.023719    15A     -0.936830
      16A     -0.850943    17A     -0.846522    18A     -0.841099
      19A     -0.765595    20A     -0.732126    21A     -0.728167
      22A     -0.710715    23A     -0.687007    24A     -0.670708
      25A     -0.660962    26A     -0.657559    27A     -0.650420
      28A     -0.592948    29A     -0.563300    30A     -0.530896
      31A     -0.494654    32A     -0.359210

  @DF-RHF Final Energy:  -527.73439551725585

   => Energetics <=

    Nuclear Repulsion Energy =            416.1853527947715747
    One-Electron Energy =               -1556.1186698185774731
    Two-Electron Energy =                 612.1989215065493681
    DFT Exchange-Correlation Energy =       0.0000000000000000
    Empirical Dispersion Energy =           0.0000000000000000
    PCM Polarization Energy =               0.0000000000000000
    EFP Energy =                            0.0000000000000000
    Total Energy =                       -527.7343955172566439
    Molecular point group: c1
  Basis Set: CC-PVTZ
  Basis Set:

  -Total Gradient:
     Atom            X                  Y                   Z
    ------   -----------------  -----------------  -----------------
       1       -0.000002493439     0.000000185097     0.000001061301
       2        0.000016580751     0.000001809004    -0.000013772278
       3        0.000295363007     0.003170155966    -0.001655428182
       4        0.000001688543     0.000003650721     0.000000720506
       5       -0.000111713063    -0.003943891310     0.002522374279
       6       -0.000000192235    -0.000003717524    -0.000008153742
       7       -0.001452710300    -0.003157576619    -0.000782958421
       8       -0.000005454671     0.000080937074    -0.000109619203
       9        0.001269481539     0.003888476445    -0.000007595482
      10        0.000045242267     0.000007909956     0.000004346580
      11        0.000002333660    -0.000019647376     0.000013020518
      12       -0.000049551654    -0.000016026014     0.000012567992
      13       -0.000008574407    -0.000012265418     0.000023436132

  **** Optimization is complete! (in 17 steps) ****
    Final optimized geometry and variables:
    Molecular point group: c1

    Geometry (in Angstrom), charge = 0, multiplicity = 1:

    H           -2.759900842667     0.551060387459     2.682569866570
    C           -2.660685884833    -0.014878449113     1.778652469834
    C           -1.615105236834     0.171224271653     1.009919225455
    H           -3.434993062255    -0.708879402951     1.515945164988
    O           -1.495794254693    -0.463761391106    -0.181739160918
    H           -0.843150850167     0.868598639543     1.263431658728
    C           -0.275214166088    -0.849205652181    -0.718203449867
    C            0.923316284329     0.036429183249    -0.426710403279
    H           -0.384821890644    -0.817174781322    -1.791786069167
    H           -0.009706040843    -1.852294170631    -0.406315000989
    F            1.922598045662    -0.355692697246    -1.188363810400
    F            0.687216381070     1.301870688453    -0.691962077184
    F            1.335154071720    -0.037206455948     0.822006573927

  Mulliken Charges: (a.u.)
   Center  Symbol    Alpha    Beta     Spin     Total
       1     H     0.42516  0.42516  0.00000  0.14968
       2     C     3.18969  3.18969  0.00000 -0.37939
       3     C     2.96792  2.96792  0.00000  0.06417
       4     H     0.42439  0.42439  0.00000  0.15123
       5     O     4.15075  4.15075  0.00000 -0.30150
       6     H     0.42858  0.42858  0.00000  0.14284
       7     C     2.99175  2.99175  0.00000  0.01649
       8     C     2.68951  2.68951  0.00000  0.62097
       9     H     0.44671  0.44671  0.00000  0.10659
      10     H     0.45611  0.45611  0.00000  0.08778
      11     F     4.60688  4.60688  0.00000 -0.21375
      12     F     4.61067  4.61067  0.00000 -0.22135
      13     F     4.61188  4.61188  0.00000 -0.22376

   Total alpha = 32.00000, Total beta = 32.00000, Total charge =  0.00000
