  ==> Input File <==

--------------------------------------------------------------------------
set {
	reference rhf
	basis cc-pvtz
}

set_num_threads( 4 )
memory 2 gb

molecule MOL {
0 1

H	 1.663011	 -4.661835	 -3.267553
C	 1.701250	 -3.821945	 -2.601792
C	 0.704122	 -3.626013	 -1.656711
C	 2.738682	 -2.921428	 -2.670197
H	 -0.113467	 -4.318419	 -1.588485
C	 0.749178	 -2.551283	 -0.801756
H	 3.519349	 -3.056338	 -3.394799
C	 2.799679	 -1.830481	 -1.814321
H	 -0.016089	 -2.390821	 -0.068074
C	 1.801065	 -1.644288	 -0.876141
H	 3.620238	 -1.147872	 -1.892994
O	 1.760432	 -0.625184	 0.000000
C	 2.773565	 0.334879	 0.000000
H	 2.728295	 0.960928	 -0.884150
H	 3.706387	 -0.206610	 0.000000
H	 2.728295	 0.960928	 0.884150

	symmetry c1
}
set optking {
	frozen_dihedral = ("
		10 12 13 14
	")
}

ee = optimize('scf')
oeprop('DIPOLE', 'QUADRUPOLE', 'MULLIKEN_CHARGES')
f=open( 'psi4out.xyz', 'w' )
f.write( "16  " )
f.write( str(ee) + "\n" )
f.write( MOL.save_string_xyz() )
f.close()
--------------------------------------------------------------------------

    Molecular point group: c1
  Charge       = 0
  Multiplicity = 1
  Basis Set: CC-PVTZ
  Basis Set:
  @DF-RHF Final Energy:  -344.70110883725562
    Total Energy =                       -344.7011088372556173
    Molecular point group: c1
  Basis Set: CC-PVTZ
  Basis Set:
  Basis Set: CC-PVTZ
  Basis Set:
  @DF-RHF Final Energy:  -344.70294915834978
    Total Energy =                       -344.7029491583495542
  Basis Set: CC-PVTZ
  Basis Set:
  Basis Set: CC-PVTZ
  Basis Set:
  @DF-RHF Final Energy:  -344.70356799114796
    Total Energy =                       -344.7035679911474517
  Basis Set: CC-PVTZ
  Basis Set:
  Basis Set: CC-PVTZ
  Basis Set:
  @DF-RHF Final Energy:  -344.70357581215137
    Total Energy =                       -344.7035758121510867
  Basis Set: CC-PVTZ
  Basis Set:
  Basis Set: CC-PVTZ
  Basis Set:
  @DF-RHF Final Energy:  -344.70357708817016
    Total Energy =                       -344.7035770881699932
  Basis Set: CC-PVTZ
  Basis Set:
  Charge       = 0
  Multiplicity = 1
  Basis Set: CC-PVTZ
  Basis Set:

    Orbital Energies (a.u.)
    -----------------------

    Doubly Occupied:

       1A    -20.580418     2A    -11.293687     3A    -11.278506
       4A    -11.231231     5A    -11.229986     6A    -11.221804
       7A    -11.217976     8A    -11.216886     9A     -1.419830
      10A     -1.150938    11A     -1.025729    12A     -1.016643
      13A     -0.944307    14A     -0.834574    15A     -0.808273
      16A     -0.726167    17A     -0.667688    18A     -0.666407
      19A     -0.661164    20A     -0.619286    21A     -0.590145
      22A     -0.579434    23A     -0.528585    24A     -0.523395
      25A     -0.512335    26A     -0.479134    27A     -0.467327
      28A     -0.339754    29A     -0.310040

  @DF-RHF Final Energy:  -344.70357716893886

   => Energetics <=

    Nuclear Repulsion Energy =            348.8853436625779523
    One-Electron Energy =               -1158.8945422072183646
    Two-Electron Energy =                 465.3056213757014348
    DFT Exchange-Correlation Energy =       0.0000000000000000
    Empirical Dispersion Energy =           0.0000000000000000
    PCM Polarization Energy =               0.0000000000000000
    EFP Energy =                            0.0000000000000000
    Total Energy =                       -344.7035771689389776
    Molecular point group: c1
  Basis Set: CC-PVTZ
  Basis Set:

  -Total Gradient:
     Atom            X                  Y                   Z
    ------   -----------------  -----------------  -----------------
       1       -0.000003581653    -0.000001331132     0.000001363027
       2        0.000026073506     0.000014834656    -0.000018042631
       3       -0.000010352289     0.000012928445     0.000032789140
       4       -0.000014773831    -0.000033854082    -0.000009427773
       5       -0.000000216524    -0.000002060404    -0.000003397021
       6       -0.000013574829    -0.000037921931    -0.000008238477
       7       -0.000000386087     0.000001933488     0.000001726845
       8       -0.000005161084     0.000020030530     0.000030257799
       9        0.000001573070     0.000000837883    -0.000000982320
      10        0.000467726332    -0.000568164431     0.000711701697
      11        0.000000733557    -0.000002258696     0.000001998449
      12       -0.000885265599     0.001085105520    -0.000956105663
      13        0.001143774384    -0.001323773791    -0.000296117212
      14       -0.000716956043     0.000832704108     0.000520971254
      15       -0.000003344162    -0.000001305119    -0.000005907025
      16        0.000013731253     0.000002294955    -0.000002590089

  **** Optimization is complete! (in 6 steps) ****
    Final optimized geometry and variables:
    Molecular point group: c1

    Geometry (in Angstrom), charge = 0, multiplicity = 1:

    H           -0.230991980854    -2.682413536016    -1.982662977887
    C           -0.196910307550    -1.831502221165    -1.330789293135
    C           -1.184440879248    -1.635875584210    -0.375724733210
    C            0.824984294077    -0.915933515893    -1.427958202585
    H           -1.990010323627    -2.339780289464    -0.285585962976
    C           -1.144210119200    -0.547727421021     0.462453519080
    H            1.596712016371    -1.049080393836    -2.162394485160
    C            0.879972856498     0.189314715800    -0.590363847389
    H           -1.901715270973    -0.387712945987     1.204248533946
    C           -0.107177658235     0.373373936800     0.360214566207
    H            1.684846520301     0.887113295366    -0.694861281647
    O           -0.155015832389     1.409712487762     1.215913024898
    C            0.908507493631     2.312067750719     1.279621123034
    H            0.965105094133     2.922903053013     0.385176666903
    H            1.853895833083     1.805491594446     1.433954232142
    H            0.711867890361     2.954120573964     2.124090791714

  Mulliken Charges: (a.u.)
   Center  Symbol    Alpha    Beta     Spin     Total
       1     H     0.42442  0.42442  0.00000  0.15116
       2     C     3.10089  3.10089  0.00000 -0.20179
       3     C     3.05800  3.05800  0.00000 -0.11601
       4     C     3.06158  3.06158  0.00000 -0.12317
       5     H     0.42299  0.42299  0.00000  0.15401
       6     C     3.11146  3.11146  0.00000 -0.22293
       7     H     0.42359  0.42359  0.00000  0.15281
       8     C     3.14353  3.14353  0.00000 -0.28706
       9     H     0.42092  0.42092  0.00000  0.15816
      10     C     2.85058  2.85058  0.00000  0.29885
      11     H     0.42255  0.42255  0.00000  0.15489
      12     O     4.15117  4.15117  0.00000 -0.30233
      13     C     3.04476  3.04476  0.00000 -0.08952
      14     H     0.46149  0.46149  0.00000  0.07703
      15     H     0.46291  0.46291  0.00000  0.07418
      16     H     0.43914  0.43914  0.00000  0.12172

   Total alpha = 29.00000, Total beta = 29.00000, Total charge = -0.00000
