  ==> Input File <==

--------------------------------------------------------------------------
set {
	reference rhf
	basis cc-pvtz
}

set_num_threads( 4 )
memory 2 gb

molecule MOL {
0 1

H	 1.023483	 -1.672236	 0.783090
C	 0.372839	 -0.816516	 0.972441
N	 -0.537714	 -0.645117	 0.000000
O	 0.493581	 -0.140173	 1.944398
C	 -1.522613	 0.412524	 0.000000
H	 -0.523703	 -1.285835	 -0.754498
H	 -2.150256	 0.356137	 -0.880771
H	 -1.005621	 1.357208	 0.000000
H	 -2.150256	 0.356137	 0.880771

	symmetry c1
}
set optking {
	frozen_dihedral = ("
		6 3 5 7
	")
}

ee = optimize('scf')
oeprop('DIPOLE', 'QUADRUPOLE', 'MULLIKEN_CHARGES')
f=open( 'psi4out.xyz', 'w' )
f.write( "9  " )
f.write( str(ee) + "\n" )
f.write( MOL.save_string_xyz() )
f.close()
--------------------------------------------------------------------------

    Molecular point group: c1
  Charge       = 0
  Multiplicity = 1
  Basis Set: CC-PVTZ
  Basis Set:
  @DF-RHF Final Energy:  -208.04304235730854
    Total Energy =                       -208.0430423573085079
    Molecular point group: c1
  Basis Set: CC-PVTZ
  Basis Set:
  Basis Set: CC-PVTZ
  Basis Set:
  @DF-RHF Final Energy:  -208.04357591912773
    Total Energy =                       -208.0435759191278464
  Basis Set: CC-PVTZ
  Basis Set:
  Basis Set: CC-PVTZ
  Basis Set:
  @DF-RHF Final Energy:  -208.04364736568900
    Total Energy =                       -208.0436473656889120
  Basis Set: CC-PVTZ
  Basis Set:
  Basis Set: CC-PVTZ
  Basis Set:
  @DF-RHF Final Energy:  -208.04365075277661
    Total Energy =                       -208.0436507527765002
  Basis Set: CC-PVTZ
  Basis Set:
  Basis Set: CC-PVTZ
  Basis Set:
  @DF-RHF Final Energy:  -208.04366032470733
    Total Energy =                       -208.0436603247072753
  Basis Set: CC-PVTZ
  Basis Set:
  Charge       = 0
  Multiplicity = 1
  Basis Set: CC-PVTZ
  Basis Set:

    Orbital Energies (a.u.)
    -----------------------

    Doubly Occupied:

       1A    -20.516576     2A    -15.584349     3A    -11.335885
       4A    -11.260599     5A     -1.393932     6A     -1.239309
       7A     -0.969787     8A     -0.809352     9A     -0.749202
      10A     -0.645767    11A     -0.629953    12A     -0.596181
      13A     -0.559753    14A     -0.536715    15A     -0.428168
      16A     -0.396735

  @DF-RHF Final Energy:  -208.04366290381029

   => Energetics <=

    Nuclear Repulsion Energy =            122.9487914241611861
    One-Electron Energy =                -526.6803820447602220
    Two-Electron Energy =                 195.6879277167887494
    DFT Exchange-Correlation Energy =       0.0000000000000000
    Empirical Dispersion Energy =           0.0000000000000000
    PCM Polarization Energy =               0.0000000000000000
    EFP Energy =                            0.0000000000000000
    Total Energy =                       -208.0436629038102865
    Molecular point group: c1
  Basis Set: CC-PVTZ
  Basis Set:

  -Total Gradient:
     Atom            X                  Y                   Z
    ------   -----------------  -----------------  -----------------
       1        0.000000414380     0.000002465872    -0.000001887072
       2        0.000008203972     0.000006501480     0.000026943951
       3       -0.000012098188     0.000013075486     0.000003964254
       4        0.000000325101    -0.000012063650    -0.000008975151
       5        0.000017623219    -0.000026200546    -0.000024797194
       6       -0.000010382123     0.000001161854     0.000003282315
       7       -0.000008801603     0.000011404658    -0.000001335859
       8       -0.000004408403     0.000014542600    -0.000001069367
       9        0.000009123646    -0.000010887755     0.000003874126

  **** Optimization is complete! (in 6 steps) ****
    Final optimized geometry and variables:
    Molecular point group: c1

    Geometry (in Angstrom), charge = 0, multiplicity = 1:

    H            1.337717606191    -1.389857332484     0.078017985842
    C            0.681675734785    -0.533803766838     0.246546305974
    N           -0.224357605090    -0.370022730651    -0.728830352885
    O            0.783934846424     0.163709427526     1.205816119065
    C           -1.193963680334     0.702614170388    -0.707153670138
    H           -0.221775899099    -1.009845421154    -1.482892014355
    H           -1.812168851865     0.629006925057    -1.590041758753
    H           -0.704368872617     1.666872314420    -0.700602078482
    H           -1.823990928001     0.636864970132     0.169338201707

  Mulliken Charges: (a.u.)
   Center  Symbol    Alpha    Beta     Spin     Total
       1     H     0.46450  0.46450  0.00000  0.07100
       2     C     2.87935  2.87935  0.00000  0.24130
       3     N     3.60559  3.60559  0.00000 -0.21118
       4     O     4.21445  4.21445  0.00000 -0.42889
       5     C     3.07476  3.07476  0.00000 -0.14952
       6     H     0.40992  0.40992  0.00000  0.18016
       7     H     0.45466  0.45466  0.00000  0.09068
       8     H     0.44839  0.44839  0.00000  0.10321
       9     H     0.44838  0.44838  0.00000  0.10325

   Total alpha = 16.00000, Total beta = 16.00000, Total charge = -0.00000
