                              Psi4 1.0.54 Driver

  ==> Input File <==

--------------------------------------------------------------------------
set {
	reference rhf
	basis cc-pvtz
}

set_num_threads( 4 )
memory 2 gb

molecule MOL {
0 1

H	 2.670357	 -3.970475	 2.035932
O	 3.428565	 -3.833823	 1.499017
C	 3.086377	 -3.931497	 0.141578
C	 2.285460	 -2.743004	 -0.369010
H	 4.023223	 -3.994046	 -0.395439
H	 2.544361	 -4.856107	 -0.047542
C	 0.900045	 -2.604312	 0.258078
H	 2.859267	 -1.838217	 -0.192193
H	 2.183721	 -2.846860	 -1.446628
C	 0.113298	 -1.420414	 -0.302504
H	 1.002156	 -2.494031	 1.332515
H	 0.335209	 -3.519668	 0.089644
C	 -1.311023	 -1.277304	 0.237018
H	 0.663800	 -0.502759	 -0.109935
H	 0.062458	 -1.520646	 -1.383169
C	 -2.041121	 -0.006551	 -0.194127
H	 -1.888548	 -2.136293	 -0.093331
H	 -1.289731	 -1.328757	 1.323321
C	 -3.489218	 0.042606	 0.286507
H	 -2.022185	 0.066287	 -1.279394
H	 -1.518764	 0.869305	 0.178730
C	 -4.219984	 1.311773	 -0.139038
H	 -4.022855	 -0.824300	 -0.093339
H	 -3.510372	 -0.038577	 1.370031
H	 -4.244251	 1.405725	 -1.219696
H	 -5.244345	 1.313233	 0.215630
H	 -3.732090	 2.196311	 0.257073

	symmetry c1
}
set optking {
	frozen_dihedral = ("
		14 10 13 16
	")
}

ee,wfn = optimize('scf', return_wfn=True)
oeprop( wfn, 'DIPOLE', 'QUADRUPOLE', 'MULLIKEN_CHARGES')
f=open( 'psi4out.xyz', 'w' )
f.write( "27  " )
f.write( str(ee) + "\n" )
f.write( MOL.save_string_xyz() )
f.close()
--------------------------------------------------------------------------

    Molecular point group: c1
  Charge       = 0
  Multiplicity = 1
  Basis Set: CC-PVTZ
  Basis Set:
  @DF-RHF Final Energy:  -388.42900811185501
    Total Energy =                       -388.4290081118549551
    Molecular point group: c1
  Basis Set: CC-PVTZ
  Basis Set:
  Basis Set: CC-PVTZ
  Basis Set:
  @DF-RHF Final Energy:  -388.42933171899176
    Total Energy =                       -388.4293317189914205
  Basis Set: CC-PVTZ
  Basis Set:
  Basis Set: CC-PVTZ
  Basis Set:
  @DF-RHF Final Energy:  -388.42940617713288
    Total Energy =                       -388.4294061771324778
  Basis Set: CC-PVTZ
  Basis Set:
  Basis Set: CC-PVTZ
  Basis Set:
  @DF-RHF Final Energy:  -388.42940756436025
    Total Energy =                       -388.4294075643599626
  Basis Set: CC-PVTZ
  Basis Set:
  Charge       = 0
  Multiplicity = 1
  Basis Set: CC-PVTZ
  Basis Set:

    Orbital Energies (a.u.)
    -----------------------

    Doubly Occupied:

       1A    -20.545247     2A    -11.265006     3A    -11.217419
       4A    -11.214268     5A    -11.213528     6A    -11.213364
       7A    -11.212860     8A    -11.211669     9A    -11.206861
      10A     -1.363163    11A     -1.096101    12A     -1.063614
      13A     -1.013123    14A     -0.951350    15A     -0.883340
      16A     -0.820580    17A     -0.792625    18A     -0.789326
      19A     -0.696726    20A     -0.660177    21A     -0.635592
      22A     -0.614710    23A     -0.601825    24A     -0.588627
      25A     -0.574805    26A     -0.556179    27A     -0.538350
      28A     -0.520917    29A     -0.513393    30A     -0.490593
      31A     -0.483598    32A     -0.474831    33A     -0.468097
      34A     -0.462891    35A     -0.461441    36A     -0.444874
      37A     -0.422724

  @DF-RHF Final Energy:  -388.42940848322661

   => Energetics <=

    Nuclear Repulsion Energy =            451.8343221382772867
    One-Electron Energy =               -1421.9598650495411221
    Two-Electron Energy =                 581.6961344280373396
    DFT Exchange-Correlation Energy =       0.0000000000000000
    Empirical Dispersion Energy =           0.0000000000000000
    PCM Polarization Energy =               0.0000000000000000
    EFP Energy =                            0.0000000000000000
    Total Energy =                       -388.4294084832265526
    Molecular point group: c1
  Basis Set: CC-PVTZ
  Basis Set:

  -Total Gradient:
     Atom            X                  Y                   Z
    ------   -----------------  -----------------  -----------------
       1        0.000029370954     0.000000349602     0.000006877288
       2       -0.000019189371     0.000011401023     0.000078696642
       3       -0.000027752525    -0.000012746979    -0.000038026347
       4        0.000042178094     0.000008554092    -0.000010701740
       5       -0.000030614534     0.000009603391    -0.000020137054
       6        0.000004659099     0.000007770758    -0.000016329539
       7        0.000022980244    -0.000018632504     0.000016056369
       8        0.000004394112    -0.000005792327    -0.000002795441
       9        0.000001100537     0.000008183775    -0.000001297042
      10        0.000743690612    -0.000508099391     0.001984646930
      11       -0.000004655466     0.000010658551    -0.000018923913
      12       -0.000025418106     0.000013450100    -0.000002100437
      13       -0.000666874701    -0.000593065073    -0.001576343810
      14       -0.000468938288     0.000550574747    -0.001307251539
      15       -0.000000142322    -0.000000674567    -0.000000848154
      16        0.000375629843     0.000557586026     0.000878090038
      17        0.000002478066     0.000004478514     0.000007197571
      18        0.000001460168     0.000009778530    -0.000008139358
      19       -0.000026397934    -0.000004370246     0.000011642236
      20        0.000025896417    -0.000010703678     0.000006975247
      21        0.000010774964    -0.000017068290    -0.000003242915
      22        0.000016094099    -0.000020179965     0.000013831113
      23       -0.000008413117     0.000009492186     0.000006156226
      24       -0.000022309974     0.000012229230    -0.000005269746
      25        0.000003875209    -0.000005921255     0.000009273070
      26        0.000019186521    -0.000010914394    -0.000006559530
      27       -0.000003062604    -0.000005941860    -0.000001476168

  **** Optimization is complete! (in 5 steps) ****
    Final optimized geometry and variables:
    Molecular point group: c1

    Geometry (in Angstrom), charge = 0, multiplicity = 1:

    H            2.701194491129    -2.347741861387     1.850357984350
    O            3.478037433304    -2.197098485459     1.344939764761
    C            3.187664324931    -2.270307657374    -0.025992691883
    C            2.393307347808    -1.079845841021    -0.541885043256
    H            4.144357320011    -2.312308426979    -0.528824636574
    H            2.663068412739    -3.196171752584    -0.253873029079
    C            0.985851052091    -0.966497124525     0.038400730460
    H            2.951371210271    -0.173276242882    -0.328265385112
    H            2.329882940920    -1.164122222504    -1.624122576361
    C            0.197039283664     0.212372096199    -0.523791500560
    H            1.042880719122    -0.862989218456     1.118710875107
    H            0.440292010458    -1.887799892672    -0.156871399843
    C           -1.220573235442     0.319655574616     0.032296776887
    H            0.733578223286     1.136865046246    -0.326182163531
    H            0.147944127493     0.124676322445    -1.606696093210
    C           -1.944840489092     1.592777362669    -0.395603283605
    H           -1.796187666432    -0.548553904924    -0.279018782061
    H           -1.182597291006     0.284466367709     1.118727130578
    C           -3.371027658007     1.689496406768     0.138718377138
    H           -1.965700191269     1.648726528408    -1.481704598488
    H           -1.377031959945     2.456604583988    -0.058612526543
    C           -4.085310363144     2.968093364426    -0.286183246562
    H           -3.940867255291     0.829144303535    -0.201589921908
    H           -3.352345138876     1.631626297507     1.223684596214
    H           -4.150778976023     3.039083944721    -1.366855861152
    H           -5.094055043104     3.004757885257     0.108865728241
    H           -3.558751768285     3.847366051884     0.069855515965

  Mulliken Charges: (a.u.)
   Center  Symbol    Alpha    Beta     Spin     Total
       1     H     0.39217  0.39217  0.00000  0.21565
       2     O     4.20590  4.20590  0.00000 -0.41179
       3     C     2.98013  2.98013  0.00000  0.03973
       4     C     3.08880  3.08880  0.00000 -0.17760
       5     H     0.44850  0.44850  0.00000  0.10299
       6     H     0.46980  0.46980  0.00000  0.06040
       7     C     3.10180  3.10180  0.00000 -0.20361
       8     H     0.45089  0.45089  0.00000  0.09821
       9     H     0.45590  0.45590  0.00000  0.08820
      10     C     3.08972  3.08972  0.00000 -0.17943
      11     H     0.45732  0.45732  0.00000  0.08537
      12     H     0.45378  0.45378  0.00000  0.09244
      13     C     3.08852  3.08852  0.00000 -0.17703
      14     H     0.45273  0.45273  0.00000  0.09455
      15     H     0.45414  0.45414  0.00000  0.09171
      16     C     3.08661  3.08661  0.00000 -0.17322
      17     H     0.45438  0.45438  0.00000  0.09124
      18     H     0.45592  0.45592  0.00000  0.08816
      19     C     3.08435  3.08435  0.00000 -0.16870
      20     H     0.45526  0.45526  0.00000  0.08949
      21     H     0.45466  0.45466  0.00000  0.09067
      22     C     3.15036  3.15036  0.00000 -0.30072
      23     H     0.45487  0.45487  0.00000  0.09026
      24     H     0.45475  0.45475  0.00000  0.09050
      25     H     0.45520  0.45520  0.00000  0.08959
      26     H     0.44846  0.44846  0.00000  0.10307
      27     H     0.45508  0.45508  0.00000  0.08985

   Total alpha = 37.00000, Total beta = 37.00000, Total charge = -0.00000

*** Psi4 exiting successfully. Buy a developer a beer!
