  ==> Input File <==

--------------------------------------------------------------------------
set {
	reference rhf
	basis 6-31G*
}

set_num_threads( 1 )
memory 2 gb

molecule MOL {
0 1

H	 -0.834309	 -1.185940	 0.821982
N	 -0.626943	 -0.667432	 -0.000092
C	 -1.512632	 -0.801262	 -1.134270
C	 0.469286	 0.129090	 0.000148
H	 -1.548897	 -1.829082	 -1.479634
H	 -1.138023	 -0.177806	 -1.929694
H	 -2.518685	 -0.483291	 -0.881717
C	 1.788933	 -0.616240	 -0.000037
O	 0.411098	 1.327768	 -0.000049
H	 1.872803	 -1.245775	 -0.880381
H	 2.595421	 0.101576	 0.003713
H	 1.870096	 -1.252171	 0.875943

	symmetry c1
}
set optking {
	frozen_dihedral = ("
		4 2 3 5
	")
}

ee = energy('scf')
oeprop('DIPOLE', 'QUADRUPOLE', 'MULLIKEN_CHARGES')
f=open( 'psi4out.xyz', 'w' )
f.write( "12  " )
f.write( str(ee) + "\n" )
f.write( MOL.save_string_xyz() )
f.close()
--------------------------------------------------------------------------

    Molecular point group: c1

    Geometry (in Angstrom), charge = 0, multiplicity = 1:

       Center              X                  Y                   Z               Mass
    ------------   -----------------  -----------------  -----------------  -----------------
           H         -0.930734280166    -1.053302796351     1.056181479042     1.007825032070
           N         -0.723368280166    -0.534794796351     0.234107479042    14.003074004780
           C         -1.609057280166    -0.668624796351    -0.900070520958    12.000000000000
           C          0.372860719834     0.261727203649     0.234347479042    12.000000000000
           H         -1.645322280166    -1.696444796351    -1.245434520958     1.007825032070
           H         -1.234448280166    -0.045168796351    -1.695494520958     1.007825032070
           H         -2.615110280166    -0.350653796351    -0.647517520958     1.007825032070
           C          1.692507719834    -0.483602796351     0.234162479042    12.000000000000
           O          0.314672719834     1.460405203649     0.234150479042    15.994914619560
           H          1.776377719834    -1.113137796351    -0.646181520958     1.007825032070
           H          2.498995719834     0.234213203649     0.237912479042     1.007825032070
           H          1.773670719834    -1.119533796351     1.110142479042     1.007825032070

  Charge       = 0
  Multiplicity = 1
  Basis Set: 6-31G*
  Basis Set:

    Orbital Energies (a.u.)
    -----------------------

    Doubly Occupied:

       1A    -20.543199     2A    -15.549236     3A    -11.347256
       4A    -11.259943     5A    -11.224652     6A     -1.395928
       7A     -1.220073     8A     -1.007203     9A     -0.934952
      10A     -0.782137    11A     -0.684689    12A     -0.646192
      13A     -0.642126    14A     -0.588107    15A     -0.581309
      16A     -0.562888    17A     -0.548801    18A     -0.489233
      19A     -0.424305    20A     -0.370197

  @DF-RHF Final Energy:  -246.96859350681163

   => Energetics <=

    Nuclear Repulsion Energy =            180.8901670262908681
    One-Electron Energy =                -694.1126936371174452
    Two-Electron Energy =                 266.2539331040145498
    DFT Exchange-Correlation Energy =       0.0000000000000000
    Empirical Dispersion Energy =           0.0000000000000000
    PCM Polarization Energy =               0.0000000000000000
    EFP Energy =                            0.0000000000000000
    Total Energy =                       -246.9685935068119989

  Mulliken Charges: (a.u.)
   Center  Symbol    Alpha    Beta     Spin     Total
       1     H     0.31045  0.31045  0.00000  0.37911
       2     N     3.90285  3.90285  0.00000 -0.80570
       3     C     3.13095  3.13095  0.00000 -0.26190
       4     C     2.65959  2.65959  0.00000  0.68082
       5     H     0.41940  0.41940  0.00000  0.16120
       6     H     0.40710  0.40710  0.00000  0.18579
       7     H     0.41388  0.41388  0.00000  0.17224
       8     C     3.27794  3.27794  0.00000 -0.55588
       9     O     4.25645  4.25645  0.00000 -0.51290
      10     H     0.40757  0.40757  0.00000  0.18486
      11     H     0.40152  0.40152  0.00000  0.19697
      12     H     0.41231  0.41231  0.00000  0.17538

   Total alpha = 20.00000, Total beta = 20.00000, Total charge =  0.00000
