  ==> Input File <==

--------------------------------------------------------------------------
set {
	reference rhf
	basis 6-31G*
}

set_num_threads( 1 )
memory 2 gb

molecule MOL {
0 1

H	 3.276176	 0.174363	 -0.109463
N	 2.434251	 -0.367735	 -0.081097
C	 1.267428	 0.496480	 0.024474
H	 2.501951	 -0.965776	 0.720575
C	 -0.016086	 -0.325158	 -0.029487
H	 1.288818	 1.183521	 -0.816092
H	 1.267576	 1.109062	 0.929528
C	 -1.282277	 0.529072	 0.046735
H	 -0.012495	 -0.908639	 -0.945788
H	 -0.015903	 -1.041248	 0.791956
C	 -1.969151	 0.696021	 -1.308269
H	 -1.031741	 1.509916	 0.445688
H	 -1.980903	 0.082612	 0.751398
H	 -1.307729	 1.172354	 -2.026147
H	 -2.862256	 1.307435	 -1.224257
H	 -2.263838	 -0.265489	 -1.719217

	symmetry c1
}
set optking {
	frozen_dihedral = ("
		6 3 5 9,
		1 2 3 6
	")
}

ee = energy('scf')
oeprop('DIPOLE', 'QUADRUPOLE', 'MULLIKEN_CHARGES')
f=open( 'psi4out.xyz', 'w' )
f.write( "16  " )
f.write( str(ee) + "\n" )
f.write( MOL.save_string_xyz() )
f.close()
--------------------------------------------------------------------------

    Molecular point group: c1

    Geometry (in Angstrom), charge = 0, multiplicity = 1:

       Center              X                  Y                   Z               Mass
    ------------   -----------------  -----------------  -----------------  -----------------
           H          3.153904804489    -0.030755653574     0.158169675997     1.007825032070
           N          2.311979804489    -0.572853653574     0.186535675997    14.003074004780
           C          1.145156804489     0.291361346426     0.292106675997    12.000000000000
           H          2.379679804489    -1.170894653574     0.988207675997     1.007825032070
           C         -0.138357195511    -0.530276653574     0.238145675997    12.000000000000
           H          1.166546804489     0.978402346426    -0.548459324003     1.007825032070
           H          1.145304804489     0.903943346426     1.197160675997     1.007825032070
           C         -1.404548195511     0.323953346426     0.314367675997    12.000000000000
           H         -0.134766195511    -1.113757653574    -0.678155324003     1.007825032070
           H         -0.138174195511    -1.246366653574     1.059588675997     1.007825032070
           C         -2.091422195511     0.490902346426    -1.040636324003    12.000000000000
           H         -1.154012195511     1.304797346426     0.713320675997     1.007825032070
           H         -2.103174195511    -0.122506653574     1.019030675997     1.007825032070
           H         -1.430000195511     0.967235346426    -1.758514324003     1.007825032070
           H         -2.984527195511     1.102316346426    -0.956624324003     1.007825032070
           H         -2.386109195511    -0.470607653574    -1.451584324003     1.007825032070

  Charge       = 0
  Multiplicity = 1
  Basis Set: 6-31G*
  Basis Set:

    Orbital Energies (a.u.)
    -----------------------

    Doubly Occupied:

       1A    -15.532528     2A    -11.240396     3A    -11.213671
       4A    -11.208255     5A    -11.207247     6A     -1.176781
       7A     -1.059558     8A     -0.956329     9A     -0.849486
      10A     -0.787711    11A     -0.662978    12A     -0.622876
      13A     -0.619878    14A     -0.586440    15A     -0.550853
      16A     -0.525341    17A     -0.508023    18A     -0.471233
      19A     -0.462395    20A     -0.453597    21A     -0.381494

  @DF-RHF Final Energy:  -212.31228351942042

   => Energetics <=

    Nuclear Repulsion Energy =            187.6919729748667578
    One-Electron Energy =                -657.8545441493644148
    Two-Electron Energy =                 257.8502876550774090
    DFT Exchange-Correlation Energy =       0.0000000000000000
    Empirical Dispersion Energy =           0.0000000000000000
    PCM Polarization Energy =               0.0000000000000000
    EFP Energy =                            0.0000000000000000
    Total Energy =                       -212.3122835194202480

  Mulliken Charges: (a.u.)
   Center  Symbol    Alpha    Beta     Spin     Total
       1     H     0.33259  0.33259  0.00000  0.33483
       2     N     3.92187  3.92187  0.00000 -0.84374
       3     C     3.06249  3.06249  0.00000 -0.12498
       4     H     0.33526  0.33526  0.00000  0.32948
       5     C     3.15393  3.15393  0.00000 -0.30785
       6     H     0.42084  0.42084  0.00000  0.15833
       7     H     0.43405  0.43405  0.00000  0.13190
       8     C     3.15876  3.15876  0.00000 -0.31751
       9     H     0.41088  0.41088  0.00000  0.17823
      10     H     0.42545  0.42545  0.00000  0.14911
      11     C     3.23931  3.23931  0.00000 -0.47862
      12     H     0.42206  0.42206  0.00000  0.15587
      13     H     0.41995  0.41995  0.00000  0.16010
      14     H     0.42140  0.42140  0.00000  0.15721
      15     H     0.42083  0.42083  0.00000  0.15834
      16     H     0.42034  0.42034  0.00000  0.15931

   Total alpha = 21.00000, Total beta = 21.00000, Total charge =  0.00000
