                              Psi4 1.0.54 Driver

  ==> Input File <==

--------------------------------------------------------------------------
set {
	reference rhf
	basis cc-pvtz
}

set_num_threads( 4 )
memory 2 gb

molecule MOL {
0 1

O	 1.788080	 1.324979	 -1.602719
C	 0.777252	 1.168163	 -0.979540
C	 -0.371337	 2.142403	 -1.142119
N	 0.622280	 0.144970	 -0.099307
H	 -0.623776	 2.615247	 -0.201354
H	 -0.058252	 2.894970	 -1.846472
H	 -1.258042	 1.647653	 -1.518882
C	 1.664396	 -0.854993	 0.000772
C	 -0.638054	 -0.214549	 0.505720
H	 2.462727	 -0.615153	 -0.690869
H	 1.261798	 -1.821849	 -0.240651
H	 2.081615	 -0.891605	 1.003877
H	 -0.456889	 -0.610206	 1.496815
H	 -1.287735	 0.637540	 0.609418
H	 -1.160290	 -0.977679	 -0.066947

	symmetry c1
}
set optking {
	frozen_dihedral = ("
		2 4 8 10
	")
}

ee,wfn = optimize('scf', return_wfn=True)
oeprop( wfn, 'DIPOLE', 'QUADRUPOLE', 'MULLIKEN_CHARGES')
f=open( 'psi4out.xyz', 'w' )
f.write( "15  " )
f.write( str(ee) + "\n" )
f.write( MOL.save_string_xyz() )
f.close()
--------------------------------------------------------------------------

    Molecular point group: c1
  Charge       = 0
  Multiplicity = 1
  Basis Set: CC-PVTZ
  Basis Set:
  @DF-RHF Final Energy:  -286.13498873160142
    Total Energy =                       -286.1349887316014247
    Molecular point group: c1
  Basis Set: CC-PVTZ
  Basis Set:
  Basis Set: CC-PVTZ
  Basis Set:
  @DF-RHF Final Energy:  -286.13535900621935
    Total Energy =                       -286.1353590062194030
  Basis Set: CC-PVTZ
  Basis Set:
  Basis Set: CC-PVTZ
  Basis Set:
  @DF-RHF Final Energy:  -286.13522749214798
    Total Energy =                       -286.1352274921479761
  Basis Set: CC-PVTZ
  Basis Set:
  Basis Set: CC-PVTZ
  Basis Set:
  @DF-RHF Final Energy:  -286.13547773853907
    Total Energy =                       -286.1354777385391799
  Basis Set: CC-PVTZ
  Basis Set:
  @DF-RHF Final Energy:  -286.13552283960166
    Total Energy =                       -286.1355228396015491
  @DF-RHF Final Energy:  -286.13553443000615
    Total Energy =                       -286.1355344300060324
  @DF-RHF Final Energy:  -286.13554311061029
    Total Energy =                       -286.1355431106100013
  @DF-RHF Final Energy:  -286.13555286104315
    Total Energy =                       -286.1355528610432657
  Basis Set: CC-PVTZ
  Basis Set:
  @DF-RHF Final Energy:  -286.13556082209624
    Total Energy =                       -286.1355608220961813
  Basis Set: CC-PVTZ
  Basis Set:
  Basis Set: CC-PVTZ
  Basis Set:
  @DF-RHF Final Energy:  -286.13556827373679
    Total Energy =                       -286.1355682737370216
  Basis Set: CC-PVTZ
  Basis Set:
  Basis Set: CC-PVTZ
  Basis Set:
  @DF-RHF Final Energy:  -286.13556935448435
    Total Energy =                       -286.1355693544843461
  Basis Set: CC-PVTZ
  Basis Set:
  Charge       = 0
  Multiplicity = 1
  Basis Set: CC-PVTZ
  Basis Set:

    Orbital Energies (a.u.)
    -----------------------

    Doubly Occupied:

       1A    -20.501852     2A    -15.579005     3A    -11.335366
       4A    -11.264229     5A    -11.246466     6A    -11.226403
       7A     -1.386155     8A     -1.246735     9A     -1.015062
      10A     -0.973631    11A     -0.921918    12A     -0.739657
      13A     -0.683352    14A     -0.662269    15A     -0.653910
      16A     -0.591009    17A     -0.577766    18A     -0.566519
      19A     -0.561364    20A     -0.548906    21A     -0.530597
      22A     -0.507663    23A     -0.412596    24A     -0.369438

  @DF-RHF Final Energy:  -286.13557008154407

   => Energetics <=

    Nuclear Repulsion Energy =            252.7656988082644602
    One-Electron Energy =                -889.5988021167311217
    Two-Electron Energy =                 350.6975332269227010
    DFT Exchange-Correlation Energy =       0.0000000000000000
    Empirical Dispersion Energy =           0.0000000000000000
    PCM Polarization Energy =               0.0000000000000000
    EFP Energy =                            0.0000000000000000
    Total Energy =                       -286.1355700815439604
    Molecular point group: c1
  Basis Set: CC-PVTZ
  Basis Set:

  -Total Gradient:
     Atom            X                  Y                   Z
    ------   -----------------  -----------------  -----------------
       1        0.000002641301    -0.000004056508     0.000020309833
       2        0.000046362398     0.000067666741     0.000077709484
       3       -0.000006136269    -0.000005950592    -0.000004553505
       4       -0.000084993046    -0.000111732546    -0.000165344840
       5        0.000006592161     0.000006448681     0.000001653200
       6       -0.000001850552    -0.000003887995    -0.000005677430
       7       -0.000005562374     0.000000663035     0.000006516643
       8        0.000099475758     0.000145855467     0.000216749027
       9        0.000002076616    -0.000006294088    -0.000020809799
      10       -0.000056977203    -0.000087072423    -0.000130413936
      11        0.000000769408    -0.000003140017     0.000001297527
      12       -0.000002668281     0.000003255330    -0.000002906730
      13        0.000004449628    -0.000013484486    -0.000001170246
      14        0.000005157334     0.000007255943     0.000017328450
      15       -0.000009336882     0.000004473463    -0.000010687679

  **** Optimization is complete! (in 12 steps) ****
    Final optimized geometry and variables:
    Molecular point group: c1

    Geometry (in Angstrom), charge = 0, multiplicity = 1:

    O            1.171906886434     0.779765067928    -0.991415633529
    C            0.136571526728     0.567015926732    -0.426491445763
    C           -1.027535776728     1.520903554609    -0.604292586500
    N           -0.037479115388    -0.507230313583     0.382472840863
    H           -1.301323342767     1.985647505152     0.334821438326
    H           -0.713222006134     2.283461196241    -1.297177325518
    H           -1.900407551988     1.016114018545    -0.998559839496
    C            1.035359155451    -1.464017763660     0.545264905638
    C           -1.263786555460    -0.845899580781     1.061453421091
    H            1.880932554588    -1.161293506533    -0.044491113081
    H            0.712441270199    -2.449757671954     0.224637273252
    H            1.330559626533    -1.527478824040     1.587587742834
    H           -1.057367469560    -1.068297467164     2.102508476516
    H           -1.974312852885    -0.038956083228     1.033337516768
    H           -1.727160384000    -1.723950488887     0.620058790762

  Mulliken Charges: (a.u.)
   Center  Symbol    Alpha    Beta     Spin     Total
       1     O     4.22298  4.22298  0.00000 -0.44596
       2     C     2.84745  2.84745  0.00000  0.30511
       3     C     3.16014  3.16014  0.00000 -0.32027
       4     N     3.55741  3.55741  0.00000 -0.11481
       5     H     0.44958  0.44958  0.00000  0.10085
       6     H     0.42843  0.42843  0.00000  0.14314
       7     H     0.44977  0.44977  0.00000  0.10045
       8     C     3.10097  3.10097  0.00000 -0.20195
       9     C     3.09421  3.09421  0.00000 -0.18843
      10     H     0.42483  0.42483  0.00000  0.15033
      11     H     0.45798  0.45798  0.00000  0.08404
      12     H     0.45614  0.45614  0.00000  0.08773
      13     H     0.45184  0.45184  0.00000  0.09632
      14     H     0.44496  0.44496  0.00000  0.11007
      15     H     0.45331  0.45331  0.00000  0.09338

   Total alpha = 24.00000, Total beta = 24.00000, Total charge = -0.00000

*** Psi4 exiting successfully. Buy a developer a beer!
