  ==> Input File <==

--------------------------------------------------------------------------
set {
	reference rhf
	basis 6-31G*
}

set_num_threads( 4 )
memory 2 gb

molecule MOL {
0 1

H	 -0.044800	 -0.601652	 -1.990254
C	 0.221115	 0.443031	 -1.786220
C	 0.065331	 0.871482	 -0.349150
O	 0.603268	 1.144520	 -2.665761
C	 -1.339775	 0.583656	 0.198860
H	 0.310554	 1.924903	 -0.277864
H	 0.798616	 0.316077	 0.233928
C	 -1.808407	 -0.848507	 -0.061364
H	 -2.036183	 1.280685	 -0.256307
H	 -1.360094	 0.788874	 1.267089
H	 -1.828843	 -1.063152	 -1.125336
H	 -2.808409	 -1.004529	 0.329750
H	 -1.153967	 -1.577789	 0.406873

	symmetry c1
}
set optking {
	frozen_dihedral = ("
		6 3 5 9
	")
}

ee = optimize('scf')
oeprop('DIPOLE', 'QUADRUPOLE', 'MULLIKEN_CHARGES')
f=open( 'psi4out.xyz', 'w' )
f.write( "13  " )
f.write( str(ee) + "\n" )
f.write( MOL.save_string_xyz() )
f.close()
--------------------------------------------------------------------------

    Molecular point group: c1
  Charge       = 0
  Multiplicity = 1
  Basis Set: 6-31G*
  Basis Set:
  @DF-RHF Final Energy:  -230.98011455811451
    Total Energy =                       -230.9801145581143942
    Molecular point group: c1
  Basis Set: 6-31G*
  Basis Set:
  Basis Set: 6-31G*
  Basis Set:
  @DF-RHF Final Energy:  -230.98058996679342
    Total Energy =                       -230.9805899667931897
  Basis Set: 6-31G*
  Basis Set:
  Basis Set: 6-31G*
  Basis Set:
  @DF-RHF Final Energy:  -230.97816756843108
    Total Energy =                       -230.9781675684311892
  Basis Set: 6-31G*
  Basis Set:
  Basis Set: 6-31G*
  Basis Set:
  @DF-RHF Final Energy:  -230.98207495294920
    Total Energy =                       -230.9820749529492900
  Basis Set: 6-31G*
  Basis Set:
  @DF-RHF Final Energy:  -230.98239102271069
    Total Energy =                       -230.9823910227106580
  @DF-RHF Final Energy:  -230.98245193556096
    Total Energy =                       -230.9824519355607322
  @DF-RHF Final Energy:  -230.98249451015488
    Total Energy =                       -230.9824945101548508
  @DF-RHF Final Energy:  -230.98250426976836
    Total Energy =                       -230.9825042697682136
  @DF-RHF Final Energy:  -230.98250628580260
    Total Energy =                       -230.9825062858025149
  @DF-RHF Final Energy:  -230.98251194068905
    Total Energy =                       -230.9825119406889371
  @DF-RHF Final Energy:  -230.98252161842709
    Total Energy =                       -230.9825216184268015
  @DF-RHF Final Energy:  -230.98234244848055
    Total Energy =                       -230.9823424484805230
  @DF-RHF Final Energy:  -230.98251235287086
    Total Energy =                       -230.9825123528709696
  Basis Set: 6-31G*
  Basis Set:
  @DF-RHF Final Energy:  -230.98250944468495
    Total Energy =                       -230.9825094446851210
  Basis Set: 6-31G*
  Basis Set:
  Basis Set: 6-31G*
  Basis Set:
  @DF-RHF Final Energy:  -230.98249896666709
    Total Energy =                       -230.9824989666671229
  Basis Set: 6-31G*
  Basis Set:
  Basis Set: 6-31G*
  Basis Set:
  @DF-RHF Final Energy:  -230.98251307936536
    Total Energy =                       -230.9825130793652761
  Basis Set: 6-31G*
  Basis Set:
  Charge       = 0
  Multiplicity = 1
  Basis Set: 6-31G*
  Basis Set:

    Orbital Energies (a.u.)
    -----------------------

    Doubly Occupied:

       1A    -20.562432     2A    -11.325646     3A    -11.239003
       4A    -11.235386     5A    -11.225852     6A     -1.401795
       7A     -1.085053     8A     -0.973475     9A     -0.856435
      10A     -0.778214    11A     -0.680110    12A     -0.643725
      13A     -0.609463    14A     -0.602241    15A     -0.567322
      16A     -0.532475    17A     -0.509552    18A     -0.494079
      19A     -0.480607    20A     -0.408181

  @DF-RHF Final Energy:  -230.98251346287014

   => Energetics <=

    Nuclear Repulsion Energy =            173.3491538971451860
    One-Electron Energy =                -656.2412477391612811
    Two-Electron Energy =                 251.9095803791458366
    DFT Exchange-Correlation Energy =       0.0000000000000000
    Empirical Dispersion Energy =           0.0000000000000000
    PCM Polarization Energy =               0.0000000000000000
    EFP Energy =                            0.0000000000000000
    Total Energy =                       -230.9825134628702585
    Molecular point group: c1
  Basis Set: 6-31G*
  Basis Set:

  -Total Gradient:
     Atom            X                  Y                   Z
    ------   -----------------  -----------------  -----------------
       1       -0.000118465972    -0.000002956982    -0.000081201422
       2       -0.000058851434    -0.000217775795     0.000121699948
       3        0.001194292552     0.000255350114     0.003058942263
       4        0.000170541690     0.000028772683    -0.000075889746
       5       -0.000721778528    -0.001754366224    -0.002813063426
       6       -0.000910416354     0.000382036078    -0.002016509662
       7        0.000009543067    -0.000019793459    -0.000033843159
       8       -0.000028904371    -0.000044214297     0.000089640238
       9        0.000351580122     0.001468699745     0.001743779330
      10        0.000146157688    -0.000081757828    -0.000005063684
      11       -0.000011727387     0.000014359141    -0.000001797316
      12       -0.000016497008    -0.000046988443    -0.000008875184
      13       -0.000005474066     0.000018635268     0.000022181820

  **** Optimization is complete! (in 17 steps) ****
    Final optimized geometry and variables:
    Molecular point group: c1

    Geometry (in Angstrom), charge = 0, multiplicity = 1:

    H            0.783187876853    -1.055865745599    -1.079067392144
    C            0.771795162652     0.014163926106    -0.848865865616
    C            0.580993813117     0.381419702491     0.602775059660
    O            0.903867613823     0.809655449133    -1.723000209319
    C           -0.851894995424     0.127665485350     1.108281175987
    H            0.822466734384     1.433418678255     0.695756811523
    H            1.284835591596    -0.197200065295     1.197473725240
    C           -1.368251656304    -1.299023424641     0.911823096068
    H           -1.522775695688     0.839961927023     0.637383436557
    H           -0.866134546836     0.363135867316     2.168380391728
    H           -1.492398854359    -1.549416249027    -0.136819758781
    H           -2.335181566187    -1.419823144452     1.388418330962
    H           -0.691555236579    -2.027018983790     1.350863703857

  Mulliken Charges: (a.u.)
   Center  Symbol    Alpha    Beta     Spin     Total
       1     H     0.42945  0.42945  0.00000  0.14109
       2     C     2.83505  2.83505  0.00000  0.32989
       3     C     3.20638  3.20638  0.00000 -0.41276
       4     O     4.23734  4.23734  0.00000 -0.47467
       5     C     3.16102  3.16102  0.00000 -0.32203
       6     H     0.39844  0.39844  0.00000  0.20311
       7     H     0.41302  0.41302  0.00000  0.17397
       8     C     3.24722  3.24722  0.00000 -0.49445
       9     H     0.41007  0.41007  0.00000  0.17985
      10     H     0.41296  0.41296  0.00000  0.17407
      11     H     0.41713  0.41713  0.00000  0.16574
      12     H     0.41261  0.41261  0.00000  0.17478
      13     H     0.41930  0.41930  0.00000  0.16140

   Total alpha = 20.00000, Total beta = 20.00000, Total charge =  0.00000
