  ==> Input File <==

--------------------------------------------------------------------------
set {
	reference rhf
	basis 6-31G*
}

set_num_threads( 4 )
memory 2 gb

molecule MOL {
0 1

H	 1.585952	 -4.568302	 3.399427
C	 1.641209	 -3.748105	 2.707115
C	 0.668518	 -3.585831	 1.726420
C	 2.677555	 -2.840066	 2.777133
H	 -0.146648	 -4.284042	 1.656888
C	 0.736054	 -2.535355	 0.836961
H	 3.438900	 -2.949709	 3.529076
C	 2.760232	 -1.774514	 1.887064
H	 -0.008383	 -2.398316	 0.074814
C	 1.785506	 -1.622119	 0.913532
H	 3.578277	 -1.085271	 1.967154
O	 1.765256	 -0.628444	 0.000000
C	 2.778419	 0.335181	 0.000000
H	 2.731280	 0.961222	 -0.884976
H	 3.711703	 -0.207767	 0.000000
H	 2.731280	 0.961222	 0.884976

	symmetry c1
}
set optking {
	frozen_dihedral = ("
		10 12 13 14
	")
}

ee = optimize('scf')
oeprop('DIPOLE', 'QUADRUPOLE', 'MULLIKEN_CHARGES')
f=open( 'psi4out.xyz', 'w' )
f.write( "16  " )
f.write( str(ee) + "\n" )
f.write( MOL.save_string_xyz() )
f.close()
--------------------------------------------------------------------------

    Molecular point group: c1
  Charge       = 0
  Multiplicity = 1
  Basis Set: 6-31G*
  Basis Set:
  @DF-RHF Final Energy:  -344.58023427823667
    Total Energy =                       -344.5802342782365599
    Molecular point group: c1
  Basis Set: 6-31G*
  Basis Set:
  Basis Set: 6-31G*
  Basis Set:
  @DF-RHF Final Energy:  -344.58205689015904
    Total Energy =                       -344.5820568901588103
  Basis Set: 6-31G*
  Basis Set:
  Basis Set: 6-31G*
  Basis Set:
  @DF-RHF Final Energy:  -344.58255646323136
    Total Energy =                       -344.5825564632313558
  Basis Set: 6-31G*
  Basis Set:
  Basis Set: 6-31G*
  Basis Set:
  @DF-RHF Final Energy:  -344.58256449438721
    Total Energy =                       -344.5825644943873840
  Basis Set: 6-31G*
  Basis Set:
  Charge       = 0
  Multiplicity = 1
  Basis Set: 6-31G*
  Basis Set:

    Orbital Energies (a.u.)
    -----------------------

    Doubly Occupied:

       1A    -20.584849     2A    -11.293900     3A    -11.279893
       4A    -11.232835     5A    -11.231318     6A    -11.223747
       7A    -11.219279     8A    -11.219164     9A     -1.413981
      10A     -1.145724    11A     -1.021639    12A     -1.012643
      13A     -0.941508    14A     -0.830374    15A     -0.804555
      16A     -0.721508    17A     -0.663804    18A     -0.661635
      19A     -0.656076    20A     -0.616671    21A     -0.586733
      22A     -0.575885    23A     -0.523790    24A     -0.520287
      25A     -0.508629    26A     -0.475796    27A     -0.461540
      28A     -0.334565    29A     -0.305002

  @DF-RHF Final Energy:  -344.58256546395245

   => Energetics <=

    Nuclear Repulsion Energy =            348.1190552390845028
    One-Electron Energy =               -1157.2685802475034507
    Two-Electron Energy =                 464.5669595444664992
    DFT Exchange-Correlation Energy =       0.0000000000000000
    Empirical Dispersion Energy =           0.0000000000000000
    PCM Polarization Energy =               0.0000000000000000
    EFP Energy =                            0.0000000000000000
    Total Energy =                       -344.5825654639525055
    Molecular point group: c1
  Basis Set: 6-31G*
  Basis Set:

  -Total Gradient:
     Atom            X                  Y                   Z
    ------   -----------------  -----------------  -----------------
       1       -0.000003941908     0.000001792824    -0.000000803725
       2        0.000061934044     0.000013383888     0.000018395604
       3       -0.000034423444     0.000050737888    -0.000042084473
       4       -0.000028515964    -0.000056146379     0.000028804993
       5        0.000001862601    -0.000001764431    -0.000002619066
       6       -0.000044692518    -0.000045089671     0.000034080594
       7        0.000000056669     0.000005582059     0.000000020209
       8       -0.000034280339     0.000059338180    -0.000043065740
       9        0.000003562173    -0.000001151379    -0.000005494455
      10        0.000604438588    -0.000686428224    -0.000853556063
      11        0.000008860507     0.000001382524    -0.000008846068
      12       -0.000609299375     0.000833862938     0.001068658269
      13       -0.000598162027     0.000761935140     0.000518811701
      14        0.000646494757    -0.000894589508    -0.000705895562
      15        0.000028788600    -0.000033990467     0.000022696833
      16       -0.000002682364    -0.000008855383    -0.000029103048

  **** Optimization is complete! (in 5 steps) ****
    Final optimized geometry and variables:
    Molecular point group: c1

    Geometry (in Angstrom), charge = 0, multiplicity = 1:

    H           -0.267399090086    -2.638183854068     2.047747868213
    C           -0.221938820135    -1.801095428217     1.375188700402
    C           -1.189035938288    -1.635078107506     0.389364794581
    C            0.794933651685    -0.874335557613     1.476827698405
    H           -1.989257323198    -2.347727732371     0.296107657452
    C           -1.133343275036    -0.564093727695    -0.475997718253
    H            1.549876911583    -0.984746899237     2.235090527879
    C            0.864152670587     0.213200933840     0.612409471636
    H           -1.872505372686    -0.424470446087    -1.242789733666
    C           -0.102081565312     0.366704168554    -0.369028751388
    H            1.662513797379     0.921546753033     0.720929542485
    O           -0.136687812775     1.385528872265    -1.253914381787
    C            0.940365347933     2.274339811456    -1.332440123066
    H            0.771327173743     2.878310601567    -2.211465155374
    H            1.881546687169     1.747036461797    -1.446594793512
    H            0.992232939219     2.914941939545    -0.458198278701

  Mulliken Charges: (a.u.)
   Center  Symbol    Alpha    Beta     Spin     Total
       1     H     0.40125  0.40125  0.00000  0.19750
       2     C     3.11202  3.11202  0.00000 -0.22404
       3     C     3.09190  3.09190  0.00000 -0.18379
       4     C     3.09103  3.09103  0.00000 -0.18206
       5     H     0.39879  0.39879  0.00000  0.20242
       6     C     3.12539  3.12539  0.00000 -0.25078
       7     H     0.39967  0.39967  0.00000  0.20066
       8     C     3.14455  3.14455  0.00000 -0.28909
       9     H     0.39296  0.39296  0.00000  0.21408
      10     C     2.78262  2.78262  0.00000  0.43476
      11     H     0.39740  0.39740  0.00000  0.20519
      12     O     4.32617  4.32617  0.00000 -0.65235
      13     C     3.09210  3.09210  0.00000 -0.18420
      14     H     0.40490  0.40490  0.00000  0.19021
      15     H     0.41971  0.41971  0.00000  0.16058
      16     H     0.41954  0.41954  0.00000  0.16092

   Total alpha = 29.00000, Total beta = 29.00000, Total charge =  0.00000
