  ==> Input File <==

--------------------------------------------------------------------------
set {
	reference rhf
	basis cc-pvtz
}

set_num_threads( 4 )
memory 2 gb

molecule MOL {
0 1

H	 -2.502580	 -0.745577	 -0.701005
O	 -2.345852	 -0.286532	 0.103740
C	 -1.183685	 0.487407	 0.001133
C	 0.062947	 -0.374093	 0.040123
H	 -1.182688	 1.087898	 -0.903045
H	 -1.179866	 1.164021	 0.843665
O	 1.172093	 0.457955	 -0.054438
H	 0.048344	 -1.087431	 -0.785609
H	 0.080584	 -0.946265	 0.965262
C	 2.395478	 -0.199028	 -0.000366
H	 2.505946	 -0.901710	 -0.823354
H	 3.174616	 0.545641	 -0.071768
H	 2.513730	 -0.742241	 0.934223

	symmetry c1
}
set optking {
	frozen_dihedral = ("
		4 7 10 13
	")
}

ee = optimize('scf')
oeprop('DIPOLE', 'QUADRUPOLE', 'MULLIKEN_CHARGES')
f=open( 'psi4out.xyz', 'w' )
f.write( "13  " )
f.write( str(ee) + "\n" )
f.write( MOL.save_string_xyz() )
f.close()
--------------------------------------------------------------------------

    Molecular point group: c1
  Charge       = 0
  Multiplicity = 1
  Basis Set: CC-PVTZ
  Basis Set:

    Orbital Energies (a.u.)
    -----------------------

    Doubly Occupied:

       1A    -20.556105     2A    -20.552927     3A    -11.269333
       4A    -11.267839     5A    -11.267543     6A     -1.392082
       7A     -1.369298     8A     -1.019781     9A     -0.914050
      10A     -0.842868    11A     -0.712100    12A     -0.676561
      13A     -0.663166    14A     -0.639405    15A     -0.597837
      16A     -0.571151    17A     -0.546948    18A     -0.491406
      19A     -0.483496    20A     -0.441766    21A     -0.424828

  @DF-RHF Final Energy:  -268.06231096734359

   => Energetics <=

    Nuclear Repulsion Energy =            190.4964205657745708
    One-Electron Energy =                -743.7164832210469285
    Two-Electron Energy =                 285.1577516879285668
    DFT Exchange-Correlation Energy =       0.0000000000000000
    Empirical Dispersion Energy =           0.0000000000000000
    PCM Polarization Energy =               0.0000000000000000
    EFP Energy =                            0.0000000000000000
    Total Energy =                       -268.0623109673438194
    Molecular point group: c1
  Basis Set: CC-PVTZ
  Basis Set:

  -Total Gradient:
     Atom            X                  Y                   Z
    ------   -----------------  -----------------  -----------------
       1       -0.000011335266     0.000004840947     0.000014142418
       2        0.000004692455    -0.000012074303    -0.000023773203
       3        0.000017702987     0.000004731236     0.000025087059
       4       -0.000015159816    -0.000012396695     0.000073369616
       5       -0.000005492790     0.000001351720     0.000003506244
       6       -0.000011691658     0.000003225224    -0.000004564070
       7        0.000029458619     0.000010827432    -0.000121008407
       8        0.000010600291     0.000000000873     0.000002889534
       9       -0.000026585549    -0.000005061307     0.000000865727
      10       -0.000000495611    -0.000003966597     0.000026411396
      11        0.000015178661     0.000029863862    -0.000013642983
      12        0.000009077680     0.000005639131     0.000020102734
      13       -0.000015950002    -0.000026981523    -0.000003386064

  **** Optimization is complete! (in 1 steps) ****
    Final optimized geometry and variables:
    Molecular point group: c1

    Geometry (in Angstrom), charge = 0, multiplicity = 1:

    H           -2.502683226747    -0.746562417250    -0.710648242241
    O           -2.345955226747    -0.287517417250     0.094096757759
    C           -1.183788226747     0.486421582750    -0.008510242241
    C            0.062843773253    -0.375078417250     0.030479757759
    H           -1.182791226747     1.086912582750    -0.912688242241
    H           -1.179969226747     1.163035582750     0.834021757759
    O            1.171989773253     0.456969582750    -0.064081242241
    H            0.048240773253    -1.088416417250    -0.795252242241
    H            0.080480773253    -0.947250417250     0.955618757759
    C            2.395374773253    -0.200013417250    -0.010009242241
    H            2.505842773253    -0.902695417250    -0.832997242241
    H            3.174512773253     0.544655582750    -0.081411242241
    H            2.513626773253    -0.743226417250     0.924579757759

  Mulliken Charges: (a.u.)
   Center  Symbol    Alpha    Beta     Spin     Total
       1     H     0.39407  0.39407  0.00000  0.21187
       2     O     4.20213  4.20213  0.00000 -0.40426
       3     C     2.97335  2.97335  0.00000  0.05330
       4     C     2.96510  2.96510  0.00000  0.06981
       5     H     0.46683  0.46683  0.00000  0.06635
       6     H     0.45269  0.45269  0.00000  0.09462
       7     O     4.17542  4.17542  0.00000 -0.35084
       8     H     0.48214  0.48214  0.00000  0.03572
       9     H     0.46952  0.46952  0.00000  0.06096
      10     C     3.03178  3.03178  0.00000 -0.06356
      11     H     0.47113  0.47113  0.00000  0.05774
      12     H     0.44591  0.44591  0.00000  0.10818
      13     H     0.46994  0.46994  0.00000  0.06012

   Total alpha = 21.00000, Total beta = 21.00000, Total charge = -0.00000
