                              Psi4 1.0.54 Driver

  ==> Input File <==

--------------------------------------------------------------------------
set {
	reference rhf
	basis cc-pvtz
}

set_num_threads( 4 )
memory 2 gb

molecule MOL {
0 1

O	 0.533550	 -0.748405	 -2.206375
C	 -0.007703	 -0.955054	 -1.174765
C	 -1.395618	 -1.509356	 -1.026116
O	 0.550743	 -0.719877	 0.000412
H	 -1.359837	 -2.430098	 -0.458350
H	 -1.818963	 -1.689573	 -2.000710
H	 -2.009511	 -0.807758	 -0.476267
C	 1.863204	 -0.194033	 0.000410
H	 2.031502	 0.409177	 -0.879273
H	 2.524488	 -1.045142	 0.000793
H	 2.031291	 0.409823	 0.879686

	symmetry c1
}
set optking {
	frozen_dihedral = ("
		2 4 8 9
	")
}

ee,wfn = optimize('scf', return_wfn=True)
oeprop( wfn, 'DIPOLE', 'QUADRUPOLE', 'MULLIKEN_CHARGES')
f=open( 'psi4out.xyz', 'w' )
f.write( "11  " )
f.write( str(ee) + "\n" )
f.write( MOL.save_string_xyz() )
f.close()
--------------------------------------------------------------------------

    Molecular point group: c1
  Charge       = 0
  Multiplicity = 1
  Basis Set: CC-PVTZ
  Basis Set:
  @DF-RHF Final Energy:  -266.93686332903667
    Total Energy =                       -266.9368633290367256
    Molecular point group: c1
  Basis Set: CC-PVTZ
  Basis Set:
  Basis Set: CC-PVTZ
  Basis Set:
  @DF-RHF Final Energy:  -266.93778010370795
    Total Energy =                       -266.9377801037079507
  Basis Set: CC-PVTZ
  Basis Set:
  Basis Set: CC-PVTZ
  Basis Set:
  @DF-RHF Final Energy:  -266.93723716839497
    Total Energy =                       -266.9372371683948018
  Basis Set: CC-PVTZ
  Basis Set:
  Basis Set: CC-PVTZ
  Basis Set:
  @DF-RHF Final Energy:  -266.93811645709673
    Total Energy =                       -266.9381164570968963
  Basis Set: CC-PVTZ
  Basis Set:
  Basis Set: CC-PVTZ
  Basis Set:
  @DF-RHF Final Energy:  -266.93813181069083
    Total Energy =                       -266.9381318106910612
  Basis Set: CC-PVTZ
  Basis Set:
  Charge       = 0
  Multiplicity = 1
  Basis Set: CC-PVTZ
  Basis Set:

    Orbital Energies (a.u.)
    -----------------------

    Doubly Occupied:

       1A    -20.598228     2A    -20.534884     3A    -11.369536
       4A    -11.279278     5A    -11.232862     6A     -1.472871
       7A     -1.367979     8A     -1.037022     9A     -0.954008
      10A     -0.779773    11A     -0.698919    12A     -0.683060
      13A     -0.681090    14A     -0.597234    15A     -0.592914
      16A     -0.561936    17A     -0.529103    18A     -0.522747
      19A     -0.460440    20A     -0.445785

  @DF-RHF Final Energy:  -266.93813250917754

   => Energetics <=

    Nuclear Repulsion Energy =            183.4507099982017735
    One-Electron Energy =                -727.9783457545017882
    Two-Electron Energy =                 277.5895032471225363
    DFT Exchange-Correlation Energy =       0.0000000000000000
    Empirical Dispersion Energy =           0.0000000000000000
    PCM Polarization Energy =               0.0000000000000000
    EFP Energy =                            0.0000000000000000
    Total Energy =                       -266.9381325091774784
    Molecular point group: c1
  Basis Set: CC-PVTZ
  Basis Set:

  -Total Gradient:
     Atom            X                  Y                   Z
    ------   -----------------  -----------------  -----------------
       1       -0.000041857089    -0.000022430235    -0.000038129917
       2       -0.000537568613     0.001272653896     0.000071614151
       3        0.000006645449     0.000020540815    -0.000010836762
       4        0.000869245654    -0.002261443827    -0.000311204197
       5        0.000011985090     0.000014511019    -0.000014861339
       6        0.000007617460     0.000002297366     0.000009029045
       7        0.000016653263    -0.000012546150    -0.000008552310
       8       -0.000902391296     0.002280240240     0.001097758552
       9        0.000540359615    -0.001310911979    -0.000789305677
      10       -0.000029524683     0.000018121658    -0.000003182900
      11        0.000058835150    -0.000001032803    -0.000002328645

  **** Optimization is complete! (in 6 steps) ****
    Final optimized geometry and variables:
    Molecular point group: c1

    Geometry (in Angstrom), charge = 0, multiplicity = 1:

    O            0.191481000919     0.050693349789    -1.348212882933
    C           -0.336026978462    -0.139040450013    -0.306486573130
    C           -1.729698082347    -0.672737640848    -0.135938519988
    O            0.236118818428     0.092590536305     0.863420655080
    H           -1.698565714795    -1.589875062912     0.437852152097
    H           -2.167909808070    -0.854272971089    -1.103672429325
    H           -2.326588263283     0.040883560841     0.416992122828
    C            1.544286436251     0.631011840956     0.882691106647
    H            1.718766717540     1.249623616992     0.018388916365
    H            2.267671810455    -0.172896904234     0.890753871396
    H            1.628986195239     1.204871278955     1.791517829378

  Mulliken Charges: (a.u.)
   Center  Symbol    Alpha    Beta     Spin     Total
       1     O     4.19713  4.19713  0.00000 -0.39426
       2     C     2.79965  2.79965  0.00000  0.40070
       3     C     3.13907  3.13907  0.00000 -0.27814
       4     O     4.14891  4.14891  0.00000 -0.29782
       5     H     0.44525  0.44525  0.00000  0.10950
       6     H     0.43791  0.43791  0.00000  0.12417
       7     H     0.44578  0.44578  0.00000  0.10844
       8     C     3.03459  3.03459  0.00000 -0.06917
       9     H     0.44736  0.44736  0.00000  0.10529
      10     H     0.45657  0.45657  0.00000  0.08687
      11     H     0.44779  0.44779  0.00000  0.10441

   Total alpha = 20.00000, Total beta = 20.00000, Total charge =  0.00000

*** Psi4 exiting successfully. Buy a developer a beer!
