  ==> Input File <==

--------------------------------------------------------------------------
set {
	reference rhf
	basis cc-pvtz
}

set_num_threads( 4 )
memory 2 gb

molecule MOL {
0 1

H	 -0.939693	 0.000281	 1.681345
O	 -0.046262	 -0.000157	 1.387678
C	 -0.000837	 0.000006	 -0.025491
C	 -0.908523	 1.103150	 -0.566164
C	 1.439196	 0.207233	 -0.490795
C	 -0.510771	 -1.371598	 -0.446035
H	 -0.922412	 1.104705	 -1.649953
H	 -0.564976	 2.079563	 -0.238043
H	 -1.921152	 0.964647	 -0.208586
H	 1.511251	 0.175929	 -1.571820
H	 1.815052	 1.171341	 -0.161705
H	 2.080603	 -0.562428	 -0.080083
H	 -0.513186	 -1.468824	 -1.525307
H	 -1.519463	 -1.523666	 -0.083230
H	 0.118306	 -2.148695	 -0.030587

	symmetry c1
}
set optking {
	frozen_dihedral = ("
		4 3 2 1
	")
}

ee = optimize('scf')
oeprop('DIPOLE', 'QUADRUPOLE', 'MULLIKEN_CHARGES')
f=open( 'psi4out.xyz', 'w' )
f.write( "15  " )
f.write( str(ee) + "\n" )
f.write( MOL.save_string_xyz() )
f.close()
--------------------------------------------------------------------------

    Molecular point group: c1
  Charge       = 0
  Multiplicity = 1
  Basis Set: CC-PVTZ
  Basis Set:
  @DF-RHF Final Energy:  -232.24473195587765
    Total Energy =                       -232.2447319558779100
    Molecular point group: c1
  Basis Set: CC-PVTZ
  Basis Set:
  Basis Set: CC-PVTZ
  Basis Set:
  @DF-RHF Final Energy:  -232.24627661284205
    Total Energy =                       -232.2462766128418252
  Basis Set: CC-PVTZ
  Basis Set:
  Basis Set: CC-PVTZ
  Basis Set:
  @DF-RHF Final Energy:  -232.24664134465982
    Total Energy =                       -232.2466413446595652
  Basis Set: CC-PVTZ
  Basis Set:
  Basis Set: CC-PVTZ
  Basis Set:
  @DF-RHF Final Energy:  -232.24664312366639
    Total Energy =                       -232.2466431236661037
  Basis Set: CC-PVTZ
  Basis Set:
  Basis Set: CC-PVTZ
  Basis Set:
  @DF-RHF Final Energy:  -232.24664703166667
    Total Energy =                       -232.2466470316663845
  Basis Set: CC-PVTZ
  Basis Set:
  Charge       = 0
  Multiplicity = 1
  Basis Set: CC-PVTZ
  Basis Set:

    Orbital Energies (a.u.)
    -----------------------

    Doubly Occupied:

       1A    -20.542078     2A    -11.280814     3A    -11.211165
       4A    -11.207487     5A    -11.203901     6A     -1.364853
       7A     -1.065233     8A     -0.942896     9A     -0.939705
      10A     -0.778522    11A     -0.672616    12A     -0.624424
      13A     -0.622727    14A     -0.576057    15A     -0.557500
      16A     -0.532946    17A     -0.517050    18A     -0.511352
      19A     -0.504490    20A     -0.459013    21A     -0.428422

  @DF-RHF Final Energy:  -232.24664732578114

   => Energetics <=

    Nuclear Repulsion Energy =            200.6732043568648862
    One-Electron Energy =                -712.7531960422800239
    Two-Electron Energy =                 279.8333443596338839
    DFT Exchange-Correlation Energy =       0.0000000000000000
    Empirical Dispersion Energy =           0.0000000000000000
    PCM Polarization Energy =               0.0000000000000000
    EFP Energy =                            0.0000000000000000
    Total Energy =                       -232.2466473257812822
    Molecular point group: c1
  Basis Set: CC-PVTZ
  Basis Set:

  -Total Gradient:
     Atom            X                  Y                   Z
    ------   -----------------  -----------------  -----------------
       1        0.000022843095     0.000964679784    -0.000044564357
       2       -0.000193192827    -0.001312788398     0.000001898696
       3        0.000645105509     0.000716343045    -0.000065066627
       4       -0.000447949219    -0.000367565769     0.000051483515
       5       -0.000002597211     0.000013572589     0.000024417567
       6       -0.000023463038    -0.000022792022     0.000014600335
       7        0.000008136196    -0.000005960978     0.000007196109
       8       -0.000007802804     0.000006627693     0.000001912551
       9       -0.000002058925    -0.000002581575     0.000000930023
      10       -0.000004048602    -0.000004243302     0.000003134067
      11        0.000007407785     0.000006764893    -0.000002738362
      12        0.000003747885     0.000002433608    -0.000000492848
      13        0.000003697273     0.000010410128     0.000007621493
      14       -0.000007499351    -0.000009570913    -0.000002785498
      15       -0.000002325766     0.000004671217     0.000002453340

  **** Optimization is complete! (in 6 steps) ****
    Final optimized geometry and variables:
    Molecular point group: c1

    Geometry (in Angstrom), charge = 0, multiplicity = 1:

    H           -0.849913786372     0.087426034933     1.726320838291
    O            0.026377546359     0.051097751306     1.387458609006
    C           -0.000896321931    -0.001506206588    -0.025391109672
    C           -0.904981214678     1.105068801904    -0.563961964319
    C            1.439955033287     0.212010581857    -0.468142538577
    C           -0.505489624040    -1.373188069123    -0.470834786079
    H           -0.916550713986     1.108944908355    -1.647491566304
    H           -0.562105905909     2.073260095824    -0.220340597503
    H           -1.927151643399     0.966813348261    -0.223892599032
    H            1.523592194473     0.166660126177    -1.547612206888
    H            1.796775178522     1.177831652324    -0.133374107205
    H            2.078733380425    -0.550605562794    -0.040735005607
    H           -0.506025688537    -1.460882020200    -1.551361954052
    H           -1.519725842927    -1.540633642697    -0.122335127463
    H            0.123351123341    -2.153762686054    -0.061584424281

  Mulliken Charges: (a.u.)
   Center  Symbol    Alpha    Beta     Spin     Total
       1     H     0.39548  0.39548  0.00000  0.20905
       2     O     4.21134  4.21134  0.00000 -0.42268
       3     C     2.87840  2.87840  0.00000  0.24319
       4     C     3.15223  3.15223  0.00000 -0.30445
       5     C     3.14283  3.14283  0.00000 -0.28565
       6     C     3.14835  3.14835  0.00000 -0.29670
       7     H     0.45451  0.45451  0.00000  0.09099
       8     H     0.44589  0.44589  0.00000  0.10821
       9     H     0.45627  0.45627  0.00000  0.08747
      10     H     0.45876  0.45876  0.00000  0.08247
      11     H     0.44923  0.44923  0.00000  0.10154
      12     H     0.44764  0.44764  0.00000  0.10473
      13     H     0.45647  0.45647  0.00000  0.08707
      14     H     0.45546  0.45546  0.00000  0.08908
      15     H     0.44716  0.44716  0.00000  0.10568

   Total alpha = 21.00000, Total beta = 21.00000, Total charge =  0.00000
