                              Psi4 1.0.54 Driver

  ==> Input File <==

--------------------------------------------------------------------------
set {
	reference rhf
	basis cc-pvtz
}

set_num_threads( 4 )
memory 2 gb

molecule MOL {
0 1

H	 -3.294565	 0.569785	 0.000000
C	 -2.246225	 0.343737	 0.000000
C	 -1.809462	 -0.973484	 0.000000
C	 -1.312577	 1.353775	 0.000000
H	 -2.523539	 -1.775124	 0.000000
C	 -0.467257	 -1.267606	 0.000000
H	 -1.631287	 2.379013	 0.000000
C	 0.046966	 1.074396	 0.000000
H	 -0.119372	 -2.281828	 0.000000
C	 0.471772	 -0.241514	 0.000000
H	 0.748162	 1.882966	 0.000000
O	 1.760432	 -0.625184	 0.000000
C	 2.164179	 -1.711909	 -0.777287
H	 1.660874	 -2.624293	 -0.477371
H	 3.224394	 -1.825512	 -0.614793
H	 1.985214	 -1.534909	 -1.831967

	symmetry c1
}
set optking {
	frozen_dihedral = ("
		13 12 10 8
	")
}

ee,wfn = optimize('scf', return_wfn=True)
oeprop( wfn, 'DIPOLE', 'QUADRUPOLE', 'MULLIKEN_CHARGES')
f=open( 'psi4out.xyz', 'w' )
f.write( "16  " )
f.write( str(ee) + "\n" )
f.write( MOL.save_string_xyz() )
f.close()
--------------------------------------------------------------------------

    Molecular point group: c1
  Charge       = 0
  Multiplicity = 1
  Basis Set: CC-PVTZ
  Basis Set:
  @DF-RHF Final Energy:  -344.69513008749510
    Total Energy =                       -344.6951300874949879
    Molecular point group: c1
  Basis Set: CC-PVTZ
  Basis Set:
  Basis Set: CC-PVTZ
  Basis Set:
  @DF-RHF Final Energy:  -344.69795180283978
    Total Energy =                       -344.6979518028396114
  Basis Set: CC-PVTZ
  Basis Set:
  Basis Set: CC-PVTZ
  Basis Set:
  @DF-RHF Final Energy:  -344.70126722985367
    Total Energy =                       -344.7012672298540110
  Basis Set: CC-PVTZ
  Basis Set:
  Basis Set: CC-PVTZ
  Basis Set:
  @DF-RHF Final Energy:  -344.70162062371600
    Total Energy =                       -344.7016206237163374
  Basis Set: CC-PVTZ
  Basis Set:
  Basis Set: CC-PVTZ
  Basis Set:
  @DF-RHF Final Energy:  -344.70168860625085
    Total Energy =                       -344.7016886062504568
  Basis Set: CC-PVTZ
  Basis Set:
  Basis Set: CC-PVTZ
  Basis Set:
  @DF-RHF Final Energy:  -344.70169722653242
    Total Energy =                       -344.7016972265329287
  Basis Set: CC-PVTZ
  Basis Set:
  Charge       = 0
  Multiplicity = 1
  Basis Set: CC-PVTZ
  Basis Set:

    Orbital Energies (a.u.)
    -----------------------

    Doubly Occupied:

       1A    -20.573545     2A    -11.290168     3A    -11.276646
       4A    -11.231873     5A    -11.230578     6A    -11.223482
       7A    -11.219974     8A    -11.219739     9A     -1.412300
      10A     -1.151848    11A     -1.023697    12A     -1.017636
      13A     -0.940565    14A     -0.836360    15A     -0.809227
      16A     -0.722349    17A     -0.668782    18A     -0.666850
      19A     -0.652323    20A     -0.617717    21A     -0.593708
      22A     -0.583763    23A     -0.531212    24A     -0.516923
      25A     -0.509629    26A     -0.485210    27A     -0.454144
      28A     -0.339949    29A     -0.316016

  @DF-RHF Final Energy:  -344.70169787178446

   => Energetics <=

    Nuclear Repulsion Energy =            348.7197399734004080
    One-Electron Energy =               -1158.6104451371006689
    Two-Electron Energy =                 465.1890072919158001
    DFT Exchange-Correlation Energy =       0.0000000000000000
    Empirical Dispersion Energy =           0.0000000000000000
    PCM Polarization Energy =               0.0000000000000000
    EFP Energy =                            0.0000000000000000
    Total Energy =                       -344.7016978717844040
    Molecular point group: c1
  Basis Set: CC-PVTZ
  Basis Set:

  -Total Gradient:
     Atom            X                  Y                   Z
    ------   -----------------  -----------------  -----------------
       1       -0.000004034189    -0.000008941201    -0.000006639434
       2        0.000035741645     0.000121825233    -0.000033230369
       3        0.000071666915    -0.000081091228     0.000050873297
       4       -0.000119350066    -0.000040856633     0.000037119412
       5       -0.000008716246     0.000010224780    -0.000005450917
       6       -0.000084966335    -0.000026326965    -0.000020988580
       7        0.000006733321     0.000003469862    -0.000006565907
       8        0.000139487289    -0.000089417998    -0.001638757837
       9        0.000013143401    -0.000001432309    -0.000004134894
      10        0.000021953444     0.000618549541     0.001746876316
      11        0.000002864725    -0.000001218716    -0.000005738588
      12       -0.000299159696    -0.001589435139     0.001103120345
      13        0.000241647033     0.001083976425    -0.001286144313
      14        0.000003248062     0.000005820355    -0.000003471744
      15       -0.000036922816    -0.000006938124    -0.000003619273
      16        0.000016663512     0.000001792115     0.000076752486

  **** Optimization is complete! (in 7 steps) ****
    Final optimized geometry and variables:
    Molecular point group: c1

    Geometry (in Angstrom), charge = 0, multiplicity = 1:

    H           -3.192755181735     0.963880505290     0.106408391540
    C           -2.156177859850     0.688196464233     0.106445873715
    C           -1.786991080594    -0.640999782421     0.098691710843
    C           -1.171815454675     1.660979509221     0.113592692303
    H           -2.539523388383    -1.406628961264     0.094666693496
    C           -0.452198659077    -1.006572579261     0.100734524939
    H           -1.443427119403     2.699557859344     0.115867785869
    C            0.161433778032     1.309728750439     0.107682400274
    H           -0.183820296462    -2.043999541807     0.104031337679
    C            0.525367479356    -0.027180491084     0.108606621777
    H            0.932875354083     2.054438930804     0.109281328339
    O            1.847596965454    -0.304432685942     0.136185119729
    C            2.332796796104    -1.358491563475    -0.647458193000
    H            2.092530701799    -2.324451949454    -0.219148729668
    H            3.406364742146    -1.252552575185    -0.677155027143
    H            1.938708738647    -1.308306717882    -1.655946539016

  Mulliken Charges: (a.u.)
   Center  Symbol    Alpha    Beta     Spin     Total
       1     H     0.42405  0.42405  0.00000  0.15191
       2     C     3.09535  3.09535  0.00000 -0.19070
       3     C     3.06250  3.06250  0.00000 -0.12501
       4     C     3.06174  3.06174  0.00000 -0.12349
       5     H     0.42272  0.42272  0.00000  0.15456
       6     C     3.12361  3.12361  0.00000 -0.24722
       7     H     0.42256  0.42256  0.00000  0.15488
       8     C     3.11132  3.11132  0.00000 -0.22264
       9     H     0.42356  0.42356  0.00000  0.15288
      10     C     2.86061  2.86061  0.00000  0.27877
      11     H     0.41885  0.41885  0.00000  0.16231
      12     O     4.16403  4.16403  0.00000 -0.32806
      13     C     3.04437  3.04437  0.00000 -0.08874
      14     H     0.46192  0.46192  0.00000  0.07616
      15     H     0.44164  0.44164  0.00000  0.11672
      16     H     0.46117  0.46117  0.00000  0.07767

   Total alpha = 29.00000, Total beta = 29.00000, Total charge =  0.00000

*** Psi4 exiting successfully. Buy a developer a beer!
