  ==> Input File <==

--------------------------------------------------------------------------
set {
	reference rhf
	basis 6-31G*
}

set_num_threads( 1 )
memory 2 gb

molecule MOL {
0 1

H	 4.600978	 0.379382	 0.374254
C	 3.749437	 -0.281929	 0.250577
C	 2.441352	 0.506955	 0.211346
H	 3.897854	 -0.841806	 -0.668519
H	 3.759653	 -0.990384	 1.074127
C	 1.217350	 -0.386724	 0.039429
H	 2.461432	 1.225898	 -0.601738
H	 2.339828	 1.081453	 1.130605
N	 0.000003	 0.397874	 -0.023260
H	 1.306073	 -0.940980	 -0.891104
H	 1.192141	 -1.131669	 0.841800
C	 -1.217365	 -0.386708	 0.039277
H	 -0.000031	 1.072115	 0.718656
C	 -2.452633	 0.504241	 -0.042481
H	 -1.215291	 -1.074557	 -0.802042
H	 -1.269739	 -1.003477	 0.942735
C	 -3.758029	 -0.289423	 -0.010781
H	 -2.394220	 1.093569	 -0.952170
H	 -2.440793	 1.210787	 0.785871
H	 -3.816659	 -0.981993	 -0.845726
H	 -4.617837	 0.370165	 -0.069296
H	 -3.847478	 -0.867502	 0.904682

	symmetry c1
}
set optking {
	frozen_dihedral = ("
		15 12 14 18
	")
}

ee = energy('scf')
oeprop('DIPOLE', 'QUADRUPOLE', 'MULLIKEN_CHARGES')
f=open( 'psi4out.xyz', 'w' )
f.write( "22  " )
f.write( str(ee) + "\n" )
f.write( MOL.save_string_xyz() )
f.close()
--------------------------------------------------------------------------

    Molecular point group: c1

    Geometry (in Angstrom), charge = 0, multiplicity = 1:

       Center              X                  Y                   Z               Mass
    ------------   -----------------  -----------------  -----------------  -----------------
           H          4.603777117192     0.377814989021     0.300282564891     1.007825032070
           C          3.752236117192    -0.283496010979     0.176605564891    12.000000000000
           C          2.444151117192     0.505387989021     0.137374564891    12.000000000000
           H          3.900653117192    -0.843373010979    -0.742490435109     1.007825032070
           H          3.762452117192    -0.991951010979     1.000155564891     1.007825032070
           C          1.220149117192    -0.388291010979    -0.034542435109    12.000000000000
           H          2.464231117192     1.224330989021    -0.675709435109     1.007825032070
           H          2.342627117192     1.079885989021     1.056633564891     1.007825032070
           N          0.002802117192     0.396306989021    -0.097231435109    14.003074004780
           H          1.308872117192    -0.942547010979    -0.965075435109     1.007825032070
           H          1.194940117192    -1.133236010979     0.767828564891     1.007825032070
           C         -1.214565882808    -0.388275010979    -0.034694435109    12.000000000000
           H          0.002768117192     1.070547989021     0.644684564891     1.007825032070
           C         -2.449833882808     0.502673989021    -0.116452435109    12.000000000000
           H         -1.212491882808    -1.076124010979    -0.876013435109     1.007825032070
           H         -1.266939882808    -1.005044010979     0.868763564891     1.007825032070
           C         -3.755229882808    -0.290990010979    -0.084752435109    12.000000000000
           H         -2.391420882808     1.092001989021    -1.026141435109     1.007825032070
           H         -2.437993882808     1.209219989021     0.711899564891     1.007825032070
           H         -3.813859882808    -0.983560010979    -0.919697435109     1.007825032070
           H         -4.615037882808     0.368597989021    -0.143267435109     1.007825032070
           H         -3.844678882808    -0.869069010979     0.830710564891     1.007825032070

  Charge       = 0
  Multiplicity = 1
  Basis Set: 6-31G*
  Basis Set:

    Orbital Energies (a.u.)
    -----------------------

    Doubly Occupied:

       1A    -15.533239     2A    -11.237739     3A    -11.237687
       4A    -11.215360     5A    -11.213344     6A    -11.210694
       7A    -11.209570     8A     -1.205481     9A     -1.059729
      10A     -1.026170    11A     -0.928340    12A     -0.868041
      13A     -0.812349    14A     -0.794214    15A     -0.666781
      16A     -0.627326    17A     -0.615175    18A     -0.614069
      19A     -0.573470    20A     -0.563317    21A     -0.532080
      22A     -0.527571    23A     -0.515113    24A     -0.485669
      25A     -0.482504    26A     -0.474755    27A     -0.466687
      28A     -0.450367    29A     -0.359029

  @DF-RHF Final Energy:  -290.38287250662023

   => Energetics <=

    Nuclear Repulsion Energy =            313.2623711452548037
    One-Electron Energy =               -1012.2787555294597723
    Two-Electron Energy =                 408.6335118775839419
    DFT Exchange-Correlation Energy =       0.0000000000000000
    Empirical Dispersion Energy =           0.0000000000000000
    PCM Polarization Energy =               0.0000000000000000
    EFP Energy =                            0.0000000000000000
    Total Energy =                       -290.3828725066209699

  Mulliken Charges: (a.u.)
   Center  Symbol    Alpha    Beta     Spin     Total
       1     H     0.41763  0.41763  0.00000  0.16473
       2     C     3.24283  3.24283  0.00000 -0.48567
       3     C     3.15972  3.15972  0.00000 -0.31945
       4     H     0.42013  0.42013  0.00000  0.15973
       5     H     0.42123  0.42123  0.00000  0.15753
       6     C     3.04319  3.04319  0.00000 -0.08637
       7     H     0.41283  0.41283  0.00000  0.17433
       8     H     0.42657  0.42657  0.00000  0.14686
       9     N     3.85899  3.85899  0.00000 -0.71798
      10     H     0.42154  0.42154  0.00000  0.15691
      11     H     0.43645  0.43645  0.00000  0.12709
      12     C     3.04699  3.04699  0.00000 -0.09397
      13     H     0.33536  0.33536  0.00000  0.32929
      14     C     3.15553  3.15553  0.00000 -0.31106
      15     H     0.42185  0.42185  0.00000  0.15631
      16     H     0.43604  0.43604  0.00000  0.12791
      17     C     3.24324  3.24324  0.00000 -0.48647
      18     H     0.41296  0.41296  0.00000  0.17408
      19     H     0.42672  0.42672  0.00000  0.14655
      20     H     0.42068  0.42068  0.00000  0.15864
      21     H     0.41777  0.41777  0.00000  0.16446
      22     H     0.42173  0.42173  0.00000  0.15654

   Total alpha = 29.00000, Total beta = 29.00000, Total charge = -0.00000
