  ==> Input File <==

--------------------------------------------------------------------------
set {
	reference rhf
	basis 6-31G*
}

set_num_threads( 4 )
memory 2 gb

molecule MOL {
0 1

O	 -2.042549	 -1.228399	 -0.269030
C	 -1.653912	 -0.146171	 0.050137
C	 -0.332303	 0.024011	 0.778412
C	 -2.438579	 1.106236	 -0.272369
C	 -0.559208	 0.476044	 2.229637
H	 0.232915	 -0.903732	 0.764153
H	 0.240315	 0.777587	 0.249116
C	 0.749674	 0.689311	 2.991462
H	 -1.163365	 -0.261786	 2.754692
H	 -1.133195	 1.397768	 2.219349
C	 0.527180	 1.147508	 4.432211
H	 1.323648	 -0.234798	 2.989991
H	 1.353171	 1.426008	 2.466451
H	 -0.045390	 0.414584	 4.993494
H	 -0.016587	 2.087031	 4.464739
H	 1.471655	 1.293530	 4.946674
H	 -3.277823	 0.863061	 -0.908988
H	 -1.806773	 1.843019	 -0.759671
H	 -2.802853	 1.554979	 0.648059

	symmetry c1
}
set optking {
	frozen_dihedral = ("
		5 3 2 4
	")
}

ee = optimize('scf')
oeprop('DIPOLE', 'QUADRUPOLE', 'MULLIKEN_CHARGES')
f=open( 'psi4out.xyz', 'w' )
f.write( "19  " )
f.write( str(ee) + "\n" )
f.write( MOL.save_string_xyz() )
f.close()
--------------------------------------------------------------------------

    Molecular point group: c1
  Charge       = 0
  Multiplicity = 1
  Basis Set: 6-31G*
  Basis Set:
  @DF-RHF Final Energy:  -309.06376874083514
    Total Energy =                       -309.0637687408352576
    Molecular point group: c1
  Basis Set: 6-31G*
  Basis Set:
  Basis Set: 6-31G*
  Basis Set:
  @DF-RHF Final Energy:  -309.06388630152361
    Total Energy =                       -309.0638863015234961
  Basis Set: 6-31G*
  Basis Set:
  Basis Set: 6-31G*
  Basis Set:
  @DF-RHF Final Energy:  -309.06451682355703
    Total Energy =                       -309.0645168235568008
  Basis Set: 6-31G*
  Basis Set:
  Basis Set: 6-31G*
  Basis Set:
  @DF-RHF Final Energy:  -309.06466271092984
    Total Energy =                       -309.0646627109298379
  Basis Set: 6-31G*
  Basis Set:
  @DF-RHF Final Energy:  -309.06467768338689
    Total Energy =                       -309.0646776833868330
  Basis Set: 6-31G*
  Basis Set:
  @DF-RHF Final Energy:  -309.06468280717138
    Total Energy =                       -309.0646828071716072
  Basis Set: 6-31G*
  Basis Set:
  Basis Set: 6-31G*
  Basis Set:
  @DF-RHF Final Energy:  -309.06468242009242
    Total Energy =                       -309.0646824200924243
  Basis Set: 6-31G*
  Basis Set:
  Basis Set: 6-31G*
  Basis Set:
  @DF-RHF Final Energy:  -309.06468545171015
    Total Energy =                       -309.0646854517098063
  Basis Set: 6-31G*
  Basis Set:
  Charge       = 0
  Multiplicity = 1
  Basis Set: 6-31G*
  Basis Set:

    Orbital Energies (a.u.)
    -----------------------

    Doubly Occupied:

       1A    -20.548238     2A    -11.324386     3A    -11.233218
       4A    -11.229667     5A    -11.227428     6A    -11.226562
       7A    -11.216602     8A     -1.393314     9A     -1.093641
      10A     -1.029080    11A     -0.982528    12A     -0.892921
      13A     -0.809221    14A     -0.733283    15A     -0.664358
      16A     -0.645364    17A     -0.624783    18A     -0.613668
      19A     -0.581641    20A     -0.574910    21A     -0.554308
      22A     -0.534846    23A     -0.507153    24A     -0.505992
      25A     -0.484814    26A     -0.477331    27A     -0.470446
      28A     -0.397188

  @DF-RHF Final Energy:  -309.06468587544720

   => Energetics <=

    Nuclear Repulsion Energy =            301.0773781288077657
    One-Electron Energy =               -1015.1303468844594136
    Two-Electron Energy =                 404.9882828802048493
    DFT Exchange-Correlation Energy =       0.0000000000000000
    Empirical Dispersion Energy =           0.0000000000000000
    PCM Polarization Energy =               0.0000000000000000
    EFP Energy =                            0.0000000000000000
    Total Energy =                       -309.0646858754467416
    Molecular point group: c1
  Basis Set: 6-31G*
  Basis Set:

  -Total Gradient:
     Atom            X                  Y                   Z
    ------   -----------------  -----------------  -----------------
       1       -0.000027044141    -0.000012996169    -0.000003562502
       2        0.000093280873     0.000036548172    -0.000122388230
       3       -0.000016547408    -0.000117942061     0.000102090791
       4       -0.000023208842     0.000001796015     0.000065849931
       5        0.000009461305     0.000074003948    -0.000031132111
       6       -0.000006871742    -0.000002410949    -0.000008467931
       7        0.000001318104     0.000004756413    -0.000002651116
       8       -0.000000709444     0.000016341046    -0.000011231066
       9       -0.000009556604     0.000002603268    -0.000012272405
      10        0.000001580872     0.000009643676     0.000011179502
      11       -0.000003920356     0.000000691206     0.000000041282
      12       -0.000008426717    -0.000001359199    -0.000005101176
      13        0.000004987078    -0.000000706273     0.000001230971
      14       -0.000000127746     0.000000135529     0.000001199287
      15       -0.000000265492    -0.000000972661    -0.000000038956
      16        0.000000306418    -0.000001447256    -0.000000640558
      17       -0.000003036194    -0.000003760601     0.000003580888
      18       -0.000007333669     0.000010584039     0.000005876703
      19       -0.000003886293    -0.000015508143     0.000006436696

  **** Optimization is complete! (in 9 steps) ****
    Final optimized geometry and variables:
    Molecular point group: c1

    Geometry (in Angstrom), charge = 0, multiplicity = 1:

    O           -1.175656368083    -1.550594386463    -1.690090930532
    C           -0.819157526849    -0.450115270004    -1.396506930137
    C            0.480933370625    -0.219307380640    -0.647176116705
    C           -1.657153355890     0.763066817671    -1.745898576485
    C            0.263232170509     0.234895538001     0.804589465118
    H            1.029180401802    -1.153460648781    -0.665842181130
    H            1.070020476018     0.528082721009    -1.174363549991
    C            1.577629788567     0.367717237683     1.575979235419
    H           -0.380533413890    -0.481678667143     1.309495533014
    H           -0.257440279754     1.189141918097     0.823024304673
    C            1.373009075007     0.818842417476     3.021501648116
    H            2.097443238945    -0.587086285296     1.564622132308
    H            2.225316962413     1.075773702131     1.063586397767
    H            0.754937074336     0.112949416437     3.568619277087
    H            0.885508718398     1.788647588138     3.065388308384
    H            2.321122602989     0.901752495838     3.543142424546
    H           -2.471065945873     0.464127854768    -2.391664063929
    H           -1.056774743047     1.521998276241    -2.237925553949
    H           -2.067588996335     1.208781259818    -0.844740499322

  Mulliken Charges: (a.u.)
   Center  Symbol    Alpha    Beta     Spin     Total
       1     O     4.26005  4.26005  0.00000 -0.52010
       2     C     2.73592  2.73592  0.00000  0.52817
       3     C     3.20257  3.20257  0.00000 -0.40513
       4     C     3.28994  3.28994  0.00000 -0.57988
       5     C     3.16358  3.16358  0.00000 -0.32716
       6     H     0.39951  0.39951  0.00000  0.20098
       7     H     0.41474  0.41474  0.00000  0.17051
       8     C     3.15159  3.15159  0.00000 -0.30319
       9     H     0.41210  0.41210  0.00000  0.17580
      10     H     0.41981  0.41981  0.00000  0.16039
      11     C     3.24041  3.24041  0.00000 -0.48081
      12     H     0.41820  0.41820  0.00000  0.16360
      13     H     0.42153  0.42153  0.00000  0.15693
      14     H     0.41931  0.41931  0.00000  0.16138
      15     H     0.42125  0.42125  0.00000  0.15751
      16     H     0.41682  0.41682  0.00000  0.16635
      17     H     0.39624  0.39624  0.00000  0.20753
      18     H     0.41084  0.41084  0.00000  0.17831
      19     H     0.40559  0.40559  0.00000  0.18882

   Total alpha = 28.00000, Total beta = 28.00000, Total charge =  0.00000
