  ==> Input File <==

--------------------------------------------------------------------------
set {
	reference rhf
	basis cc-pvtz
}

set_num_threads( 4 )
memory 2 gb

molecule MOL {
0 1

H	 -0.000342	 -0.223902	 -3.352295
C	 -0.027146	 0.371068	 -2.446756
C	 0.024493	 -0.518541	 -1.216015
H	 -0.932586	 0.964979	 -2.449855
H	 0.819708	 1.049865	 -2.473332
N	 -0.042516	 0.263377	 -0.000000
H	 -0.822211	 -1.197105	 -1.225584
H	 0.921114	 -1.142847	 -1.255206
C	 0.024493	 -0.518541	 1.216015
H	 0.682568	 0.950412	 -0.000000
C	 1.422430	 -0.493504	 1.810942
H	 -0.677593	 -0.094630	 1.926525
H	 -0.285063	 -1.554892	 1.056721
H	 1.729615	 0.523717	 2.019414
H	 1.457713	 -1.061658	 2.733257
H	 2.145049	 -0.929109	 1.127785

	symmetry c1
}
set optking {
	frozen_dihedral = ("
		12 9 6 3
	")
}

ee = optimize('scf')
oeprop('DIPOLE', 'QUADRUPOLE', 'MULLIKEN_CHARGES')
f=open( 'psi4out.xyz', 'w' )
f.write( "16  " )
f.write( str(ee) + "\n" )
f.write( MOL.save_string_xyz() )
f.close()
--------------------------------------------------------------------------

    Molecular point group: c1
  Charge       = 0
  Multiplicity = 1
  Basis Set: CC-PVTZ
  Basis Set:
  @DF-RHF Final Energy:  -212.38873908256829
    Total Energy =                       -212.3887390825684065
    Molecular point group: c1
  Basis Set: CC-PVTZ
  Basis Set:
  Basis Set: CC-PVTZ
  Basis Set:
  @DF-RHF Final Energy:  -212.39000364453500
    Total Energy =                       -212.3900036445347723
  Basis Set: CC-PVTZ
  Basis Set:
  Basis Set: CC-PVTZ
  Basis Set:
  @DF-RHF Final Energy:  -212.39020001518290
    Total Energy =                       -212.3902000151829270
  Basis Set: CC-PVTZ
  Basis Set:
  Basis Set: CC-PVTZ
  Basis Set:
  @DF-RHF Final Energy:  -212.39021376063195
    Total Energy =                       -212.3902137606319798
  Basis Set: CC-PVTZ
  Basis Set:
  Charge       = 0
  Multiplicity = 1
  Basis Set: CC-PVTZ
  Basis Set:

    Orbital Energies (a.u.)
    -----------------------

    Doubly Occupied:

       1A    -15.525100     2A    -11.239196     3A    -11.238554
       4A    -11.209067     5A    -11.206199     6A     -1.203009
       7A     -1.027394     8A     -0.964893     9A     -0.841250
      10A     -0.820131    11A     -0.645347    12A     -0.629076
      13A     -0.621347    14A     -0.571550    15A     -0.557809
      16A     -0.526705    17A     -0.508587    18A     -0.493994
      19A     -0.488876    20A     -0.473556    21A     -0.353535

  @DF-RHF Final Energy:  -212.39021551831874

   => Energetics <=

    Nuclear Repulsion Energy =            190.4692975650835649
    One-Electron Energy =                -663.4286750195378772
    Two-Electron Energy =                 260.5691619361355151
    DFT Exchange-Correlation Energy =       0.0000000000000000
    Empirical Dispersion Energy =           0.0000000000000000
    PCM Polarization Energy =               0.0000000000000000
    EFP Energy =                            0.0000000000000000
    Total Energy =                       -212.3902155183187688
    Molecular point group: c1
  Basis Set: CC-PVTZ
  Basis Set:

  -Total Gradient:
     Atom            X                  Y                   Z
    ------   -----------------  -----------------  -----------------
       1        0.000001676285     0.000002934636     0.000006456459
       2        0.000001636708     0.000003698676     0.000016841336
       3       -0.002002178319    -0.000322079093    -0.000026405059
       4       -0.000005545156    -0.000004341898     0.000003700422
       5        0.000008617055    -0.000001439116    -0.000000560670
       6        0.002405415142     0.000006314570    -0.000271116443
       7       -0.000003262508     0.000012974197     0.000003063155
       8       -0.000013325647     0.000032523362     0.000013181708
       9        0.001510692163     0.001950639544     0.001132148762
      10       -0.000006831596    -0.000036352796     0.000039002381
      11       -0.000065581086     0.000000766115    -0.000083128650
      12       -0.001790011643    -0.001628556402    -0.000855725862
      13       -0.000009753041    -0.000017152847    -0.000023954135
      14        0.000001089974    -0.000017014756    -0.000006092956
      15       -0.000005695782    -0.000012734548     0.000030285947
      16       -0.000026942548     0.000029820356     0.000022303608

  **** Optimization is complete! (in 5 steps) ****
    Final optimized geometry and variables:
    Molecular point group: c1

    Geometry (in Angstrom), charge = 0, multiplicity = 1:

    H           -0.304441071906    -0.047563392366    -3.235063289271
    C           -0.335763412357     0.544880036869    -2.328060780303
    C           -0.270557518648    -0.347314926078    -1.099954026198
    H           -1.248422437057     1.127894788794    -2.326736335737
    H            0.503146815798     1.233514575150    -2.355267599011
    N           -0.356265468261     0.435882681952     0.114656179345
    H           -1.107143473669    -1.037285455855    -1.114281907578
    H            0.635815205335    -0.956444312679    -1.147220204889
    C           -0.258357339954    -0.306932215150     1.359486781040
    H            0.299132479795     1.187014999217     0.096780997472
    C            1.137395532833    -0.336927918172     1.971972115427
    H           -0.965540198503     0.099250093227     2.075784091805
    H           -0.587325431959    -1.322970911636     1.170383363967
    H            1.477149995864     0.667037144439     2.206490145232
    H            1.144775320527    -0.909794644790     2.892922938843
    H            1.855732284080    -0.783001166771     1.292809362100

  Mulliken Charges: (a.u.)
   Center  Symbol    Alpha    Beta     Spin     Total
       1     H     0.45378  0.45378  0.00000  0.09244
       2     C     3.14349  3.14349  0.00000 -0.28698
       3     C     3.01990  3.01990  0.00000 -0.03979
       4     H     0.44941  0.44941  0.00000  0.10118
       5     H     0.45950  0.45950  0.00000  0.08100
       6     N     3.64146  3.64146  0.00000 -0.28293
       7     H     0.45804  0.45804  0.00000  0.08392
       8     H     0.47583  0.47583  0.00000  0.04834
       9     C     3.03137  3.03137  0.00000 -0.06275
      10     H     0.44418  0.44418  0.00000  0.11164
      11     C     3.14729  3.14729  0.00000 -0.29457
      12     H     0.45219  0.45219  0.00000  0.09563
      13     H     0.46043  0.46043  0.00000  0.07915
      14     H     0.45759  0.45759  0.00000  0.08483
      15     H     0.45226  0.45226  0.00000  0.09547
      16     H     0.45330  0.45330  0.00000  0.09340

   Total alpha = 21.00000, Total beta = 21.00000, Total charge = -0.00000
