  ==> Input File <==

--------------------------------------------------------------------------
set {
	reference rhf
	basis 6-31G*
}

set_num_threads( 4 )
memory 2 gb

molecule MOL {
0 1

H	 3.407966	 1.184061	 0.331376
O	 2.488735	 1.059172	 0.546257
C	 2.077727	 -0.067559	 -0.035091
C	 0.624473	 -0.343591	 0.253101
O	 2.803748	 -0.740503	 -0.691639
C	 -0.265902	 0.883932	 0.072916
H	 0.324016	 -1.163849	 -0.390541
H	 0.565024	 -0.726111	 1.268924
C	 -1.728698	 0.646073	 0.462102
H	 -0.209144	 1.219470	 -0.958188
H	 0.135059	 1.692851	 0.673903
C	 -2.482460	 -0.343073	 -0.431425
H	 -2.245265	 1.602650	 0.432430
H	 -1.779332	 0.308348	 1.496285
C	 -3.960546	 -0.461025	 -0.060175
H	 -2.395034	 -0.026811	 -1.468912
H	 -2.024850	 -1.327147	 -0.371646
H	 -4.472726	 -1.168004	 -0.705284
H	 -4.465146	 0.496508	 -0.151489
H	 -4.081218	 -0.800940	 0.964585

	symmetry c1
}
set optking {
	frozen_dihedral = ("
		5 3 4 7
	")
}

ee = optimize('scf')
oeprop('DIPOLE', 'QUADRUPOLE', 'MULLIKEN_CHARGES')
f=open( 'psi4out.xyz', 'w' )
f.write( "20  " )
f.write( str(ee) + "\n" )
f.write( MOL.save_string_xyz() )
f.close()
--------------------------------------------------------------------------

    Molecular point group: c1
  Charge       = 0
  Multiplicity = 1
  Basis Set: 6-31G*
  Basis Set:
  @DF-RHF Final Energy:  -383.94654908392397
    Total Energy =                       -383.9465490839245376
    Molecular point group: c1
  Basis Set: 6-31G*
  Basis Set:
  Basis Set: 6-31G*
  Basis Set:
  @DF-RHF Final Energy:  -383.94549831161794
    Total Energy =                       -383.9454983116179960
  Basis Set: 6-31G*
  Basis Set:
  Basis Set: 6-31G*
  Basis Set:
  @DF-RHF Final Energy:  -383.94679914830363
    Total Energy =                       -383.9467991483034552
  Basis Set: 6-31G*
  Basis Set:
  Basis Set: 6-31G*
  Basis Set:
  @DF-RHF Final Energy:  -383.94704666889072
    Total Energy =                       -383.9470466688910051
  Basis Set: 6-31G*
  Basis Set:
  Basis Set: 6-31G*
  Basis Set:
  @DF-RHF Final Energy:  -383.94692154221133
    Total Energy =                       -383.9469215422116690
  Basis Set: 6-31G*
  Basis Set:
  Basis Set: 6-31G*
  Basis Set:
  @DF-RHF Final Energy:  -383.94705841404596
    Total Energy =                       -383.9470584140460687
  Basis Set: 6-31G*
  Basis Set:
  Charge       = 0
  Multiplicity = 1
  Basis Set: 6-31G*
  Basis Set:

    Orbital Energies (a.u.)
    -----------------------

    Doubly Occupied:

       1A    -20.613325     2A    -20.549353     3A    -11.380226
       4A    -11.239309     5A    -11.229911     6A    -11.223523
       7A    -11.221412     8A    -11.213307     9A     -1.474369
      10A     -1.364096    11A     -1.098690    12A     -1.041795
      13A     -0.960147    14A     -0.862766    15A     -0.824480
      16A     -0.790591    17A     -0.700241    18A     -0.685640
      19A     -0.646534    20A     -0.637662    21A     -0.612986
      22A     -0.591988    23A     -0.577976    24A     -0.552943
      25A     -0.541246    26A     -0.519903    27A     -0.500780
      28A     -0.482359    29A     -0.476384    30A     -0.468766
      31A     -0.458988    32A     -0.434304

  @DF-RHF Final Energy:  -383.94705938678533

   => Energetics <=

    Nuclear Repulsion Energy =            376.3777024657159700
    One-Electron Energy =               -1268.6975272910694912
    Two-Electron Energy =                 508.3727654385685355
    DFT Exchange-Correlation Energy =       0.0000000000000000
    Empirical Dispersion Energy =           0.0000000000000000
    PCM Polarization Energy =               0.0000000000000000
    EFP Energy =                            0.0000000000000000
    Total Energy =                       -383.9470593867849857
    Molecular point group: c1
  Basis Set: 6-31G*
  Basis Set:

  -Total Gradient:
     Atom            X                  Y                   Z
    ------   -----------------  -----------------  -----------------
       1       -0.000014177896    -0.000017053432    -0.000005824332
       2       -0.000030646289     0.000030110684     0.000020851497
       3       -0.000368865490     0.000755303552    -0.001230592056
       4        0.000364078383    -0.000770566107     0.001060444709
       5        0.000240567015    -0.000471770948     0.000739549800
       6        0.000013942713    -0.000038188690     0.000039987022
       7       -0.000244684243     0.000517087323    -0.000611618466
       8        0.000003705983    -0.000018494722     0.000001672423
       9       -0.000003119436     0.000002869459    -0.000028499236
      10       -0.000002363095    -0.000020913013     0.000008203409
      11       -0.000022008476     0.000014115379     0.000011056024
      12        0.000013691287     0.000021150839    -0.000008957073
      13        0.000008258189     0.000012378294    -0.000001742662
      14        0.000021449086    -0.000008057709    -0.000005292930
      15        0.000000526520     0.000003223130     0.000016660875
      16        0.000003786067     0.000001107143    -0.000008509966
      17        0.000016040767    -0.000010042063     0.000002401264
      18        0.000003260175    -0.000003820295     0.000001490718
      19       -0.000000681800    -0.000002097261    -0.000004148464
      20       -0.000002759464     0.000003658438     0.000002867439

  **** Optimization is complete! (in 7 steps) ****
    Final optimized geometry and variables:
    Molecular point group: c1

    Geometry (in Angstrom), charge = 0, multiplicity = 1:

    H            3.484424414190     1.033066379410     0.271122148801
    O            2.564613707329     0.956668539848     0.505635354459
    C            2.088191715099    -0.151893022650    -0.060124717235
    C            0.638204874760    -0.402733791397     0.268488504193
    O            2.772627669522    -0.862451001270    -0.722492945511
    C           -0.266025414372     0.822861020232     0.081721695315
    H            0.324287447608    -1.229558518655    -0.352519341703
    H            0.599961658288    -0.730669636279     1.304862015232
    C           -1.729705890256     0.565365088349     0.455796820151
    H           -0.211265351922     1.155749197265    -0.952429798618
    H            0.115473710036     1.635318589641     0.688932381492
    C           -2.466101542426    -0.424019334861    -0.451546962075
    H           -2.255735490754     1.516985338328     0.430386177027
    H           -1.782154434049     0.218938089278     1.486835235611
    C           -3.944856382128    -0.561274737916    -0.089684544728
    H           -2.376194439217    -0.097148712095    -1.485465786450
    H           -1.997880097749    -1.403015363982    -0.398402562198
    H           -4.444878261167    -1.268575886238    -0.743752435709
    H           -4.459988397919     0.391150058638    -0.176008740714
    H           -4.067673218939    -0.911336507765     0.931386083436

  Mulliken Charges: (a.u.)
   Center  Symbol    Alpha    Beta     Spin     Total
       1     H     0.26736  0.26736  0.00000  0.46528
       2     O     4.34744  4.34744  0.00000 -0.69489
       3     C     2.62642  2.62642  0.00000  0.74717
       4     C     3.20808  3.20808  0.00000 -0.41616
       5     O     4.28032  4.28032  0.00000 -0.56064
       6     C     3.16372  3.16372  0.00000 -0.32745
       7     H     0.39424  0.39424  0.00000  0.21151
       8     H     0.40146  0.40146  0.00000  0.19707
       9     C     3.15478  3.15478  0.00000 -0.30956
      10     H     0.41620  0.41620  0.00000  0.16760
      11     H     0.40347  0.40347  0.00000  0.19305
      12     C     3.15497  3.15497  0.00000 -0.30995
      13     H     0.41800  0.41800  0.00000  0.16400
      14     H     0.42236  0.42236  0.00000  0.15527
      15     C     3.23951  3.23951  0.00000 -0.47903
      16     H     0.42122  0.42122  0.00000  0.15755
      17     H     0.42070  0.42070  0.00000  0.15859
      18     H     0.41763  0.41763  0.00000  0.16475
      19     H     0.42096  0.42096  0.00000  0.15808
      20     H     0.42114  0.42114  0.00000  0.15773

   Total alpha = 32.00000, Total beta = 32.00000, Total charge =  0.00000
