                              Psi4 1.0.54 Driver

  ==> Input File <==

--------------------------------------------------------------------------
set {
	reference rhf
	basis cc-pvtz
}

set_num_threads( 4 )
memory 2 gb

molecule MOL {
0 1

O	 0.078314	 1.254444	 0.111770
C	 0.029490	 0.077183	 0.000078
C	 -1.232113	 -0.748027	 0.000015
O	 1.102259	 -0.683171	 -0.142260
C	 -2.501422	 0.088592	 -0.000052
H	 -1.188777	 -1.400384	 -0.865133
H	 -1.188857	 -1.400312	 0.865225
H	 -2.548170	 0.725504	 -0.873205
H	 -3.371613	 -0.556398	 -0.000040
H	 -2.548215	 0.725571	 0.873047
C	 2.358668	 -0.036033	 -0.159356
H	 2.416323	 0.662902	 -0.980575
H	 3.093365	 -0.815219	 -0.281483
H	 2.527201	 0.493552	 0.766594

	symmetry c1
}
set optking {
	frozen_dihedral = ("
		4 2 3 6
	")
}

ee,wfn = optimize('scf', return_wfn=True)
oeprop( wfn, 'DIPOLE', 'QUADRUPOLE', 'MULLIKEN_CHARGES')
f=open( 'psi4out.xyz', 'w' )
f.write( "14  " )
f.write( str(ee) + "\n" )
f.write( MOL.save_string_xyz() )
f.close()
--------------------------------------------------------------------------

    Molecular point group: c1
  Charge       = 0
  Multiplicity = 1
  Basis Set: CC-PVTZ
  Basis Set:
  @DF-RHF Final Energy:  -305.98765793747373
    Total Energy =                       -305.9876579374738412
    Molecular point group: c1
  Basis Set: CC-PVTZ
  Basis Set:
  Basis Set: CC-PVTZ
  Basis Set:
  @DF-RHF Final Energy:  -305.98765842087977
    Total Energy =                       -305.9876584208794839
  Basis Set: CC-PVTZ
  Basis Set:
  Basis Set: CC-PVTZ
  Basis Set:
  @DF-RHF Final Energy:  -305.98763560340041
    Total Energy =                       -305.9876356034004630
  Basis Set: CC-PVTZ
  Basis Set:
  Basis Set: CC-PVTZ
  Basis Set:
  @DF-RHF Final Energy:  -305.98767527196287
    Total Energy =                       -305.9876752719626438
  Basis Set: CC-PVTZ
  Basis Set:
  Charge       = 0
  Multiplicity = 1
  Basis Set: CC-PVTZ
  Basis Set:

    Orbital Energies (a.u.)
    -----------------------

    Doubly Occupied:

       1A    -20.597252     2A    -20.534903     3A    -11.365206
       4A    -11.279143     5A    -11.237198     6A    -11.214947
       7A     -1.473123     8A     -1.366706     9A     -1.065466
      10A     -0.981272    11A     -0.878992    12A     -0.771092
      13A     -0.702925    14A     -0.686083    15A     -0.675526
      16A     -0.621572    17A     -0.604221    18A     -0.546059
      19A     -0.538602    20A     -0.523039    21A     -0.516027
      22A     -0.497143    23A     -0.461336    24A     -0.442595

  @DF-RHF Final Energy:  -305.98767548437752

   => Energetics <=

    Nuclear Repulsion Energy =            247.5693203105012401
    One-Electron Energy =                -907.9531340073773436
    Two-Electron Energy =                 354.3961382124982720
    DFT Exchange-Correlation Energy =       0.0000000000000000
    Empirical Dispersion Energy =           0.0000000000000000
    PCM Polarization Energy =               0.0000000000000000
    EFP Energy =                            0.0000000000000000
    Total Energy =                       -305.9876754843778599
    Molecular point group: c1
  Basis Set: CC-PVTZ
  Basis Set:

  -Total Gradient:
     Atom            X                  Y                   Z
    ------   -----------------  -----------------  -----------------
       1        0.000009041914     0.000014548310    -0.000002799291
       2        0.000055965095    -0.000134731723     0.000419563486
       3       -0.000199806685     0.000312138853    -0.000312579753
       4       -0.000039390088     0.000046174444    -0.000304757326
       5        0.000000655489     0.000003784447    -0.000011991031
       6        0.000160926797    -0.000235009790     0.000193170673
       7        0.000001170910    -0.000003488526     0.000000601824
       8       -0.000001120853    -0.000001649218     0.000003981517
       9        0.000003910014     0.000000352111     0.000000290413
      10        0.000002787290    -0.000004230001    -0.000001544200
      11        0.000014574474     0.000005014331     0.000027256584
      12       -0.000011905416    -0.000004984606    -0.000000137994
      13       -0.000001808110     0.000000916130    -0.000003544448
      14        0.000004999170     0.000001165239    -0.000007510455

  **** Optimization is complete! (in 5 steps) ****
    Final optimized geometry and variables:
    Molecular point group: c1

    Geometry (in Angstrom), charge = 0, multiplicity = 1:

    O            0.078078792910     1.253339163824     0.135636871637
    C            0.030256344201     0.075860198720     0.025192826936
    C           -1.230682290279    -0.750053751576     0.031153520690
    O            1.103748435938    -0.684042288377    -0.113868780420
    C           -2.500526474980     0.085614406252     0.043685032920
    H           -1.194102346707    -1.409555056681    -0.827887995285
    H           -1.178666769985    -1.395918230245     0.901618796803
    H           -2.559765716428     0.717736931040    -0.832583866866
    H           -3.370154032911    -0.559922661352     0.057916680828
    H           -2.535488165362     0.727055907701     0.913618112458
    C            2.360486028898    -0.037250633010    -0.116864699312
    H            2.424767843763     0.666476876087    -0.933406138553
    H            3.095724037371    -0.816093140645    -0.237852373037
    H            2.521933085276     0.486712803218     0.813532822046

  Mulliken Charges: (a.u.)
   Center  Symbol    Alpha    Beta     Spin     Total
       1     O     4.19648  4.19648  0.00000 -0.39296
       2     C     2.80269  2.80269  0.00000  0.39461
       3     C     3.09422  3.09422  0.00000 -0.18844
       4     O     4.14701  4.14701  0.00000 -0.29402
       5     C     3.13987  3.13987  0.00000 -0.27973
       6     H     0.44034  0.44034  0.00000  0.11932
       7     H     0.44221  0.44221  0.00000  0.11559
       8     H     0.44955  0.44955  0.00000  0.10090
       9     H     0.45031  0.45031  0.00000  0.09937
      10     H     0.44705  0.44705  0.00000  0.10590
      11     C     3.03618  3.03618  0.00000 -0.07236
      12     H     0.45424  0.45424  0.00000  0.09152
      13     H     0.44547  0.44547  0.00000  0.10906
      14     H     0.45438  0.45438  0.00000  0.09125

   Total alpha = 24.00000, Total beta = 24.00000, Total charge =  0.00000

*** Psi4 exiting successfully. Buy a developer a beer!
