                              Psi4 1.0.54 Driver

  ==> Input File <==

--------------------------------------------------------------------------
set {
	reference rhf
	basis cc-pvtz
}

set_num_threads( 4 )
memory 2 gb

molecule MOL {
0 1

O	 2.398339	 2.080408	 -0.260613
C	 1.395509	 2.402121	 -0.809196
C	 0.146150	 1.545266	 -0.782126
C	 1.299524	 3.700688	 -1.577789
C	 0.288398	 0.247429	 0.000314
H	 -0.659220	 2.153537	 -0.376597
H	 -0.135705	 1.344731	 -1.813314
C	 -0.993089	 -0.581367	 -0.000217
H	 0.578526	 0.476664	 1.019329
H	 1.102629	 -0.332792	 -0.418620
C	 -2.258482	 0.271340	 0.000669
H	 -1.002280	 -1.233920	 -0.870484
H	 -1.002061	 -1.235367	 0.868958
C	 -3.544441	 -0.550271	 -0.000253
H	 -2.250545	 0.925250	 -0.867923
H	 -2.250598	 0.923423	 0.870642
C	 -4.804551	 0.308747	 0.000556
H	 -3.553737	 -1.201524	 -0.870151
H	 -3.553831	 -1.203282	 0.868313
H	 -4.842050	 0.949078	 -0.874436
H	 -5.698404	 -0.304480	 -0.000254
H	 -4.842277	 0.947103	 0.876982
H	 0.512667	 4.322409	 -1.165033
H	 2.240977	 4.225705	 -1.528634
H	 1.044795	 3.504146	 -2.613417

	symmetry c1
}
set optking {
	frozen_dihedral = ("
		9 5 8 12
	")
}

ee,wfn = optimize('scf', return_wfn=True)
oeprop( wfn, 'DIPOLE', 'QUADRUPOLE', 'MULLIKEN_CHARGES')
f=open( 'psi4out.xyz', 'w' )
f.write( "25  " )
f.write( str(ee) + "\n" )
f.write( MOL.save_string_xyz() )
f.close()
--------------------------------------------------------------------------

    Molecular point group: c1
  Charge       = 0
  Multiplicity = 1
  Basis Set: CC-PVTZ
  Basis Set:
  @DF-RHF Final Energy:  -387.26644856671351
    Total Energy =                       -387.2664485667137342
    Molecular point group: c1
  Basis Set: CC-PVTZ
  Basis Set:
  Basis Set: CC-PVTZ
  Basis Set:
  @DF-RHF Final Energy:  -387.26592362179525
    Total Energy =                       -387.2659236217955367
  Basis Set: CC-PVTZ
  Basis Set:
  Basis Set: CC-PVTZ
  Basis Set:
  @DF-RHF Final Energy:  -387.26969012812742
    Total Energy =                       -387.2696901281273085
  Basis Set: CC-PVTZ
  Basis Set:
  Basis Set: CC-PVTZ
  Basis Set:
  @DF-RHF Final Energy:  -387.26977252748696
    Total Energy =                       -387.2697725274874756
  Basis Set: CC-PVTZ
  Basis Set:
  Basis Set: CC-PVTZ
  Basis Set:
  @DF-RHF Final Energy:  -387.26977043305055
    Total Energy =                       -387.2697704330505530
  Basis Set: CC-PVTZ
  Basis Set:
  Basis Set: CC-PVTZ
  Basis Set:
  @DF-RHF Final Energy:  -387.26995037404293
    Total Energy =                       -387.2699503740426508
  Basis Set: CC-PVTZ
  Basis Set:
  Charge       = 0
  Multiplicity = 1
  Basis Set: CC-PVTZ
  Basis Set:

    Orbital Energies (a.u.)
    -----------------------

    Doubly Occupied:

       1A    -20.538750     2A    -11.320365     3A    -11.229789
       4A    -11.226432     5A    -11.215878     6A    -11.215375
       7A    -11.215009     8A    -11.214554     9A    -11.209105
      10A     -1.398856    11A     -1.095391    12A     -1.057042
      13A     -1.015227    14A     -0.969002    15A     -0.900860
      16A     -0.817590    17A     -0.787273    18A     -0.730125
      19A     -0.660056    20A     -0.655280    21A     -0.635539
      22A     -0.624450    23A     -0.597281    24A     -0.583677
      25A     -0.569127    26A     -0.562859    27A     -0.544932
      28A     -0.529874    29A     -0.519069    30A     -0.495601
      31A     -0.492212    32A     -0.476681    33A     -0.460831
      34A     -0.457315    35A     -0.448499    36A     -0.402926

  @DF-RHF Final Energy:  -387.26995044824355

   => Energetics <=

    Nuclear Repulsion Energy =            446.0814001049125181
    One-Electron Energy =               -1408.9570350575456814
    Two-Electron Energy =                 575.6056845043895009
    DFT Exchange-Correlation Energy =       0.0000000000000000
    Empirical Dispersion Energy =           0.0000000000000000
    PCM Polarization Energy =               0.0000000000000000
    EFP Energy =                            0.0000000000000000
    Total Energy =                       -387.2699504482436623
    Molecular point group: c1
  Basis Set: CC-PVTZ
  Basis Set:

  -Total Gradient:
     Atom            X                  Y                   Z
    ------   -----------------  -----------------  -----------------
       1        0.000020338668    -0.000049015845    -0.000063150156
       2       -0.000071499301     0.000121436445     0.000188877759
       3        0.000049379928    -0.000034786953    -0.000017355746
       4        0.000001484011    -0.000061739376    -0.000059771957
       5       -0.003237352445     0.004856835385     0.000512037988
       6        0.000012278397     0.000035675288     0.000016424227
       7       -0.000023082513    -0.000011996138    -0.000009145497
       8       -0.002276829684     0.003842689155    -0.003549266477
       9        0.003081869930    -0.004606728678     0.000217577694
      10        0.000011910359    -0.000031220309    -0.000044540230
      11        0.000032494324    -0.000044686409    -0.000190051485
      12        0.002400884514    -0.003987329448     0.002882326775
      13       -0.000021470926    -0.000039916814     0.000062914534
      14       -0.000010953447    -0.000026991187    -0.000006850732
      15       -0.000031638772     0.000026546101    -0.000082465577
      16        0.000042797843     0.000079193509     0.000046505533
      17        0.000066105326     0.000000694683     0.000055210750
      18       -0.000011418322     0.000002401452    -0.000038377601
      19       -0.000010544599    -0.000063516181     0.000047627573
      20        0.000019406211     0.000012451356    -0.000039380685
      21       -0.000036049753    -0.000050285324     0.000017571118
      22       -0.000009506290     0.000037990138     0.000040257244
      23       -0.000018896557     0.000001308153     0.000011682639
      24        0.000017257551    -0.000008363692     0.000004022577
      25        0.000003035550    -0.000000645306    -0.000002680268

  **** Optimization is complete! (in 7 steps) ****
    Final optimized geometry and variables:
    Molecular point group: c1

    Geometry (in Angstrom), charge = 0, multiplicity = 1:

    O            3.153439336255     0.946722515844     0.146525968520
    C            2.201188892249     1.343850699686    -0.441064101047
    C            0.877524520952     0.604964101027    -0.440880991511
    C            2.246803858242     2.628475558714    -1.237643338099
    C            0.889236098710    -0.683348080870     0.368908021687
    H            0.124027391972     1.298124862502    -0.079407210447
    H            0.615303373991     0.407054879258    -1.478094485975
    C           -0.393305353337    -1.525392130042     0.294546012601
    H            1.137624072692    -0.476198007749     1.403361429227
    H            1.712597479828    -1.294204762278     0.017281086785
    C           -1.715175591962    -0.766170625047     0.363488352666
    H           -0.363391891515    -2.156500332769    -0.590130221447
    H           -0.361912048638    -2.225974822407     1.125000758107
    C           -2.926642969089    -1.691354769322     0.445635073374
    H           -1.825123292552    -0.122609481777    -0.504669018381
    H           -1.709483184557    -0.109944659679     1.231691804184
    C           -4.252054626975    -0.939955591437     0.510326779847
    H           -2.929898533779    -2.353896092077    -0.415729541541
    H           -2.831767669188    -2.329671501925     1.319586168869
    H           -4.394865938628    -0.320668938729    -0.369207489403
    H           -5.089613984967    -1.625460244693     0.570609528459
    H           -4.292623275301    -0.291715651166     1.379551244438
    H            1.507893904141     3.327848817177    -0.862226007621
    H            3.230255635656     3.067332757690    -1.168791087225
    H            2.006447457037     2.432613039591    -2.276825169903

  Mulliken Charges: (a.u.)
   Center  Symbol    Alpha    Beta     Spin     Total
       1     O     4.17000  4.17000  0.00000 -0.34000
       2     C     2.86267  2.86267  0.00000  0.27467
       3     C     3.11700  3.11700  0.00000 -0.23400
       4     C     3.15114  3.15114  0.00000 -0.30228
       5     C     3.09199  3.09199  0.00000 -0.18397
       6     H     0.44158  0.44158  0.00000  0.11685
       7     H     0.44396  0.44396  0.00000  0.11208
       8     C     3.09926  3.09926  0.00000 -0.19852
       9     H     0.44422  0.44422  0.00000  0.11156
      10     H     0.44216  0.44216  0.00000  0.11568
      11     C     3.09214  3.09214  0.00000 -0.18428
      12     H     0.45108  0.45108  0.00000  0.09784
      13     H     0.44917  0.44917  0.00000  0.10166
      14     C     3.08480  3.08480  0.00000 -0.16960
      15     H     0.45350  0.45350  0.00000  0.09300
      16     H     0.45338  0.45338  0.00000  0.09325
      17     C     3.14985  3.14985  0.00000 -0.29970
      18     H     0.45429  0.45429  0.00000  0.09142
      19     H     0.45262  0.45262  0.00000  0.09475
      20     H     0.45598  0.45598  0.00000  0.08804
      21     H     0.44776  0.44776  0.00000  0.10448
      22     H     0.45507  0.45507  0.00000  0.08986
      23     H     0.45062  0.45062  0.00000  0.09877
      24     H     0.43512  0.43512  0.00000  0.12975
      25     H     0.45065  0.45065  0.00000  0.09870

   Total alpha = 36.00000, Total beta = 36.00000, Total charge = -0.00000

*** Psi4 exiting successfully. Buy a developer a beer!
