  ==> Input File <==

--------------------------------------------------------------------------
set {
	reference rhf
	basis 6-31G*
}

set_num_threads( 4 )
memory 2 gb

molecule MOL {
0 1

H	 -3.042581	 -0.665861	 0.004336
O	 -2.245037	 -1.176175	 0.000806
C	 -1.162163	 -0.365336	 0.001020
C	 0.090050	 -0.798040	 0.398587
C	 -1.351820	 0.946183	 -0.417044
H	 0.238012	 -1.813542	 0.725442
C	 1.151477	 0.095631	 0.373349
H	 -2.338464	 1.249114	 -0.716850
C	 -0.292452	 1.836226	 -0.443094
H	 2.126124	 -0.236836	 0.684103
C	 0.969901	 1.399659	 -0.040796
C	 -0.492367	 3.255900	 -0.920231
H	 1.802162	 2.081228	 -0.052386
H	 0.025689	 3.960723	 -0.278646
H	 -1.542031	 3.523891	 -0.935996
H	 -0.102574	 3.382392	 -1.926416

	symmetry c1
}
set optking {
	frozen_dihedral = ("
		5 3 2 1
	")
}

ee = optimize('scf')
oeprop('DIPOLE', 'QUADRUPOLE', 'MULLIKEN_CHARGES')
f=open( 'psi4out.xyz', 'w' )
f.write( "16  " )
f.write( str(ee) + "\n" )
f.write( MOL.save_string_xyz() )
f.close()
--------------------------------------------------------------------------

    Molecular point group: c1
  Charge       = 0
  Multiplicity = 1
  Basis Set: 6-31G*
  Basis Set:
  @DF-RHF Final Energy:  -344.59251090437851
    Total Energy =                       -344.5925109043781731
    Molecular point group: c1
  Basis Set: 6-31G*
  Basis Set:
  Basis Set: 6-31G*
  Basis Set:
  @DF-RHF Final Energy:  -344.59432736690002
    Total Energy =                       -344.5943273669003020
  Basis Set: 6-31G*
  Basis Set:
  Basis Set: 6-31G*
  Basis Set:
  @DF-RHF Final Energy:  -344.59448430056727
    Total Energy =                       -344.5944843005673874
  Basis Set: 6-31G*
  Basis Set:
  Basis Set: 6-31G*
  Basis Set:
  @DF-RHF Final Energy:  -344.59450455177000
    Total Energy =                       -344.5945045517701146
  Basis Set: 6-31G*
  Basis Set:
  @DF-RHF Final Energy:  -344.59451034553553
    Total Energy =                       -344.5945103455355820
  @DF-RHF Final Energy:  -344.59451313411711
    Total Energy =                       -344.5945131341169940
  @DF-RHF Final Energy:  -344.59452190284821
    Total Energy =                       -344.5945219028482143
  @DF-RHF Final Energy:  -344.59452858297271
    Total Energy =                       -344.5945285829727709
  @DF-RHF Final Energy:  -344.59453461826894
    Total Energy =                       -344.5945346182689946
  @DF-RHF Final Energy:  -344.59454027994457
    Total Energy =                       -344.5945402799445674
  @DF-RHF Final Energy:  -344.59455329488623
    Total Energy =                       -344.5945532948862819
  @DF-RHF Final Energy:  -344.59457036806816
    Total Energy =                       -344.5945703680681618
  @DF-RHF Final Energy:  -344.59458524527696
    Total Energy =                       -344.5945852452767326
  @DF-RHF Final Energy:  -344.59459634873258
    Total Energy =                       -344.5945963487326935
  @DF-RHF Final Energy:  -344.59460532620392
    Total Energy =                       -344.5946053262038618
  @DF-RHF Final Energy:  -344.59461130860802
    Total Energy =                       -344.5946113086080231
  @DF-RHF Final Energy:  -344.59461450586065
    Total Energy =                       -344.5946145058608181
  @DF-RHF Final Energy:  -344.59461449983968
    Total Energy =                       -344.5946144998397926
  @DF-RHF Final Energy:  -344.59461479156778
    Total Energy =                       -344.5946147915677784
  @DF-RHF Final Energy:  -344.59461475383620
    Total Energy =                       -344.5946147538363675
  @DF-RHF Final Energy:  -344.59461513519039
    Total Energy =                       -344.5946151351904518
  @DF-RHF Final Energy:  -344.59461547843614
    Total Energy =                       -344.5946154784360829
  @DF-RHF Final Energy:  -344.59461555475764
    Total Energy =                       -344.5946155547574108
  @DF-RHF Final Energy:  -344.59461552779959
    Total Energy =                       -344.5946155277995331
  @DF-RHF Final Energy:  -344.59461556305064
    Total Energy =                       -344.5946155630508656
  @DF-RHF Final Energy:  -344.59391771848442
    Total Energy =                       -344.5939177184841924
  @DF-RHF Final Energy:  -344.59272720483767
    Total Energy =                       -344.5927272048380132
  @DF-RHF Final Energy:  -344.58948816088514
    Total Energy =                       -344.5894881608851392
  @DF-RHF Final Energy:  -344.59433785106404
    Total Energy =                       -344.5943378510639263
  @DF-RHF Final Energy:  -344.59459208779413
    Total Energy =                       -344.5945920877940694
  @DF-RHF Final Energy:  -344.59460479146810
    Total Energy =                       -344.5946047914681003
  @DF-RHF Final Energy:  -344.59461190120294
    Total Energy =                       -344.5946119012029385
  @DF-RHF Final Energy:  -344.59461377873106
    Total Energy =                       -344.5946137787312864
  @DF-RHF Final Energy:  -344.59461514966267
    Total Energy =                       -344.5946151496624452
  @DF-RHF Final Energy:  -344.59461543876711
    Total Energy =                       -344.5946154387672209
  @DF-RHF Final Energy:  -344.59461555935957
    Total Energy =                       -344.5946155593595677
  Basis Set: 6-31G*
  Basis Set:
  @DF-RHF Final Energy:  -344.59461560038716
    Total Energy =                       -344.5946156003869305
  Basis Set: 6-31G*
  Basis Set:
  Basis Set: 6-31G*
  Basis Set:
  @DF-RHF Final Energy:  -344.59461563952044
    Total Energy =                       -344.5946156395204980
  Basis Set: 6-31G*
  Basis Set:
  Basis Set: 6-31G*
  Basis Set:
  @DF-RHF Final Energy:  -344.59461569272105
    Total Energy =                       -344.5946156927209927
  Basis Set: 6-31G*
  Basis Set:
  Charge       = 0
  Multiplicity = 1
  Basis Set: 6-31G*
  Basis Set:

    Orbital Energies (a.u.)
    -----------------------

    Doubly Occupied:

       1A    -20.587795     2A    -11.295485     3A    -11.243317
       4A    -11.232665     5A    -11.223035     6A    -11.221687
       7A    -11.217574     8A    -11.216763     9A     -1.405993
      10A     -1.149805    11A     -1.044113    12A     -1.003220
      13A     -0.938207    14A     -0.840125    15A     -0.799083
      16A     -0.727136    17A     -0.679939    18A     -0.647412
      19A     -0.601099    20A     -0.592727    21A     -0.577524
      22A     -0.567265    23A     -0.565978    24A     -0.533168
      25A     -0.503912    26A     -0.481859    27A     -0.466932
      28A     -0.329296    29A     -0.306875

  @DF-RHF Final Energy:  -344.59461579823699

   => Energetics <=

    Nuclear Repulsion Energy =            345.5280529646726109
    One-Electron Energy =               -1152.2453561044344497
    Two-Electron Energy =                 462.1226873415250793
    DFT Exchange-Correlation Energy =       0.0000000000000000
    Empirical Dispersion Energy =           0.0000000000000000
    PCM Polarization Energy =               0.0000000000000000
    EFP Energy =                            0.0000000000000000
    Total Energy =                       -344.5946157982367595
    Molecular point group: c1
  Basis Set: 6-31G*
  Basis Set:

  -Total Gradient:
     Atom            X                  Y                   Z
    ------   -----------------  -----------------  -----------------
       1       -0.000093127001     0.000009152181     0.001812040232
       2        0.000313016891    -0.000292494944    -0.003296718183
       3       -0.000807680979     0.000604399016     0.002949410368
       4        0.000119010673     0.000146851137    -0.000266735109
       5        0.000245367094    -0.000564606014    -0.001539301102
       6        0.000002168174     0.000059438862     0.000178646314
       7        0.000073028241    -0.000359116356     0.000048644824
       8       -0.000056104363     0.000042460294     0.000164797089
       9        0.000569931214     0.000119638063     0.000128615114
      10        0.000010182670     0.000023589251     0.000015633709
      11       -0.000349882262     0.000433102092    -0.000238994373
      12       -0.000138479826    -0.000067041628    -0.000025520844
      13        0.000092791180    -0.000116814956     0.000052789485
      14        0.000016070214    -0.000039332913     0.000021541764
      15       -0.000003965089     0.000004649449    -0.000002242357
      16        0.000007673172    -0.000003873529    -0.000002606929

  **** Optimization is complete! (in 47 steps) ****
    Final optimized geometry and variables:
    Molecular point group: c1

    Geometry (in Angstrom), charge = 0, multiplicity = 1:

    H           -2.536371235512    -1.470418017828    -0.008200351320
    O           -1.696236291657    -1.902506971694     0.055092696126
    C           -0.694508171841    -0.991568777011     0.102643691928
    C            0.540690397170    -1.419541763625     0.573293908520
    C           -0.862395847129     0.309093691948    -0.335229449007
    H            0.651938761021    -2.434020502002     0.907616831399
    C            1.590374855785    -0.525990355746     0.602415597034
    H           -1.823344257221     0.624167033295    -0.709471342290
    C            0.196605482040     1.214416226600    -0.297995789972
    H            2.549203341232    -0.849289011947     0.967343101205
    C            1.426248133303     0.786062259402     0.173263995289
    C           -0.011233245175     2.631672953270    -0.778637018914
    H            2.257401256574     1.467485573308     0.207849688791
    H            0.891235104296     3.220449783412    -0.666580169512
    H           -0.801850236668     3.122521844959    -0.219198337013
    H           -0.293438957392     2.650267491244    -1.827075687467

  Mulliken Charges: (a.u.)
   Center  Symbol    Alpha    Beta     Spin     Total
       1     H     0.27224  0.27224  0.00000  0.45552
       2     O     4.37992  4.37992  0.00000 -0.75984
       3     C     2.79138  2.79138  0.00000  0.41725
       4     C     3.12680  3.12680  0.00000 -0.25360
       5     C     3.15451  3.15451  0.00000 -0.30902
       6     H     0.39263  0.39263  0.00000  0.21474
       7     C     3.08802  3.08802  0.00000 -0.17603
       8     H     0.40720  0.40720  0.00000  0.18560
       9     C     2.96919  2.96919  0.00000  0.06162
      10     H     0.39847  0.39847  0.00000  0.20307
      11     C     3.12820  3.12820  0.00000 -0.25640
      12     C     3.25507  3.25507  0.00000 -0.51015
      13     H     0.40318  0.40318  0.00000  0.19365
      14     H     0.41146  0.41146  0.00000  0.17708
      15     H     0.41148  0.41148  0.00000  0.17705
      16     H     0.41027  0.41027  0.00000  0.17947

   Total alpha = 29.00000, Total beta = 29.00000, Total charge = -0.00000
