                              Psi4 1.0.54 Driver

  ==> Input File <==

--------------------------------------------------------------------------
set {
	reference rhf
	basis cc-pvtz
}

set_num_threads( 4 )
memory 2 gb

molecule MOL {
0 1

H	 -2.051380	 -0.750034	 1.958022
C	 -1.443288	 -0.460438	 1.127183
C	 -1.947473	 0.372948	 0.078174
C	 -0.175716	 -0.870274	 1.035916
H	 -2.962956	 0.719426	 0.121808
C	 -1.166006	 0.720132	 -0.949127
H	 0.273014	 -1.496028	 1.781713
N	 0.640204	 -0.530428	 -0.000115
H	 -1.509055	 1.341364	 -1.750595
C	 0.215575	 0.271555	 -1.045267
C	 2.006991	 -1.033007	 -0.000020
O	 0.948269	 0.561927	 -1.951405
H	 2.182444	 -1.636914	 -0.880881
H	 2.678769	 -0.195442	 -0.002236
H	 2.183828	 -1.633244	 0.883082

	symmetry c1
}
set optking {
	frozen_dihedral = ("
		10 8 11 13
	")
}

ee,wfn = optimize('scf', return_wfn=True)
oeprop( wfn, 'DIPOLE', 'QUADRUPOLE', 'MULLIKEN_CHARGES')
f=open( 'psi4out.xyz', 'w' )
f.write( "15  " )
f.write( str(ee) + "\n" )
f.write( MOL.save_string_xyz() )
f.close()
--------------------------------------------------------------------------

    Molecular point group: c1
  Charge       = 0
  Multiplicity = 1
  Basis Set: CC-PVTZ
  Basis Set:
  @DF-RHF Final Energy:  -360.72276888590500
    Total Energy =                       -360.7227688859047703
    Molecular point group: c1
  Basis Set: CC-PVTZ
  Basis Set:
  Basis Set: CC-PVTZ
  Basis Set:
  @DF-RHF Final Energy:  -360.72357022638795
    Total Energy =                       -360.7235702263880057
  Basis Set: CC-PVTZ
  Basis Set:
  Basis Set: CC-PVTZ
  Basis Set:
  @DF-RHF Final Energy:  -360.72365481494074
    Total Energy =                       -360.7236548149409714
  Basis Set: CC-PVTZ
  Basis Set:
  Basis Set: CC-PVTZ
  Basis Set:
  @DF-RHF Final Energy:  -360.72363536972875
    Total Energy =                       -360.7236353697288678
  Basis Set: CC-PVTZ
  Basis Set:
  Charge       = 0
  Multiplicity = 1
  Basis Set: CC-PVTZ
  Basis Set:

    Orbital Energies (a.u.)
    -----------------------

    Doubly Occupied:

       1A    -20.502017     2A    -15.617928     3A    -11.337447
       4A    -11.294763     5A    -11.266206     6A    -11.258172
       7A    -11.229388     8A    -11.227739     9A     -1.391419
      10A     -1.285917    11A     -1.118840    12A     -1.029411
      13A     -0.972652    14A     -0.876692    15A     -0.839015
      16A     -0.719734    17A     -0.701910    18A     -0.664094
      19A     -0.653474    20A     -0.626422    21A     -0.611944
      22A     -0.575224    23A     -0.551566    24A     -0.551323
      25A     -0.531601    26A     -0.485028    27A     -0.420394
      28A     -0.410820    29A     -0.309975

  @DF-RHF Final Energy:  -360.72366061971081

   => Energetics <=

    Nuclear Repulsion Energy =            358.9271752124363957
    One-Electron Energy =               -1201.1794414563164537
    Two-Electron Energy =                 481.5286056241693586
    DFT Exchange-Correlation Energy =       0.0000000000000000
    Empirical Dispersion Energy =           0.0000000000000000
    PCM Polarization Energy =               0.0000000000000000
    EFP Energy =                            0.0000000000000000
    Total Energy =                       -360.7236606197106994
    Molecular point group: c1
  Basis Set: CC-PVTZ
  Basis Set:

  -Total Gradient:
     Atom            X                  Y                   Z
    ------   -----------------  -----------------  -----------------
       1       -0.000014428772     0.000007334234     0.000009636228
       2        0.000222601314    -0.000082553785     0.000022214128
       3       -0.000015850471     0.000120523289    -0.000177813964
       4       -0.000297194597    -0.000025577929     0.000148491036
       5       -0.000001132268    -0.000018180575     0.000020288249
       6       -0.000209547942     0.000068862036     0.000070553863
       7        0.000042452408     0.000013558409    -0.000019347432
       8        0.000120673186     0.000134280389    -0.000275267336
       9        0.000017881069     0.000003562086    -0.000011365225
      10        0.000067537037    -0.000306511513     0.000296841683
      11       -0.000042047904    -0.000016576091     0.000001313271
      12        0.000074704489     0.000100684109    -0.000119903449
      13       -0.000000391430     0.000001697747     0.000016822962
      14       -0.000000571443     0.000017102248    -0.000008472398
      15        0.000035315325    -0.000018204653     0.000026008379

  **** Optimization is complete! (in 5 steps) ****
    Final optimized geometry and variables:
    Molecular point group: c1

    Geometry (in Angstrom), charge = 0, multiplicity = 1:

    H           -2.120211451198    -0.517873564643     2.120230665788
    C           -1.466152903691    -0.262023754815     1.313597097177
    C           -1.891042348614     0.580623295650     0.238681791702
    C           -0.212948905246    -0.726839600863     1.282112117884
    H           -2.892554267148     0.968172509354     0.238435617293
    C           -1.055016354828     0.887309357617    -0.759643947719
    H            0.174318750125    -1.362291705557     2.052385813073
    N            0.654380964271    -0.428681391687     0.278342277823
    H           -1.338888416325     1.514578960892    -1.579475245516
    C            0.306157970357     0.378749920298    -0.788327290667
    C            2.009943284185    -0.955979055450     0.284081628735
    O            1.104226080396     0.616627119020    -1.654117995533
    H            2.180291180955    -1.557847621409    -0.595837363907
    H            2.724634162399    -0.146917122105     0.281189418411
    H            2.148915505242    -1.559119531548     1.168047862329

  Mulliken Charges: (a.u.)
   Center  Symbol    Alpha    Beta     Spin     Total
       1     H     0.41405  0.41405  0.00000  0.17190
       2     C     3.10723  3.10723  0.00000 -0.21446
       3     C     3.05901  3.05901  0.00000 -0.11803
       4     C     3.03976  3.03976  0.00000 -0.07953
       5     H     0.41843  0.41843  0.00000  0.16314
       6     C     3.11837  3.11837  0.00000 -0.23674
       7     H     0.41841  0.41841  0.00000  0.16318
       8     N     3.50819  3.50819  0.00000 -0.01637
       9     H     0.40941  0.40941  0.00000  0.18118
      10     C     2.84580  2.84580  0.00000  0.30839
      11     C     3.09124  3.09124  0.00000 -0.18248
      12     O     4.23547  4.23547  0.00000 -0.47095
      13     H     0.43972  0.43972  0.00000  0.12057
      14     H     0.43946  0.43946  0.00000  0.12108
      15     H     0.45544  0.45544  0.00000  0.08913

   Total alpha = 29.00000, Total beta = 29.00000, Total charge = -0.00000

*** Psi4 exiting successfully. Buy a developer a beer!
