                              Psi4 1.0.54 Driver

  ==> Input File <==

--------------------------------------------------------------------------
set {
	reference rhf
	basis cc-pvtz
}

set_num_threads( 4 )
memory 2 gb

molecule MOL {
0 1

H	 -2.906974	 -0.642679	 0.683762
C	 -2.819879	 -0.128467	 -0.270640
O	 -1.492604	 0.013101	 -0.652532
H	 -3.321194	 -0.713616	 -1.027722
H	 -3.317480	 0.836142	 -0.188130
C	 -0.718530	 0.758693	 0.228682
C	 0.718529	 0.758687	 -0.228709
H	 -1.076433	 1.787453	 0.267774
H	 -0.773887	 0.345928	 1.233665
O	 1.401606	 -0.295166	 0.366636
H	 0.748705	 0.673477	 -1.312803
H	 1.176496	 1.708671	 0.046552
C	 2.714315	 -0.441627	 -0.061017
H	 2.765292	 -0.641548	 -1.128869
H	 3.305661	 0.447341	 0.150952
H	 3.143725	 -1.278506	 0.470147

	symmetry c1
}
set optking {
	frozen_dihedral = ("
		3 6 7 11
	")
}

ee,wfn = optimize('scf', return_wfn=True)
oeprop( wfn, 'DIPOLE', 'QUADRUPOLE', 'MULLIKEN_CHARGES')
f=open( 'psi4out.xyz', 'w' )
f.write( "16  " )
f.write( str(ee) + "\n" )
f.write( MOL.save_string_xyz() )
f.close()
--------------------------------------------------------------------------

    Molecular point group: c1
  Charge       = 0
  Multiplicity = 1
  Basis Set: CC-PVTZ
  Basis Set:
  @DF-RHF Final Energy:  -307.09649290516734
    Total Energy =                       -307.0964929051673380
    Molecular point group: c1
  Basis Set: CC-PVTZ
  Basis Set:
  Basis Set: CC-PVTZ
  Basis Set:
  @DF-RHF Final Energy:  -307.09666018675068
    Total Energy =                       -307.0966601867505688
  Basis Set: CC-PVTZ
  Basis Set:
  Basis Set: CC-PVTZ
  Basis Set:
  @DF-RHF Final Energy:  -307.09669421588671
    Total Energy =                       -307.0966942158868278
  Basis Set: CC-PVTZ
  Basis Set:
  Charge       = 0
  Multiplicity = 1
  Basis Set: CC-PVTZ
  Basis Set:

    Orbital Energies (a.u.)
    -----------------------

    Doubly Occupied:

       1A    -20.549100     2A    -20.548324     3A    -11.267133
       4A    -11.266468     5A    -11.262206     6A    -11.261840
       7A     -1.390707     8A     -1.375524     9A     -1.030826
      10A     -0.938148    11A     -0.889385    12A     -0.827627
      13A     -0.685019    14A     -0.683914    15A     -0.658790
      16A     -0.637104    17A     -0.634360    18A     -0.599390
      19A     -0.544429    20A     -0.541720    21A     -0.509541
      22A     -0.480777    23A     -0.465408    24A     -0.425249
      25A     -0.413143

  @DF-RHF Final Energy:  -307.09669535921677

   => Energetics <=

    Nuclear Repulsion Energy =            257.6903589310881557
    One-Electron Energy =                -929.8018333973739118
    Two-Electron Energy =                 365.0147791070689891
    DFT Exchange-Correlation Energy =       0.0000000000000000
    Empirical Dispersion Energy =           0.0000000000000000
    PCM Polarization Energy =               0.0000000000000000
    EFP Energy =                            0.0000000000000000
    Total Energy =                       -307.0966953592167101
    Molecular point group: c1
  Basis Set: CC-PVTZ
  Basis Set:

  -Total Gradient:
     Atom            X                  Y                   Z
    ------   -----------------  -----------------  -----------------
       1        0.000002528704     0.000008233289    -0.000005656786
       2       -0.000035876586    -0.000041292932    -0.000051993416
       3       -0.000439218991     0.002156922866    -0.001371991214
       4       -0.000035689072    -0.000006819909     0.000012158920
       5        0.000005266416     0.000002766559     0.000009127702
       6        0.000602852738    -0.003529909415     0.001922393102
       7       -0.000162233112     0.004687283006    -0.000760328690
       8       -0.000014860693     0.000017414751     0.000028660838
       9       -0.000011494759    -0.000015571562    -0.000020989147
      10       -0.000062219651     0.000112455534    -0.000043271660
      11        0.000098117657    -0.003339933679     0.000277874859
      12       -0.000000200817    -0.000010125596     0.000001407470
      13        0.000056700230    -0.000050131798     0.000008572210
      14        0.000002638964     0.000005626005     0.000001468411
      15       -0.000013954263    -0.000001569053    -0.000000984639
      16        0.000007643227     0.000004651933    -0.000006447957

  **** Optimization is complete! (in 4 steps) ****
    Final optimized geometry and variables:
    Molecular point group: c1

    Geometry (in Angstrom), charge = 0, multiplicity = 1:

    H           -2.855854317785    -0.770602836941     0.807766631395
    C           -2.778248129802    -0.260847944918    -0.149698091156
    O           -1.453818747695    -0.101942330927    -0.535790572617
    H           -3.273340496979    -0.856929489778    -0.902394095105
    H           -3.288640980745     0.697318328837    -0.071256754061
    C           -0.689574827929     0.665332142750     0.339533161257
    C            0.751763804689     0.677575627725    -0.122661580058
    H           -1.074210403595     1.684378372436     0.361893178021
    H           -0.734445520139     0.267316135285     1.349381553944
    O            1.432125028296    -0.391852142117     0.458404087852
    H            0.770468813846     0.580115721033    -1.204601027187
    H            1.226886076781     1.616199720267     0.155838448606
    C            2.740005675200    -0.544233582119     0.017927426447
    H            2.780671020809    -0.732823853432    -1.052452130266
    H            3.339839629248     0.337930820145     0.234157016309
    H            3.167794111255    -1.389831235020     0.536564816095

  Mulliken Charges: (a.u.)
   Center  Symbol    Alpha    Beta     Spin     Total
       1     H     0.46982  0.46982  0.00000  0.06036
       2     C     3.03083  3.03083  0.00000 -0.06165
       3     O     4.17271  4.17271  0.00000 -0.34542
       4     H     0.44653  0.44653  0.00000  0.10694
       5     H     0.47343  0.47343  0.00000  0.05315
       6     C     2.96039  2.96039  0.00000  0.07921
       7     C     2.96143  2.96143  0.00000  0.07713
       8     H     0.47711  0.47711  0.00000  0.04578
       9     H     0.46894  0.46894  0.00000  0.06212
      10     O     4.17342  4.17342  0.00000 -0.34684
      11     H     0.46894  0.46894  0.00000  0.06211
      12     H     0.47533  0.47533  0.00000  0.04934
      13     C     3.03068  3.03068  0.00000 -0.06136
      14     H     0.47030  0.47030  0.00000  0.05940
      15     H     0.47354  0.47354  0.00000  0.05291
      16     H     0.44660  0.44660  0.00000  0.10681

   Total alpha = 25.00000, Total beta = 25.00000, Total charge =  0.00000

*** Psi4 exiting successfully. Buy a developer a beer!
