  ==> Input File <==

--------------------------------------------------------------------------
set {
	reference rhf
	basis cc-pvtz
}

set_num_threads( 4 )
memory 2 gb

molecule MOL {
0 1

O	 0.395927	 1.296676	 -0.000076
C	 0.503051	 0.114301	 -0.000074
C	 -0.701422	 -0.805636	 -0.000109
C	 1.858118	 -0.556123	 0.000212
C	 -2.013807	 -0.108697	 0.322383
H	 -0.746659	 -1.286226	 -0.973979
H	 -0.502820	 -1.605598	 0.708451
H	 -2.225047	 0.672164	 -0.395852
H	 -2.831185	 -0.819666	 0.305878
H	 -1.979064	 0.349962	 1.301492
H	 1.961106	 -1.191101	 -0.872843
H	 2.636688	 0.191085	 -0.000109
H	 1.961070	 -1.190284	 0.873873

	symmetry c1
}
set optking {
	frozen_dihedral = ("
		6 3 2 1
	")
}

ee = optimize('scf')
oeprop('DIPOLE', 'QUADRUPOLE', 'MULLIKEN_CHARGES')
f=open( 'psi4out.xyz', 'w' )
f.write( "13  " )
f.write( str(ee) + "\n" )
f.write( MOL.save_string_xyz() )
f.close()
--------------------------------------------------------------------------

    Molecular point group: c1
  Charge       = 0
  Multiplicity = 1
  Basis Set: CC-PVTZ
  Basis Set:
  @DF-RHF Final Energy:  -231.08330037439799
    Total Energy =                       -231.0833003743979930
    Molecular point group: c1
  Basis Set: CC-PVTZ
  Basis Set:
  Basis Set: CC-PVTZ
  Basis Set:
  @DF-RHF Final Energy:  -231.08243138617621
    Total Energy =                       -231.0824313861763244
  Basis Set: CC-PVTZ
  Basis Set:
  Basis Set: CC-PVTZ
  Basis Set:
  @DF-RHF Final Energy:  -231.08341302737989
    Total Energy =                       -231.0834130273798905
  Basis Set: CC-PVTZ
  Basis Set:
  Basis Set: CC-PVTZ
  Basis Set:
  @DF-RHF Final Energy:  -231.08346006712588
    Total Energy =                       -231.0834600671259977
  Basis Set: CC-PVTZ
  Basis Set:
  Basis Set: CC-PVTZ
  Basis Set:
  @DF-RHF Final Energy:  -231.08347648617354
    Total Energy =                       -231.0834764861734811
  Basis Set: CC-PVTZ
  Basis Set:
  Basis Set: CC-PVTZ
  Basis Set:
  @DF-RHF Final Energy:  -231.08349029209577
    Total Energy =                       -231.0834902920960872
  Basis Set: CC-PVTZ
  Basis Set:
  Charge       = 0
  Multiplicity = 1
  Basis Set: CC-PVTZ
  Basis Set:

    Orbital Energies (a.u.)
    -----------------------

    Doubly Occupied:

       1A    -20.539568     2A    -11.321336     3A    -11.233682
       4A    -11.227636     5A    -11.212893     6A     -1.399886
       7A     -1.062911     8A     -1.001383     9A     -0.879200
      10A     -0.731162    11A     -0.660872    12A     -0.642288
      13A     -0.623945    14A     -0.584366    15A     -0.571831
      16A     -0.522952    17A     -0.514669    18A     -0.508799
      19A     -0.488415    20A     -0.404900

  @DF-RHF Final Energy:  -231.08349123159300

   => Energetics <=

    Nuclear Repulsion Energy =            177.2983888388161233
    One-Electron Energy =                -664.4983764678117950
    Two-Electron Energy =                 256.1164963974024431
    DFT Exchange-Correlation Energy =       0.0000000000000000
    Empirical Dispersion Energy =           0.0000000000000000
    PCM Polarization Energy =               0.0000000000000000
    EFP Energy =                            0.0000000000000000
    Total Energy =                       -231.0834912315932570
    Molecular point group: c1
  Basis Set: CC-PVTZ
  Basis Set:

  -Total Gradient:
     Atom            X                  Y                   Z
    ------   -----------------  -----------------  -----------------
       1       -0.000012030894     0.000007402706    -0.000630874631
       2       -0.000039419251     0.000090763988     0.000851952446
       3        0.000414514074    -0.000560364258    -0.000040757483
       4       -0.000005997741     0.000029007059    -0.000012215374
       5       -0.000004332346     0.000000407696     0.000004490413
       6       -0.000344569818     0.000462283809    -0.000192304610
       7        0.000000921862    -0.000001774828    -0.000000032531
       8        0.000001979522    -0.000002074492     0.000000969771
       9        0.000003188765     0.000001786518     0.000001097915
      10       -0.000004557098     0.000002400950     0.000004387154
      11       -0.000004029073    -0.000009399019     0.000004786884
      12        0.000001864635    -0.000010689363     0.000002294285
      13       -0.000007532635    -0.000009750761     0.000006205762

  **** Optimization is complete! (in 7 steps) ****
    Final optimized geometry and variables:
    Molecular point group: c1

    Geometry (in Angstrom), charge = 0, multiplicity = 1:

    O            0.392478281788     1.302170241712    -0.007386249749
    C            0.499548610771     0.120657225827    -0.052752074720
    C           -0.705463283188    -0.797929877569    -0.087986191191
    C            1.853569740595    -0.549507325032    -0.091787601144
    C           -2.021574267258    -0.104354440535     0.228924041203
    H           -0.735656916882    -1.231565268909    -1.085202997749
    H           -0.526135239742    -1.628251242122     0.588440332360
    H           -2.209631297672     0.703316207301    -0.464550928572
    H           -2.842445479724    -0.808803794178     0.168369048089
    H           -2.008246228670     0.317303716729     1.225899200474
    H            1.894359499465    -1.290901827680    -0.881551775646
    H            2.626316529835     0.189521858748    -0.237567718577
    H            2.024715831936    -1.067416885652     0.846276306570

  Mulliken Charges: (a.u.)
   Center  Symbol    Alpha    Beta     Spin     Total
       1     O     4.17038  4.17038  0.00000 -0.34077
       2     C     2.86233  2.86233  0.00000  0.27534
       3     C     3.10107  3.10107  0.00000 -0.20215
       4     C     3.14998  3.14998  0.00000 -0.29996
       5     C     3.14167  3.14167  0.00000 -0.28335
       6     H     0.44583  0.44583  0.00000  0.10833
       7     H     0.44693  0.44693  0.00000  0.10613
       8     H     0.44484  0.44484  0.00000  0.11031
       9     H     0.45064  0.45064  0.00000  0.09872
      10     H     0.45036  0.45036  0.00000  0.09929
      11     H     0.45124  0.45124  0.00000  0.09752
      12     H     0.43576  0.43576  0.00000  0.12849
      13     H     0.44896  0.44896  0.00000  0.10208

   Total alpha = 20.00000, Total beta = 20.00000, Total charge = -0.00000
