  ==> Input File <==

--------------------------------------------------------------------------
set {
	reference rhf
	basis 6-31G*
}

set_num_threads( 4 )
memory 2 gb

molecule MOL {
0 1

O	 -1.276010	 1.052711	 -0.768302
C	 -1.204840	 0.067374	 -0.106123
C	 -2.388195	 -0.672128	 0.458071
O	 -0.067104	 -0.527208	 0.221609
H	 -2.388023	 -1.694060	 0.097175
H	 -3.300579	 -0.174919	 0.164318
H	 -2.315377	 -0.706351	 1.539059
C	 1.050447	 -0.434088	 -0.673006
C	 1.912372	 -1.652074	 -0.391613
C	 1.782680	 0.879184	 -0.445414
H	 0.670492	 -0.470210	 -1.683371
H	 1.349077	 -2.564664	 -0.550122
H	 2.773196	 -1.661442	 -1.052089
H	 2.266565	 -1.642603	 0.633624
H	 2.643152	 0.945551	 -1.103593
H	 1.134162	 1.721121	 -0.651673
H	 2.130930	 0.946279	 0.580367

	symmetry c1
}
set optking {
	frozen_dihedral = ("
		8 4 2 1
	")
}

ee = optimize('scf')
oeprop('DIPOLE', 'QUADRUPOLE', 'MULLIKEN_CHARGES')
f=open( 'psi4out.xyz', 'w' )
f.write( "17  " )
f.write( str(ee) + "\n" )
f.write( MOL.save_string_xyz() )
f.close()
--------------------------------------------------------------------------

    Molecular point group: c1
  Charge       = 0
  Multiplicity = 1
  Basis Set: 6-31G*
  Basis Set:
  @DF-RHF Final Energy:  -344.90930560832419
    Total Energy =                       -344.9093056083239617
    Molecular point group: c1
  Basis Set: 6-31G*
  Basis Set:
  Basis Set: 6-31G*
  Basis Set:
  @DF-RHF Final Energy:  -344.90707840333693
    Total Energy =                       -344.9070784033370956
  Basis Set: 6-31G*
  Basis Set:
  Basis Set: 6-31G*
  Basis Set:
  @DF-RHF Final Energy:  -344.91019334407588
    Total Energy =                       -344.9101933440761627
  Basis Set: 6-31G*
  Basis Set:
  Basis Set: 6-31G*
  Basis Set:
  @DF-RHF Final Energy:  -344.91032345465857
    Total Energy =                       -344.9103234546583963
  Basis Set: 6-31G*
  Basis Set:
  Basis Set: 6-31G*
  Basis Set:
  @DF-RHF Final Energy:  -344.91036426597196
    Total Energy =                       -344.9103642659723050
  Basis Set: 6-31G*
  Basis Set:
  Basis Set: 6-31G*
  Basis Set:
  @DF-RHF Final Energy:  -344.91037227918991
    Total Energy =                       -344.9103722791904829
  Basis Set: 6-31G*
  Basis Set:
  Basis Set: 6-31G*
  Basis Set:
  @DF-RHF Final Energy:  -344.91037374365754
    Total Energy =                       -344.9103737436573738
  Basis Set: 6-31G*
  Basis Set:
  Charge       = 0
  Multiplicity = 1
  Basis Set: 6-31G*
  Basis Set:

    Orbital Energies (a.u.)
    -----------------------

    Doubly Occupied:

       1A    -20.594776     2A    -20.545494     3A    -11.375279
       4A    -11.292816     5A    -11.232948     6A    -11.220702
       7A    -11.213207     8A     -1.463192     9A     -1.361921
      10A     -1.077582    11A     -1.005616    12A     -0.947137
      13A     -0.846753    14A     -0.768950    15A     -0.691453
      16A     -0.670682    17A     -0.654645    18A     -0.610191
      19A     -0.587311    20A     -0.579747    21A     -0.564035
      22A     -0.550261    23A     -0.542622    24A     -0.515793
      25A     -0.498972    26A     -0.485048    27A     -0.444095
      28A     -0.436933

  @DF-RHF Final Energy:  -344.91037422574828

   => Energetics <=

    Nuclear Repulsion Energy =            322.3661462798546040
    One-Electron Energy =               -1108.9967224048450589
    Two-Electron Energy =                 441.7202018992422268
    DFT Exchange-Correlation Energy =       0.0000000000000000
    Empirical Dispersion Energy =           0.0000000000000000
    PCM Polarization Energy =               0.0000000000000000
    EFP Energy =                            0.0000000000000000
    Total Energy =                       -344.9103742257482850
    Molecular point group: c1
  Basis Set: 6-31G*
  Basis Set:

  -Total Gradient:
     Atom            X                  Y                   Z
    ------   -----------------  -----------------  -----------------
       1       -0.000130897757     0.005558545056     0.006139086079
       2       -0.000561688950    -0.011391933516    -0.010359828717
       3       -0.000021192654    -0.000059819346    -0.000014686377
       4        0.002080712249     0.011820298007     0.006462367797
       5        0.000002094571    -0.000005707603     0.000021839069
       6        0.000011144521     0.000005140950     0.000002464031
       7       -0.000005051916     0.000017877847     0.000005205961
       8       -0.001412037015    -0.005953761341    -0.002262959663
       9       -0.000002447241     0.000005182418    -0.000005810960
      10        0.000041738966     0.000013655332     0.000015632337
      11       -0.000004523052    -0.000005979858    -0.000005019612
      12        0.000002226095    -0.000005777453     0.000000754125
      13       -0.000001828877    -0.000004006866    -0.000000693726
      14        0.000000501585     0.000001426003    -0.000000336428
      15       -0.000002316890     0.000001603248    -0.000000172059
      16        0.000005271398     0.000002081159     0.000004662548
      17       -0.000001705033     0.000001175962    -0.000002504404

  **** Optimization is complete! (in 8 steps) ****
    Final optimized geometry and variables:
    Molecular point group: c1

    Geometry (in Angstrom), charge = 0, multiplicity = 1:

    O           -1.329863383838     1.070372021179    -0.725993540924
    C           -1.205466440164     0.193840299599     0.066445918744
    C           -2.345672213689    -0.487926064293     0.773534605257
    O           -0.029264104392    -0.250962286198     0.496879833423
    H           -2.350020709720    -1.543195271886     0.523932989949
    H           -3.281144554435    -0.035141909363     0.480441821999
    H           -2.210728686853    -0.406717294770     1.845788966814
    C            1.103650460665    -0.181577234440    -0.382414759260
    C            1.912880236542    -1.442086692806    -0.132965489171
    C            1.885294698406     1.094010276687    -0.111784859711
    H            0.733274242574    -0.168771552337    -1.398342406005
    H            1.317303773285    -2.326634643208    -0.328793340511
    H            2.782436287329    -1.463328020751    -0.781752266279
    H            2.251716730044    -1.479892191492     0.896651978586
    H            2.754607782980     1.147742632153    -0.759840975591
    H            1.265757472173     1.962267425967    -0.294651779924
    H            2.224741555884     1.117167797974     0.918809114822

  Mulliken Charges: (a.u.)
   Center  Symbol    Alpha    Beta     Spin     Total
       1     O     4.27938  4.27938  0.00000 -0.55876
       2     C     2.62025  2.62025  0.00000  0.75950
       3     C     3.28176  3.28176  0.00000 -0.56352
       4     O     4.31423  4.31423  0.00000 -0.62847
       5     H     0.40318  0.40318  0.00000  0.19363
       6     H     0.39762  0.39762  0.00000  0.20475
       7     H     0.39917  0.39917  0.00000  0.20165
       8     C     2.92924  2.92924  0.00000  0.14152
       9     C     3.23969  3.23969  0.00000 -0.47938
      10     C     3.24650  3.24650  0.00000 -0.49300
      11     H     0.40699  0.40699  0.00000  0.18603
      12     H     0.41440  0.41440  0.00000  0.17121
      13     H     0.41764  0.41764  0.00000  0.16472
      14     H     0.41286  0.41286  0.00000  0.17428
      15     H     0.42067  0.42067  0.00000  0.15866
      16     H     0.39952  0.39952  0.00000  0.20095
      17     H     0.41690  0.41690  0.00000  0.16621

   Total alpha = 28.00000, Total beta = 28.00000, Total charge = -0.00000
