                              Psi4 1.0.54 Driver

  ==> Input File <==

--------------------------------------------------------------------------
set {
	reference rhf
	basis cc-pvtz
}

set_num_threads( 4 )
memory 2 gb

molecule MOL {
0 1

H	 -0.484768	 1.875130	 0.351153
O	 0.057669	 1.301365	 -0.158528
C	 0.004145	 -0.005141	 0.363049
C	 1.199168	 -0.827145	 -0.096690
C	 -1.316386	 -0.602081	 -0.083515
H	 0.012026	 0.043363	 1.450619
H	 1.216685	 -0.896776	 -1.178167
H	 2.129940	 -0.372354	 0.228035
H	 1.160783	 -1.829622	 0.314294
H	 -1.357882	 -0.655920	 -1.165207
H	 -2.140147	 0.011735	 0.257253
H	 -1.440790	 -1.601175	 0.317669

	symmetry c1
}
set optking {
	frozen_dihedral = ("
		1 2 3 4
	")
}

ee,wfn = optimize('scf', return_wfn=True)
oeprop( wfn, 'DIPOLE', 'QUADRUPOLE', 'MULLIKEN_CHARGES')
f=open( 'psi4out.xyz', 'w' )
f.write( "12  " )
f.write( str(ee) + "\n" )
f.write( MOL.save_string_xyz() )
f.close()
--------------------------------------------------------------------------

    Molecular point group: c1
  Charge       = 0
  Multiplicity = 1
  Basis Set: CC-PVTZ
  Basis Set:
  @DF-RHF Final Energy:  -193.19398694642311
    Total Energy =                       -193.1939869464231379
    Molecular point group: c1
  Basis Set: CC-PVTZ
  Basis Set:
  Basis Set: CC-PVTZ
  Basis Set:
  @DF-RHF Final Energy:  -193.15176208216064
    Total Energy =                       -193.1517620821605306
  Basis Set: CC-PVTZ
  Basis Set:
  Basis Set: CC-PVTZ
  Basis Set:
  @DF-RHF Final Energy:  -193.19375007180395
    Total Energy =                       -193.1937500718039189
  Basis Set: CC-PVTZ
  Basis Set:
  Basis Set: CC-PVTZ
  Basis Set:
  @DF-RHF Final Energy:  -193.19559232490229
    Total Energy =                       -193.1955923249024636
  Basis Set: CC-PVTZ
  Basis Set:
  Basis Set: CC-PVTZ
  Basis Set:
  @DF-RHF Final Energy:  -193.19564895090286
    Total Energy =                       -193.1956489509028643
  Basis Set: CC-PVTZ
  Basis Set:
  Basis Set: CC-PVTZ
  Basis Set:
  @DF-RHF Final Energy:  -193.19565358509365
    Total Energy =                       -193.1956535850936234
  Basis Set: CC-PVTZ
  Basis Set:
  Charge       = 0
  Multiplicity = 1
  Basis Set: CC-PVTZ
  Basis Set:

    Orbital Energies (a.u.)
    -----------------------

    Doubly Occupied:

       1A    -20.544020     2A    -11.274264     3A    -11.208392
       4A    -11.204982     5A     -1.364233     6A     -1.042925
       7A     -0.938733     8A     -0.801564     9A     -0.708601
      10A     -0.619561    11A     -0.603832    12A     -0.550221
      13A     -0.538339    14A     -0.527634    15A     -0.509426
      16A     -0.466927    17A     -0.433380

  @DF-RHF Final Energy:  -193.19565376826708

   => Energetics <=

    Nuclear Repulsion Energy =            135.6338468887221609
    One-Electron Energy =                -530.9849352828548490
    Two-Electron Energy =                 202.1554346258656096
    DFT Exchange-Correlation Energy =       0.0000000000000000
    Empirical Dispersion Energy =           0.0000000000000000
    PCM Polarization Energy =               0.0000000000000000
    EFP Energy =                            0.0000000000000000
    Total Energy =                       -193.1956537682671069
    Molecular point group: c1
  Basis Set: CC-PVTZ
  Basis Set:

  -Total Gradient:
     Atom            X                  Y                   Z
    ------   -----------------  -----------------  -----------------
       1        0.001170461714     0.000504381086     0.000628608917
       2       -0.001287151563    -0.000507158453    -0.000590132343
       3       -0.000413503124    -0.000252726671    -0.000665438399
       4        0.000505758057     0.000293581883     0.000628109606
       5        0.000018031188    -0.000005702726    -0.000000101757
       6        0.000002623743    -0.000018429206    -0.000002952999
       7       -0.000001116964    -0.000000122028    -0.000007898397
       8       -0.000018430186    -0.000002448821     0.000015424271
       9        0.000003056375    -0.000009940547    -0.000006424410
      10        0.000001435207     0.000005661156     0.000000946776
      11        0.000019168347     0.000003584889    -0.000002032166
      12       -0.000000332794    -0.000010680563     0.000001890901

  **** Optimization is complete! (in 7 steps) ****
    Final optimized geometry and variables:
    Molecular point group: c1

    Geometry (in Angstrom), charge = 0, multiplicity = 1:

    H           -0.813941146205     1.650585610802     0.686996177042
    O           -0.283890801661     1.280706445257     0.005488673327
    C            0.097194824653    -0.033014647575     0.343954965276
    C            1.308779199374    -0.377261683984    -0.501141853112
    C           -1.057525215180    -1.001157793121     0.134684726029
    H            0.391213317864    -0.061483043845     1.391420662305
    H            1.058145881828    -0.326446248751    -1.554567351558
    H            2.111331825800     0.323161533679    -0.309877098495
    H            1.661019594435    -1.377980884015    -0.279174027862
    H           -1.369878056168    -0.995133622218    -0.903061612837
    H           -1.909970271253    -0.721020321854     0.744496250180
    H           -0.771288381433    -2.011719374912     0.404587158143

  Mulliken Charges: (a.u.)
   Center  Symbol    Alpha    Beta     Spin     Total
       1     H     0.39493  0.39493  0.00000  0.21013
       2     O     4.20607  4.20607  0.00000 -0.41215
       3     C     2.92399  2.92399  0.00000  0.15203
       4     C     3.14097  3.14097  0.00000 -0.28193
       5     C     3.14177  3.14177  0.00000 -0.28355
       6     H     0.46701  0.46701  0.00000  0.06598
       7     H     0.45207  0.45207  0.00000  0.09587
       8     H     0.44782  0.44782  0.00000  0.10437
       9     H     0.45902  0.45902  0.00000  0.08195
      10     H     0.45176  0.45176  0.00000  0.09648
      11     H     0.45703  0.45703  0.00000  0.08593
      12     H     0.45755  0.45755  0.00000  0.08489

   Total alpha = 17.00000, Total beta = 17.00000, Total charge =  0.00000

*** Psi4 exiting successfully. Buy a developer a beer!
