  ==> Input File <==

--------------------------------------------------------------------------
set {
	reference rhf
	basis 6-31G*
}

set_num_threads( 1 )
memory 2 gb

molecule MOL {
0 1

O	 2.862325	 1.357334	 0.000267
C	 2.843464	 0.164689	 -0.000222
C	 1.546494	 -0.624492	 -0.000609
C	 4.124123	 -0.644674	 -0.000428
C	 0.291004	 0.242674	 0.000989
H	 1.557904	 -1.283758	 -0.867573
H	 1.558622	 -1.285963	 0.864672
C	 -0.992282	 -0.583832	 0.100127
H	 0.273493	 0.844921	 -0.901852
H	 0.343703	 0.943439	 0.828212
C	 -2.257870	 0.275246	 0.101234
H	 -1.036995	 -1.286793	 -0.730471
H	 -0.967394	 -1.186557	 1.006863
C	 -3.545753	 -0.544276	 0.200009
H	 -2.284156	 0.877674	 -0.805083
H	 -2.214670	 0.977767	 0.931653
C	 -4.805615	 0.320844	 0.200305
H	 -3.590640	 -1.246068	 -0.630230
H	 -3.521318	 -1.145762	 1.106362
H	 -4.876738	 0.909986	 -0.709642
H	 -5.701576	 -0.288258	 0.270656
H	 -4.807502	 1.010207	 1.039900
H	 4.165367	 -1.288615	 -0.874074
H	 4.976217	 0.020734	 -0.001915
H	 4.166763	 -1.286207	 0.874930

	symmetry c1
}
set optking {
	frozen_dihedral = ("
		9 5 8 12,
		15 11 8 12,
		15 11 14 18,
		1 2 3 6
	")
}

ee = energy('scf')
oeprop('DIPOLE', 'QUADRUPOLE', 'MULLIKEN_CHARGES')
f=open( 'psi4out.xyz', 'w' )
f.write( "25  " )
f.write( str(ee) + "\n" )
f.write( MOL.save_string_xyz() )
f.close()
--------------------------------------------------------------------------

    Molecular point group: c1

    Geometry (in Angstrom), charge = 0, multiplicity = 1:

       Center              X                  Y                   Z               Mass
    ------------   -----------------  -----------------  -----------------  -----------------
           O          2.860975289568     1.355504036890    -0.067126886751    15.994914619560
           C          2.842114289568     0.162859036890    -0.067615886751    12.000000000000
           C          1.545144289568    -0.626321963110    -0.068002886751    12.000000000000
           C          4.122773289568    -0.646503963110    -0.067821886751    12.000000000000
           C          0.289654289568     0.240844036890    -0.066404886751    12.000000000000
           H          1.556554289568    -1.285587963110    -0.934966886751     1.007825032070
           H          1.557272289568    -1.287792963110     0.797278113249     1.007825032070
           C         -0.993631710432    -0.585661963110     0.032733113249    12.000000000000
           H          0.272143289568     0.843091036890    -0.969245886751     1.007825032070
           H          0.342353289568     0.941609036890     0.760818113249     1.007825032070
           C         -2.259219710432     0.273416036890     0.033840113249    12.000000000000
           H         -1.038344710432    -1.288622963110    -0.797864886751     1.007825032070
           H         -0.968743710432    -1.188386963110     0.939469113249     1.007825032070
           C         -3.547102710432    -0.546105963110     0.132615113249    12.000000000000
           H         -2.285505710432     0.875844036890    -0.872476886751     1.007825032070
           H         -2.216019710432     0.975937036890     0.864259113249     1.007825032070
           C         -4.806964710432     0.319014036890     0.132911113249    12.000000000000
           H         -3.591989710432    -1.247897963110    -0.697623886751     1.007825032070
           H         -3.522667710432    -1.147591963110     1.038968113249     1.007825032070
           H         -4.878087710432     0.908156036890    -0.777035886751     1.007825032070
           H         -5.702925710432    -0.290087963110     0.203262113249     1.007825032070
           H         -4.808851710432     1.008377036890     0.972506113249     1.007825032070
           H          4.164017289568    -1.290444963110    -0.941467886751     1.007825032070
           H          4.974867289568     0.018904036890    -0.069308886751     1.007825032070
           H          4.165413289568    -1.288036963110     0.807536113249     1.007825032070

  Charge       = 0
  Multiplicity = 1
  Basis Set: 6-31G*
  Basis Set:

    Orbital Energies (a.u.)
    -----------------------

    Doubly Occupied:

       1A    -20.550468     2A    -11.326336     3A    -11.231868
       4A    -11.228358     5A    -11.217071     6A    -11.216471
       7A    -11.215353     8A    -11.213503     9A    -11.208305
      10A     -1.395788    11A     -1.093611    12A     -1.056321
      13A     -1.014520    14A     -0.969252    15A     -0.890704
      16A     -0.814086    17A     -0.790810    18A     -0.729922
      19A     -0.661644    20A     -0.651867    21A     -0.631886
      22A     -0.624118    23A     -0.595934    24A     -0.584279
      25A     -0.566401    26A     -0.559923    27A     -0.540167
      28A     -0.526168    29A     -0.512721    30A     -0.489961
      31A     -0.487690    32A     -0.473170    33A     -0.463768
      34A     -0.462297    35A     -0.450741    36A     -0.399445

  @DF-RHF Final Energy:  -387.13648513313456

   => Energetics <=

    Nuclear Repulsion Energy =            438.3491269467356233
    One-Electron Energy =               -1393.2813572263000879
    Two-Electron Energy =                 567.7957451464309315
    DFT Exchange-Correlation Energy =       0.0000000000000000
    Empirical Dispersion Energy =           0.0000000000000000
    PCM Polarization Energy =               0.0000000000000000
    EFP Energy =                            0.0000000000000000
    Total Energy =                       -387.1364851331335331

  Mulliken Charges: (a.u.)
   Center  Symbol    Alpha    Beta     Spin     Total
       1     O     4.26115  4.26115  0.00000 -0.52229
       2     C     2.73574  2.73574  0.00000  0.52851
       3     C     3.21093  3.21093  0.00000 -0.42185
       4     C     3.28664  3.28664  0.00000 -0.57327
       5     C     3.14811  3.14811  0.00000 -0.29622
       6     H     0.40982  0.40982  0.00000  0.18037
       7     H     0.41011  0.41011  0.00000  0.17979
       8     C     3.15394  3.15394  0.00000 -0.30788
       9     H     0.41327  0.41327  0.00000  0.17347
      10     H     0.41090  0.41090  0.00000  0.17821
      11     C     3.15074  3.15074  0.00000 -0.30147
      12     H     0.42498  0.42498  0.00000  0.15004
      13     H     0.42476  0.42476  0.00000  0.15048
      14     C     3.15150  3.15150  0.00000 -0.30300
      15     H     0.42256  0.42256  0.00000  0.15488
      16     H     0.42231  0.42231  0.00000  0.15538
      17     C     3.23933  3.23933  0.00000 -0.47867
      18     H     0.42356  0.42356  0.00000  0.15288
      19     H     0.42352  0.42352  0.00000  0.15296
      20     H     0.42141  0.42141  0.00000  0.15719
      21     H     0.41953  0.41953  0.00000  0.16093
      22     H     0.42134  0.42134  0.00000  0.15733
      23     H     0.40873  0.40873  0.00000  0.18255
      24     H     0.39645  0.39645  0.00000  0.20709
      25     H     0.40870  0.40870  0.00000  0.18260

   Total alpha = 36.00000, Total beta = 36.00000, Total charge = -0.00000
