  ==> Input File <==

--------------------------------------------------------------------------
set {
	reference rhf
	basis 6-31G*
}

set_num_threads( 1 )
memory 2 gb

molecule MOL {
0 1

O	 0.216491	 0.013008	 -0.762521
C	 1.122059	 0.121804	 -0.000188
C	 1.241602	 1.171918	 1.077246
O	 2.172624	 -0.688929	 0.000216
C	 0.057845	 2.133248	 1.120896
H	 1.362481	 0.653043	 2.024301
H	 2.174543	 1.703489	 0.910493
C	 0.204389	 3.186398	 2.220336
H	 -0.857006	 1.568606	 1.271666
H	 -0.044077	 2.620231	 0.156032
C	 -0.976773	 4.154572	 2.270318
H	 0.306953	 2.693104	 3.184815
H	 1.123863	 3.747472	 2.065953
H	 -1.907554	 3.627190	 2.457853
H	 -0.848180	 4.890305	 3.057996
H	 -1.084423	 4.689526	 1.331236
C	 3.452279	 -0.082609	 0.000533
H	 3.583069	 0.529321	 -0.880332
H	 4.163299	 -0.894027	 0.001117
H	 3.582335	 0.529955	 0.881077

	symmetry c1
}
set optking {
	frozen_dihedral = ("
		9 5 8 12,
		1 2 3 6,
		9 5 3 6
	")
}

ee = energy('scf')
oeprop('DIPOLE', 'QUADRUPOLE', 'MULLIKEN_CHARGES')
f=open( 'psi4out.xyz', 'w' )
f.write( "20  " )
f.write( str(ee) + "\n" )
f.write( MOL.save_string_xyz() )
f.close()
--------------------------------------------------------------------------

    Molecular point group: c1

    Geometry (in Angstrom), charge = 0, multiplicity = 1:

       Center              X                  Y                   Z               Mass
    ------------   -----------------  -----------------  -----------------  -----------------
           O         -0.740372002401    -1.227279012310    -1.491888614074    15.994914619560
           C          0.165195997599    -1.118483012310    -0.729555614074    12.000000000000
           C          0.284738997599    -0.068369012310     0.347878385926    12.000000000000
           O          1.215760997599    -1.929216012310    -0.729151614074    15.994914619560
           C         -0.899018002401     0.892960987690     0.391528385926    12.000000000000
           H          0.405617997599    -0.587244012310     1.294933385926     1.007825032070
           H          1.217679997599     0.463201987690     0.181125385926     1.007825032070
           C         -0.752474002401     1.946110987690     1.490968385926    12.000000000000
           H         -1.813869002401     0.328318987690     0.542298385926     1.007825032070
           H         -1.000940002401     1.379943987690    -0.573335614074     1.007825032070
           C         -1.933636002401     2.914284987690     1.540950385926    12.000000000000
           H         -0.649910002401     1.452816987690     2.455447385926     1.007825032070
           H          0.166999997599     2.507184987690     1.336585385926     1.007825032070
           H         -2.864417002401     2.386902987690     1.728485385926     1.007825032070
           H         -1.805043002401     3.650017987690     2.328628385926     1.007825032070
           H         -2.041286002401     3.449238987690     0.601868385926     1.007825032070
           C          2.495415997599    -1.322896012310    -0.728834614074    12.000000000000
           H          2.626205997599    -0.710966012310    -1.609699614074     1.007825032070
           H          3.206435997599    -2.134314012310    -0.728250614074     1.007825032070
           H          2.625471997599    -0.710332012310     0.151709385926     1.007825032070

  Charge       = 0
  Multiplicity = 1
  Basis Set: 6-31G*
  Basis Set:

    Orbital Energies (a.u.)
    -----------------------

    Doubly Occupied:

       1A    -20.596083     2A    -20.551444     3A    -11.374470
       4A    -11.297296     5A    -11.239504     6A    -11.223420
       7A    -11.222264     8A    -11.212987     9A     -1.465662
      10A     -1.369646    11A     -1.090930    12A     -1.017822
      13A     -0.984920    14A     -0.903354    15A     -0.810698
      16A     -0.767297    17A     -0.698671    18A     -0.684142
      19A     -0.681024    20A     -0.649341    21A     -0.617579
      22A     -0.591539    23A     -0.584932    24A     -0.558307
      25A     -0.540860    26A     -0.522024    27A     -0.497204
      28A     -0.481991    29A     -0.479122    30A     -0.473538
      31A     -0.454740    32A     -0.430980

  @DF-RHF Final Energy:  -383.91549564621772

   => Energetics <=

    Nuclear Repulsion Energy =            385.2053123842331956
    One-Electron Energy =               -1286.0939714737933173
    Two-Electron Energy =                 516.9731634433418321
    DFT Exchange-Correlation Energy =       0.0000000000000000
    Empirical Dispersion Energy =           0.0000000000000000
    PCM Polarization Energy =               0.0000000000000000
    EFP Energy =                            0.0000000000000000
    Total Energy =                       -383.9154956462183463

  Mulliken Charges: (a.u.)
   Center  Symbol    Alpha    Beta     Spin     Total
       1     O     4.26283  4.26283  0.00000 -0.52566
       2     C     2.60193  2.60193  0.00000  0.79614
       3     C     3.23255  3.23255  0.00000 -0.46510
       4     O     4.30345  4.30345  0.00000 -0.60691
       5     C     3.14869  3.14869  0.00000 -0.29738
       6     H     0.39883  0.39883  0.00000  0.20233
       7     H     0.40551  0.40551  0.00000  0.18898
       8     C     3.15403  3.15403  0.00000 -0.30805
       9     H     0.40995  0.40995  0.00000  0.18009
      10     H     0.41207  0.41207  0.00000  0.17586
      11     C     3.23948  3.23948  0.00000 -0.47896
      12     H     0.42312  0.42312  0.00000  0.15377
      13     H     0.42472  0.42472  0.00000  0.15055
      14     H     0.41913  0.41913  0.00000  0.16174
      15     H     0.41864  0.41864  0.00000  0.16272
      16     H     0.41980  0.41980  0.00000  0.16041
      17     C     3.10086  3.10086  0.00000 -0.20172
      18     H     0.41129  0.41129  0.00000  0.17742
      19     H     0.39829  0.39829  0.00000  0.20342
      20     H     0.41482  0.41482  0.00000  0.17035

   Total alpha = 32.00000, Total beta = 32.00000, Total charge =  0.00000
