                              Psi4 1.0.54 Driver

  ==> Input File <==

--------------------------------------------------------------------------
set {
	reference rhf
	basis cc-pvtz
}

set_num_threads( 4 )
memory 2 gb

molecule MOL {
0 1

H	 2.333246	 -2.035921	 -0.323104
N	 1.352322	 -1.860787	 -0.328286
C	 1.020849	 -0.832636	 -1.294140
C	 0.887053	 -1.514161	 0.999576
H	 1.361507	 -1.144161	 -2.274066
H	 1.495465	 0.122536	 -1.061750
C	 -0.483625	 -0.632843	 -1.320894
H	 1.130759	 -2.319534	 1.681729
H	 1.353215	 -0.602047	 1.376884
C	 -0.617246	 -1.313475	 0.969816
H	 -0.956151	 -1.541712	 -1.704646
H	 -0.728907	 0.175954	 -1.998982
N	 -0.976577	 -0.298712	 -0.000000
H	 -0.959144	 -0.996817	 1.948056
H	 -1.098978	 -2.269234	 0.743874
C	 -2.391156	 -0.021003	 -0.000000
H	 -2.853954	 -0.458728	 -0.875714
H	 -2.853954	 -0.458728	 0.875714
H	 -2.614037	 1.049773	 -0.000000

	symmetry c1
}
set optking {
	frozen_dihedral = ("
		7 13 16 19
	")
}

ee,wfn = optimize('scf', return_wfn=True)
oeprop( wfn, 'DIPOLE', 'QUADRUPOLE', 'MULLIKEN_CHARGES')
f=open( 'psi4out.xyz', 'w' )
f.write( "19  " )
f.write( str(ee) + "\n" )
f.write( MOL.save_string_xyz() )
f.close()
--------------------------------------------------------------------------

    Molecular point group: c1
  Charge       = 0
  Multiplicity = 1
  Basis Set: CC-PVTZ
  Basis Set:
  @DF-RHF Final Energy:  -305.30336889312503
    Total Energy =                       -305.3033688931251390
    Molecular point group: c1
  Basis Set: CC-PVTZ
  Basis Set:
  Basis Set: CC-PVTZ
  Basis Set:
  @DF-RHF Final Energy:  -305.30396332495508
    Total Energy =                       -305.3039633249547933
  Basis Set: CC-PVTZ
  Basis Set:
  Basis Set: CC-PVTZ
  Basis Set:
  @DF-RHF Final Energy:  -305.30407579796787
    Total Energy =                       -305.3040757979678119
  Basis Set: CC-PVTZ
  Basis Set:
  Basis Set: CC-PVTZ
  Basis Set:
  @DF-RHF Final Energy:  -305.30407892331039
    Total Energy =                       -305.3040789233103851
  Basis Set: CC-PVTZ
  Basis Set:
  Charge       = 0
  Multiplicity = 1
  Basis Set: CC-PVTZ
  Basis Set:

    Orbital Energies (a.u.)
    -----------------------

    Doubly Occupied:

       1A    -15.534936     2A    -15.530693     3A    -11.236627
       4A    -11.236609     5A    -11.235677     6A    -11.235597
       7A    -11.232798     8A     -1.246898     9A     -1.185797
      10A     -1.023283    11A     -0.964990    12A     -0.860915
      13A     -0.859004    14A     -0.757664    15A     -0.692087
      16A     -0.632338    17A     -0.624378    18A     -0.608280
      19A     -0.604468    20A     -0.581358    21A     -0.543394
      22A     -0.535416    23A     -0.511656    24A     -0.488722
      25A     -0.466167    26A     -0.457113    27A     -0.365440
      28A     -0.345516

  @DF-RHF Final Energy:  -305.30407926870936

   => Energetics <=

    Nuclear Repulsion Energy =            339.9009744897372798
    One-Electron Energy =               -1087.2144626214555956
    Two-Electron Energy =                 442.0094088630087299
    DFT Exchange-Correlation Energy =       0.0000000000000000
    Empirical Dispersion Energy =           0.0000000000000000
    PCM Polarization Energy =               0.0000000000000000
    EFP Energy =                            0.0000000000000000
    Total Energy =                       -305.3040792687095291
    Molecular point group: c1
  Basis Set: CC-PVTZ
  Basis Set:

  -Total Gradient:
     Atom            X                  Y                   Z
    ------   -----------------  -----------------  -----------------
       1       -0.000002710852    -0.000000102534     0.000004207100
       2       -0.000010379338    -0.000001740569     0.000000127564
       3        0.000016316400    -0.000007711525    -0.000018506403
       4        0.000023325786    -0.000000698875     0.000009892090
       5        0.000003992750    -0.000001450831    -0.000000310532
       6       -0.000005069005     0.000001576828    -0.000001585842
       7       -0.000600977395    -0.002949736240     0.000540379340
       8        0.000001841665    -0.000001397289    -0.000000426088
       9       -0.000001425495     0.000001180449     0.000001882818
      10       -0.000018727651     0.000049556952    -0.000027077064
      11       -0.000005337824    -0.000005712233    -0.000002660998
      12        0.000000967970    -0.000004108117    -0.000007646597
      13        0.000793217714     0.004043722248     0.000397597544
      14        0.000001828485    -0.000006005637    -0.000000718848
      15       -0.000004221921    -0.000004752098    -0.000001007874
      16       -0.000193681680    -0.001017289627    -0.004994032673
      17        0.000003398303    -0.000010735756     0.000003947869
      18       -0.000008956125    -0.000014040138     0.000005439544
      19        0.000006598213    -0.000070555005     0.004090499051

  **** Optimization is complete! (in 5 steps) ****
    Final optimized geometry and variables:
    Molecular point group: c1

    Geometry (in Angstrom), charge = 0, multiplicity = 1:

    H            2.537086839296    -1.066358278557    -0.208415222655
    N            1.552611034299    -0.911814077290    -0.208649707557
    C            1.195732556884     0.120606427988    -1.160325084627
    C            1.084032590958    -0.591572529468     1.124368827393
    H            1.533851359117    -0.173892749815    -2.146574132886
    H            1.654617376908     1.081886854183    -0.921305813338
    C           -0.312158845160     0.292652872557    -1.172815559145
    H            1.345407115069    -1.400562173474     1.795897070801
    H            1.532957673707     0.324957469835     1.512164028028
    C           -0.424202754726    -0.418905572594     1.104181665005
    H           -0.771692770032    -0.621557655235    -1.558589711043
    H           -0.575909017606     1.100757275859    -1.845570227937
    N           -0.804635604435     0.608931381139     0.153449085147
    H           -0.761385606902    -0.124445063362     2.090376968536
    H           -0.887896902913    -1.380770163997     0.867101135282
    C           -2.228349375728     0.895417383055     0.159087638072
    H           -2.744883365891     0.462330412183    -0.694318838716
    H           -2.690237140046     0.490741657357     1.051429071400
    H           -2.409015546461     1.964671261475     0.175890217503

  Mulliken Charges: (a.u.)
   Center  Symbol    Alpha    Beta     Spin     Total
       1     H     0.44001  0.44001  0.00000  0.11998
       2     N     3.64285  3.64285  0.00000 -0.28571
       3     C     3.04174  3.04174  0.00000 -0.08347
       4     C     3.04202  3.04202  0.00000 -0.08404
       5     H     0.45270  0.45270  0.00000  0.09460
       6     H     0.46570  0.46570  0.00000  0.06861
       7     C     3.03581  3.03581  0.00000 -0.07162
       8     H     0.45266  0.45266  0.00000  0.09468
       9     H     0.46584  0.46584  0.00000  0.06831
      10     C     3.03380  3.03380  0.00000 -0.06760
      11     H     0.46807  0.46807  0.00000  0.06387
      12     H     0.45345  0.45345  0.00000  0.09309
      13     N     3.61757  3.61757  0.00000 -0.23513
      14     H     0.45395  0.45395  0.00000  0.09210
      15     H     0.46867  0.46867  0.00000  0.06266
      16     C     3.09303  3.09303  0.00000 -0.18606
      17     H     0.46388  0.46388  0.00000  0.07225
      18     H     0.45831  0.45831  0.00000  0.08338
      19     H     0.44994  0.44994  0.00000  0.10012

   Total alpha = 28.00000, Total beta = 28.00000, Total charge =  0.00000

*** Psi4 exiting successfully. Buy a developer a beer!
