  ==> Input File <==

--------------------------------------------------------------------------
set {
	reference rhf
	basis cc-pvtz
}

set_num_threads( 4 )
memory 2 gb

molecule MOL {
0 1

H	 0.388538	 -0.361275	 -2.135107
O	 -0.052685	 0.458332	 -2.269342
C	 -0.031276	 1.203176	 -1.091048
C	 -0.793473	 0.591216	 0.050087
H	 -0.461774	 2.168389	 -1.330499
H	 0.991488	 1.391332	 -0.769720
C	 -1.534243	 -0.493009	 -0.013340
H	 -0.700710	 1.117952	 0.985605
H	 -1.101195	 -1.466332	 -0.144046
H	 -2.604242	 -0.437780	 0.050785

	symmetry c1
}
set optking {
	frozen_dihedral = ("
		3 4 7 9
	")
}

ee = optimize('scf')
oeprop('DIPOLE', 'QUADRUPOLE', 'MULLIKEN_CHARGES')
f=open( 'psi4out.xyz', 'w' )
f.write( "10  " )
f.write( str(ee) + "\n" )
f.write( MOL.save_string_xyz() )
f.close()
--------------------------------------------------------------------------

    Molecular point group: c1
  Charge       = 0
  Multiplicity = 1
  Basis Set: CC-PVTZ
  Basis Set:
  @DF-RHF Final Energy:  -191.88754306510231
    Total Energy =                       -191.8875430651023635
    Molecular point group: c1
  Basis Set: CC-PVTZ
  Basis Set:
  Basis Set: CC-PVTZ
  Basis Set:
  @DF-RHF Final Energy:  -191.91898119156724
    Total Energy =                       -191.9189811915672124
  Basis Set: CC-PVTZ
  Basis Set:
  Basis Set: CC-PVTZ
  Basis Set:
  @DF-RHF Final Energy:  -191.94912468672305
    Total Energy =                       -191.9491246867230245
  Basis Set: CC-PVTZ
  Basis Set:
  Basis Set: CC-PVTZ
  Basis Set:
  @DF-RHF Final Energy:  -191.95814826464226
    Total Energy =                       -191.9581482646421193
  Basis Set: CC-PVTZ
  Basis Set:
  @DF-RHF Final Energy:  -191.95865062127154
    Total Energy =                       -191.9586506212715449
  @DF-RHF Final Energy:  -191.95874562342311
    Total Energy =                       -191.9587456234231979
  @DF-RHF Final Energy:  -191.95880718515025
    Total Energy =                       -191.9588071851502491
  @DF-RHF Final Energy:  -191.95880815919878
    Total Energy =                       -191.9588081591987248
  @DF-RHF Final Energy:  -191.95790027831228
    Total Energy =                       -191.9579002783123087
  @DF-RHF Final Energy:  -191.95525894998281
    Total Energy =                       -191.9552589499828059
  Basis Set: CC-PVTZ
  Basis Set:
  @DF-RHF Final Energy:  -191.95872488864907
    Total Energy =                       -191.9587248886490158
  Basis Set: CC-PVTZ
  Basis Set:
  Basis Set: CC-PVTZ
  Basis Set:
  @DF-RHF Final Energy:  -191.95880308490544
    Total Energy =                       -191.9588030849053553
  Basis Set: CC-PVTZ
  Basis Set:
  Basis Set: CC-PVTZ
  Basis Set:
  @DF-RHF Final Energy:  -191.95880908181121
    Total Energy =                       -191.9588090818112107
  Basis Set: CC-PVTZ
  Basis Set:
  Charge       = 0
  Multiplicity = 1
  Basis Set: CC-PVTZ
  Basis Set:

    Orbital Energies (a.u.)
    -----------------------

    Doubly Occupied:

       1A    -20.553127     2A    -11.283041     3A    -11.239013
       4A    -11.222757     5A     -1.373124     6A     -1.063027
       7A     -0.935875     8A     -0.773441     9A     -0.692905
      10A     -0.652496    11A     -0.616985    12A     -0.573900
      13A     -0.546433    14A     -0.488346    15A     -0.449653
      16A     -0.357194

  @DF-RHF Final Energy:  -191.95880961576205

   => Energetics <=

    Nuclear Repulsion Energy =            117.9878935743681865
    One-Electron Energy =                -494.2507724846656174
    Two-Electron Energy =                 184.3040692945353953
    DFT Exchange-Correlation Energy =       0.0000000000000000
    Empirical Dispersion Energy =           0.0000000000000000
    PCM Polarization Energy =               0.0000000000000000
    EFP Energy =                            0.0000000000000000
    Total Energy =                       -191.9588096157620498
    Molecular point group: c1
  Basis Set: CC-PVTZ
  Basis Set:

  -Total Gradient:
     Atom            X                  Y                   Z
    ------   -----------------  -----------------  -----------------
       1        0.000011957390     0.000000516812    -0.000006237966
       2        0.000003557129    -0.000021871208    -0.000000782670
       3       -0.018847638294     0.020148447126     0.000540339519
       4        0.035803998276    -0.039919416910     0.015779328247
       5        0.000017912535     0.000036028510     0.000012606182
       6        0.000001848968    -0.000004726104    -0.000013136936
       7       -0.024669631520     0.031295879208    -0.051284939785
       8        0.000135539878    -0.000114401954     0.000111507162
       9        0.007486642674    -0.011379085633     0.034839289882
      10        0.000055812967    -0.000041369846     0.000022026363

  **** Optimization is complete! (in 14 steps) ****
    Final optimized geometry and variables:
    Molecular point group: c1

    Geometry (in Angstrom), charge = 0, multiplicity = 1:

    H            1.261042996117    -0.694175263394    -1.206146317356
    O            0.698161929786     0.043464759428    -1.356139935395
    C            0.524206871380     0.759967353921    -0.171800679417
    C           -0.214542572862     0.041365218795     0.927556636578
    H           -0.091577717513     1.615077672589    -0.414795387604
    H            1.474508827334     1.145384794683     0.192649088640
    C           -1.187017464604    -0.863661543497     0.841525277345
    H           -0.331875238630     0.734615996629     1.752038405170
    H           -1.091113497785    -1.877227238346     0.488857037623
    H           -1.854827995173    -0.871352858753     1.691768055800

  Mulliken Charges: (a.u.)
   Center  Symbol    Alpha    Beta     Spin     Total
       1     H     0.39331  0.39331  0.00000  0.21338
       2     O     4.19622  4.19622  0.00000 -0.39243
       3     C     2.95939  2.95939  0.00000  0.08121
       4     C     3.08420  3.08420  0.00000 -0.16840
       5     H     0.44715  0.44715  0.00000  0.10571
       6     H     0.46382  0.46382  0.00000  0.07236
       7     C     3.15449  3.15449  0.00000 -0.30899
       8     H     0.43445  0.43445  0.00000  0.13110
       9     H     0.42947  0.42947  0.00000  0.14105
      10     H     0.43750  0.43750  0.00000  0.12500

   Total alpha = 16.00000, Total beta = 16.00000, Total charge =  0.00000
