  ==> Input File <==

--------------------------------------------------------------------------
set {
	reference rhf
	basis 6-31G*
}

set_num_threads( 4 )
memory 2 gb

molecule MOL {
0 1

H	 -2.570561	 -0.626790	 -0.776789
O	 -2.347518	 -0.290803	 0.079804
C	 -1.184022	 0.487508	 -0.006784
C	 0.062599	 -0.378592	 0.031606
H	 -1.176523	 1.099369	 -0.904519
H	 -1.187323	 1.153111	 0.844927
O	 1.171513	 0.459272	 -0.058250
H	 0.050699	 -1.089204	 -0.797170
H	 0.078739	 -0.954914	 0.954740
C	 2.397842	 -0.198080	 -0.002151
H	 2.508049	 -0.905315	 -0.822092
H	 3.173794	 0.550865	 -0.078850
H	 2.517602	 -0.735921	 0.936026

	symmetry c1
}
set optking {
	frozen_dihedral = ("
		1 2 3 5
	")
}

ee = optimize('scf')
oeprop('DIPOLE', 'QUADRUPOLE', 'MULLIKEN_CHARGES')
f=open( 'psi4out.xyz', 'w' )
f.write( "13  " )
f.write( str(ee) + "\n" )
f.write( MOL.save_string_xyz() )
f.close()
--------------------------------------------------------------------------

    Molecular point group: c1
  Charge       = 0
  Multiplicity = 1
  Basis Set: 6-31G*
  Basis Set:
  @DF-RHF Final Energy:  -267.95054178797182
    Total Energy =                       -267.9505417879715878
    Molecular point group: c1
  Basis Set: 6-31G*
  Basis Set:
  Basis Set: 6-31G*
  Basis Set:
  @DF-RHF Final Energy:  -267.95055111503461
    Total Energy =                       -267.9505511150346706
  Basis Set: 6-31G*
  Basis Set:
  Basis Set: 6-31G*
  Basis Set:
  @DF-RHF Final Energy:  -267.95055574434349
    Total Energy =                       -267.9505557443435464
  Basis Set: 6-31G*
  Basis Set:
  Charge       = 0
  Multiplicity = 1
  Basis Set: 6-31G*
  Basis Set:

    Orbital Energies (a.u.)
    -----------------------

    Doubly Occupied:

       1A    -20.561629     2A    -20.559946     3A    -11.269713
       4A    -11.269696     5A    -11.268990     6A     -1.387956
       7A     -1.364883     8A     -1.018184     9A     -0.912950
      10A     -0.840224    11A     -0.710713    12A     -0.674057
      13A     -0.658267    14A     -0.638022    15A     -0.596752
      16A     -0.566102    17A     -0.545579    18A     -0.487467
      19A     -0.483696    20A     -0.437915    21A     -0.421350

  @DF-RHF Final Energy:  -267.95055579645776

   => Energetics <=

    Nuclear Repulsion Energy =            190.2015284531470911
    One-Electron Energy =                -742.9559848497366374
    Two-Electron Energy =                 284.8039006001318967
    DFT Exchange-Correlation Energy =       0.0000000000000000
    Empirical Dispersion Energy =           0.0000000000000000
    PCM Polarization Energy =               0.0000000000000000
    EFP Energy =                            0.0000000000000000
    Total Energy =                       -267.9505557964577065
    Molecular point group: c1
  Basis Set: 6-31G*
  Basis Set:

  -Total Gradient:
     Atom            X                  Y                   Z
    ------   -----------------  -----------------  -----------------
       1       -0.000383605617     0.000540101178    -0.000117572854
       2        0.000559482600    -0.000776285368     0.000031116946
       3       -0.000456956639     0.000681287506     0.000395838720
       4        0.000021071335     0.000006427184    -0.000006605286
       5        0.000262832388    -0.000446874408    -0.000294872990
       6        0.000005847119     0.000007717759    -0.000001300482
       7       -0.000003781972    -0.000003576980    -0.000001658889
       8        0.000006334954    -0.000009832193    -0.000003200460
       9       -0.000006570631     0.000003751778     0.000000950579
      10       -0.000002507368    -0.000005315907    -0.000002991528
      11        0.000002487194     0.000000117294    -0.000000265350
      12       -0.000004733128     0.000001928080    -0.000000146859
      13        0.000000099766     0.000000554077     0.000000708454

  **** Optimization is complete! (in 4 steps) ****
    Final optimized geometry and variables:
    Molecular point group: c1

    Geometry (in Angstrom), charge = 0, multiplicity = 1:

    H           -2.564425121302    -0.636482442996    -0.773572216475
    O           -2.344536603718    -0.294566344185     0.080954499497
    C           -1.183455468838     0.488707296025    -0.006043274636
    C            0.062171672601    -0.378841089274     0.030021241641
    H           -1.175683036379     1.095719154959    -0.906690794809
    H           -1.183325509282     1.157216792368     0.843607533320
    O            1.172437869650     0.458658757147    -0.056730036581
    H            0.048918876307    -1.086910025190    -0.800265012374
    H            0.077398500413    -0.956947186137     0.951920873029
    C            2.397902919666    -0.200408755431    -0.001706497107
    H            2.507240636282    -0.905418010342    -0.823665095921
    H            3.174991427607     0.547703102336    -0.076014803252
    H            2.516456510116    -0.741072441922     0.935037134123

  Mulliken Charges: (a.u.)
   Center  Symbol    Alpha    Beta     Spin     Total
       1     H     0.28040  0.28040  0.00000  0.43920
       2     O     4.37141  4.37141  0.00000 -0.74282
       3     C     3.00608  3.00608  0.00000 -0.01217
       4     C     2.99495  2.99495  0.00000  0.01010
       5     H     0.42244  0.42244  0.00000  0.15511
       6     H     0.40887  0.40887  0.00000  0.18226
       7     O     4.30794  4.30794  0.00000 -0.61588
       8     H     0.43663  0.43663  0.00000  0.12675
       9     H     0.42343  0.42343  0.00000  0.15314
      10     C     3.07981  3.07981  0.00000 -0.15962
      11     H     0.42933  0.42933  0.00000  0.14135
      12     H     0.41095  0.41095  0.00000  0.17809
      13     H     0.42775  0.42775  0.00000  0.14449

   Total alpha = 21.00000, Total beta = 21.00000, Total charge = -0.00000
