  ==> Input File <==

--------------------------------------------------------------------------
set {
	reference rhf
	basis 6-31G*
}

set_num_threads( 1 )
memory 2 gb

molecule MOL {
0 1

H	 -2.698709	 -0.000305	 0.034435
C	 -1.693833	 0.000034	 0.434417
O	 -0.828952	 -0.000968	 -0.659236
H	 -1.574200	 0.882896	 1.055746
H	 -1.574147	 -0.881698	 1.057355
C	 0.544714	 0.213995	 -0.432663
C	 0.834523	 1.603972	 0.130268
C	 1.180827	 -0.895015	 0.403050
H	 0.969296	 0.164150	 -1.428292
H	 0.326872	 2.361208	 -0.457468
H	 1.900877	 1.803668	 0.094986
H	 0.518365	 1.702903	 1.163913
H	 0.912291	 -1.867422	 0.004590
H	 2.262305	 -0.803993	 0.378857
H	 0.873454	 -0.853655	 1.443075

	symmetry c1
}
set optking {
	frozen_dihedral = ("
		9 6 3 2
	")
}

ee = energy('scf')
oeprop('DIPOLE', 'QUADRUPOLE', 'MULLIKEN_CHARGES')
f=open( 'psi4out.xyz', 'w' )
f.write( "15  " )
f.write( str(ee) + "\n" )
f.write( MOL.save_string_xyz() )
f.close()
--------------------------------------------------------------------------

    Molecular point group: c1

    Geometry (in Angstrom), charge = 0, multiplicity = 1:

       Center              X                  Y                   Z               Mass
    ------------   -----------------  -----------------  -----------------  -----------------
           H         -2.686115444133    -0.183741527566     0.044562427536     1.007825032070
           C         -1.681239444133    -0.183402527566     0.444544427536    12.000000000000
           O         -0.816358444133    -0.184404527566    -0.649108572464    15.994914619560
           H         -1.561606444133     0.699459472434     1.065873427536     1.007825032070
           H         -1.561553444133    -1.065134527566     1.067482427536     1.007825032070
           C          0.557307555867     0.030558472434    -0.422535572464    12.000000000000
           C          0.847116555867     1.420535472434     0.140395427536    12.000000000000
           C          1.193420555867    -1.078451527566     0.413177427536    12.000000000000
           H          0.981889555867    -0.019286527566    -1.418164572464     1.007825032070
           H          0.339465555867     2.177771472434    -0.447340572464     1.007825032070
           H          1.913470555867     1.620231472434     0.105113427536     1.007825032070
           H          0.530958555867     1.519466472434     1.174040427536     1.007825032070
           H          0.924884555867    -2.050858527566     0.014717427536     1.007825032070
           H          2.274898555867    -0.987429527566     0.388984427536     1.007825032070
           H          0.886047555867    -1.037091527566     1.453202427536     1.007825032070

  Charge       = 0
  Multiplicity = 1
  Basis Set: 6-31G*
  Basis Set:

    Orbital Energies (a.u.)
    -----------------------

    Doubly Occupied:

       1A    -20.548311     2A    -11.274350     3A    -11.260940
       4A    -11.210640     5A    -11.210466     6A     -1.370433
       7A     -1.050538     8A     -0.939604     9A     -0.931295
      10A     -0.781279    11A     -0.674369    12A     -0.640191
      13A     -0.633451    14A     -0.572730    15A     -0.565451
      16A     -0.552726    17A     -0.534171    18A     -0.497428
      19A     -0.496822    20A     -0.443070    21A     -0.406519

  @DF-RHF Final Energy:  -232.13757349424398

   => Energetics <=

    Nuclear Repulsion Energy =            198.7720655831538750
    One-Electron Energy =                -708.6296192579792432
    Two-Electron Energy =                 277.7199801805813877
    DFT Exchange-Correlation Energy =       0.0000000000000000
    Empirical Dispersion Energy =           0.0000000000000000
    PCM Polarization Energy =               0.0000000000000000
    EFP Energy =                            0.0000000000000000
    Total Energy =                       -232.1375734942439522

  Mulliken Charges: (a.u.)
   Center  Symbol    Alpha    Beta     Spin     Total
       1     H     0.41287  0.41287  0.00000  0.17426
       2     C     3.08171  3.08171  0.00000 -0.16343
       3     O     4.31191  4.31191  0.00000 -0.62381
       4     H     0.42987  0.42987  0.00000  0.14027
       5     H     0.42861  0.42861  0.00000  0.14277
       6     C     2.90884  2.90884  0.00000  0.18232
       7     C     3.25358  3.25358  0.00000 -0.50716
       8     C     3.25314  3.25314  0.00000 -0.50628
       9     H     0.41515  0.41515  0.00000  0.16970
      10     H     0.41138  0.41138  0.00000  0.17725
      11     H     0.41916  0.41916  0.00000  0.16168
      12     H     0.42137  0.42137  0.00000  0.15727
      13     H     0.41144  0.41144  0.00000  0.17712
      14     H     0.41950  0.41950  0.00000  0.16101
      15     H     0.42148  0.42148  0.00000  0.15704

   Total alpha = 21.00000, Total beta = 21.00000, Total charge =  0.00000
