  ==> Input File <==

--------------------------------------------------------------------------
set {
	reference rhf
	basis 6-31G*
}

set_num_threads( 4 )
memory 2 gb

molecule MOL {
0 1

H	 1.397417	 3.140629	 -4.559210
C	 1.372010	 2.575796	 -3.644277
C	 0.609307	 3.023841	 -2.576247
C	 2.101814	 1.402439	 -3.536800
H	 0.043780	 3.933993	 -2.660921
C	 0.577140	 2.297037	 -1.400151
H	 2.692471	 1.056687	 -4.365766
C	 2.071124	 0.673258	 -2.360480
H	 -0.007462	 2.628567	 -0.563491
C	 1.307693	 1.119628	 -1.288244
H	 2.634324	 -0.235289	 -2.272908
C	 1.239129	 0.373821	 0.000060
O	 1.970282	 -0.730723	 0.000018
O	 0.596448	 0.725491	 0.939287
C	 3.377318	 -0.566646	 -0.000065
H	 3.695437	 -0.028981	 -0.881264
H	 3.789299	 -1.563704	 0.000236
H	 3.695516	 -0.028316	 0.880770

	symmetry c1
}
set optking {
	frozen_dihedral = ("
		10 12 13 15
	")
}

ee = optimize('scf')
oeprop('DIPOLE', 'QUADRUPOLE', 'MULLIKEN_CHARGES')
f=open( 'psi4out.xyz', 'w' )
f.write( "18  " )
f.write( str(ee) + "\n" )
f.write( MOL.save_string_xyz() )
f.close()
--------------------------------------------------------------------------

    Molecular point group: c1
  Charge       = 0
  Multiplicity = 1
  Basis Set: 6-31G*
  Basis Set:
  @DF-RHF Final Energy:  -457.32046181358010
    Total Energy =                       -457.3204618135798682
    Molecular point group: c1
  Basis Set: 6-31G*
  Basis Set:
  Basis Set: 6-31G*
  Basis Set:
  @DF-RHF Final Energy:  -457.32746828181837
    Total Energy =                       -457.3274682818185966
  Basis Set: 6-31G*
  Basis Set:
  Basis Set: 6-31G*
  Basis Set:
  @DF-RHF Final Energy:  -457.32844076593165
    Total Energy =                       -457.3284407659313047
  Basis Set: 6-31G*
  Basis Set:
  Basis Set: 6-31G*
  Basis Set:
  @DF-RHF Final Energy:  -457.32958599134645
    Total Energy =                       -457.3295859913471304
  Basis Set: 6-31G*
  Basis Set:
  Basis Set: 6-31G*
  Basis Set:
  @DF-RHF Final Energy:  -457.32995766433783
    Total Energy =                       -457.3299576643373712
  Basis Set: 6-31G*
  Basis Set:
  Basis Set: 6-31G*
  Basis Set:
  @DF-RHF Final Energy:  -457.33001039335932
    Total Energy =                       -457.3300103933597711
  Basis Set: 6-31G*
  Basis Set:
  Basis Set: 6-31G*
  Basis Set:
  @DF-RHF Final Energy:  -457.33002882823251
    Total Energy =                       -457.3300288282323436
  Basis Set: 6-31G*
  Basis Set:
  Charge       = 0
  Multiplicity = 1
  Basis Set: 6-31G*
  Basis Set:

    Orbital Energies (a.u.)
    -----------------------

    Doubly Occupied:

       1A    -20.591477     2A    -20.553722     3A    -11.379515
       4A    -11.291908     5A    -11.252163     6A    -11.250892
       7A    -11.250512     8A    -11.247604     9A    -11.244360
      10A    -11.242879    11A     -1.460715    12A     -1.368487
      13A     -1.170832    14A     -1.046414    15A     -1.031056
      16A     -0.977271    17A     -0.873625    18A     -0.842152
      19A     -0.781034    20A     -0.737079    21A     -0.686560
      22A     -0.676505    23A     -0.665089    24A     -0.639227
      25A     -0.627530    26A     -0.609603    27A     -0.599525
      28A     -0.563097    29A     -0.532958    30A     -0.518760
      31A     -0.506865    32A     -0.492311    33A     -0.463039
      34A     -0.441550    35A     -0.350126    36A     -0.347226

  @DF-RHF Final Energy:  -457.33002972793071

   => Energetics <=

    Nuclear Repulsion Energy =            497.0317640129473489
    One-Electron Energy =               -1608.0962501475291901
    Two-Electron Energy =                 653.7344564066509065
    DFT Exchange-Correlation Energy =       0.0000000000000000
    Empirical Dispersion Energy =           0.0000000000000000
    PCM Polarization Energy =               0.0000000000000000
    EFP Energy =                            0.0000000000000000
    Total Energy =                       -457.3300297279308779
    Molecular point group: c1
  Basis Set: 6-31G*
  Basis Set:

  -Total Gradient:
     Atom            X                  Y                   Z
    ------   -----------------  -----------------  -----------------
       1        0.000000193216     0.000003227417    -0.000000588637
       2        0.000034329100     0.000004025707    -0.000001735884
       3        0.000005995046     0.000003550487     0.000021938573
       4       -0.000044574623    -0.000028560565    -0.000011634494
       5       -0.000011166928    -0.000007545396    -0.000009301621
       6       -0.000003832652     0.000005980011     0.000033456797
       7        0.000026075241     0.000012171710     0.000006830988
       8       -0.000049191974    -0.000013577784    -0.000020422456
       9        0.000006941293    -0.000003784877    -0.000002874057
      10        0.000796400425     0.000676343791     0.000541674888
      11        0.000027754768     0.000001725526     0.000015222288
      12       -0.001062383449    -0.000982412790    -0.001391347988
      13        0.000190279723     0.000287086963     0.002143968670
      14       -0.000025124610    -0.000005492765    -0.000007954858
      15        0.000090788002     0.000040900229    -0.001327389174
      16        0.000039119612     0.000012491348     0.000007409456
      17       -0.000011840902    -0.000006061172    -0.000003093457
      18       -0.000009761289    -0.000000067840     0.000005840967

  **** Optimization is complete! (in 8 steps) ****
    Final optimized geometry and variables:
    Molecular point group: c1

    Geometry (in Angstrom), charge = 0, multiplicity = 1:

    H           -0.151776116578     2.235395242642    -3.205477589571
    C           -0.177996277064     1.631421592623    -2.316130470754
    C           -0.794588025792     2.113327329870    -1.170712790458
    C            0.398636241271     0.371505797559    -2.319742643912
    H           -1.246195386402     3.088729778844    -1.171195416944
    C           -0.834889116774     1.334259068385    -0.029015962828
    H            0.865448211567    -0.006355889580    -3.211245515641
    C            0.371004037346    -0.403737586524    -1.172784486347
    H           -1.322375511501     1.687042401081     0.859864561871
    C           -0.241849760189     0.076491940176    -0.021536546283
    H            0.807268650836    -1.384963299133    -1.175769245491
    C           -0.331480547576    -0.747708454189     1.222247048544
    O            0.559823500898    -1.752237783084     1.334847961793
    O           -1.151640837279    -0.565710007698     2.055968330316
    C            1.917143881695    -1.417450702771     1.547094811357
    H            2.285796212581    -0.734864390839     0.792799689927
    H            2.468955302447    -2.343197807556     1.497879381219
    H            2.042192641366    -0.975969416114     2.528437468501

  Mulliken Charges: (a.u.)
   Center  Symbol    Alpha    Beta     Spin     Total
       1     H     0.39422  0.39422  0.00000  0.21157
       2     C     3.09128  3.09128  0.00000 -0.18256
       3     C     3.10562  3.10562  0.00000 -0.21124
       4     C     3.10512  3.10512  0.00000 -0.21024
       5     H     0.39399  0.39399  0.00000  0.21203
       6     C     3.08638  3.08638  0.00000 -0.17276
       7     H     0.39496  0.39496  0.00000  0.21007
       8     C     3.09610  3.09610  0.00000 -0.19220
       9     H     0.37738  0.37738  0.00000  0.24524
      10     C     3.07335  3.07335  0.00000 -0.14669
      11     H     0.38432  0.38432  0.00000  0.23135
      12     C     2.60047  2.60047  0.00000  0.79907
      13     O     4.31707  4.31707  0.00000 -0.63414
      14     O     4.25546  4.25546  0.00000 -0.51092
      15     C     3.09545  3.09545  0.00000 -0.19091
      16     H     0.41572  0.41572  0.00000  0.16857
      17     H     0.40315  0.40315  0.00000  0.19369
      18     H     0.40996  0.40996  0.00000  0.18008

   Total alpha = 36.00000, Total beta = 36.00000, Total charge = -0.00000
