                              Psi4 1.0.54 Driver

  ==> Input File <==

--------------------------------------------------------------------------
set {
	reference rhf
	basis cc-pvtz
}

set_num_threads( 4 )
memory 2 gb

molecule MOL {
0 1

H	 -2.567892	 1.300593	 -1.927907
C	 -1.813170	 0.694327	 -1.470584
C	 -2.105997	 -0.000418	 -0.398703
H	 -0.833462	 0.670865	 -1.905807
O	 -1.189946	 -0.765863	 0.237511
H	 -3.086733	 0.009138	 0.040834
C	 0.026572	 -0.995256	 -0.379403
C	 1.057223	 0.049888	 -0.004615
H	 -0.054361	 -1.010670	 -1.459674
H	 0.397526	 -1.952058	 -0.044198
F	 2.203233	 -0.234060	 -0.590375
F	 0.698147	 1.254887	 -0.392621
F	 1.266440	 0.094219	 1.288722

	symmetry c1
}
set optking {
	frozen_dihedral = ("
		6 3 5 7
	")
}

ee,wfn = optimize('scf', return_wfn=True)
oeprop( wfn, 'DIPOLE', 'QUADRUPOLE', 'MULLIKEN_CHARGES')
f=open( 'psi4out.xyz', 'w' )
f.write( "13  " )
f.write( str(ee) + "\n" )
f.write( MOL.save_string_xyz() )
f.close()
--------------------------------------------------------------------------

    Molecular point group: c1
  Charge       = 0
  Multiplicity = 1
  Basis Set: CC-PVTZ
  Basis Set:
  @DF-RHF Final Energy:  -527.73312117126568
    Total Energy =                       -527.7331211712655659
    Molecular point group: c1
  Basis Set: CC-PVTZ
  Basis Set:
  Basis Set: CC-PVTZ
  Basis Set:
  @DF-RHF Final Energy:  -527.70579356288147
    Total Energy =                       -527.7057935628811265
  Basis Set: CC-PVTZ
  Basis Set:
  Basis Set: CC-PVTZ
  Basis Set:
  @DF-RHF Final Energy:  -527.73850805545794
    Total Energy =                       -527.7385080554580554
  Basis Set: CC-PVTZ
  Basis Set:
  Basis Set: CC-PVTZ
  Basis Set:
  @DF-RHF Final Energy:  -527.73447968223240
    Total Energy =                       -527.7344796822324042
  Basis Set: CC-PVTZ
  Basis Set:
  @DF-RHF Final Energy:  -527.74105843553320
    Total Energy =                       -527.7410584355326364
  @DF-RHF Final Energy:  -527.74121904938738
    Total Energy =                       -527.7412190493873823
  @DF-RHF Final Energy:  -527.74126771936210
    Total Energy =                       -527.7412677193619857
  Basis Set: CC-PVTZ
  Basis Set:
  @DF-RHF Final Energy:  -527.74129921328063
    Total Energy =                       -527.7412992132801719
  Basis Set: CC-PVTZ
  Basis Set:
  Basis Set: CC-PVTZ
  Basis Set:
  @DF-RHF Final Energy:  -527.74131029079172
    Total Energy =                       -527.7413102907917164
  Basis Set: CC-PVTZ
  Basis Set:
  Basis Set: CC-PVTZ
  Basis Set:
  @DF-RHF Final Energy:  -527.74131213149349
    Total Energy =                       -527.7413121314934870
  Basis Set: CC-PVTZ
  Basis Set:
  Charge       = 0
  Multiplicity = 1
  Basis Set: CC-PVTZ
  Basis Set:

    Orbital Energies (a.u.)
    -----------------------

    Doubly Occupied:

       1A    -26.339704     2A    -26.337858     3A    -26.336007
       4A    -20.606617     5A    -11.496679     6A    -11.317111
       7A    -11.302788     8A    -11.218022     9A     -1.748521
      10A     -1.644767    11A     -1.643140    12A     -1.444993
      13A     -1.083805    14A     -1.027601    15A     -0.939248
      16A     -0.844815    17A     -0.838060    18A     -0.831224
      19A     -0.774357    20A     -0.735536    21A     -0.716167
      22A     -0.707272    23A     -0.682280    24A     -0.666017
      25A     -0.663065    26A     -0.648656    27A     -0.636193
      28A     -0.604091    29A     -0.550770    30A     -0.531797
      31A     -0.517776    32A     -0.362528

  @DF-RHF Final Energy:  -527.74131239544568

   => Energetics <=

    Nuclear Repulsion Energy =            418.4848836131042162
    One-Electron Energy =               -1560.8574678351360490
    Two-Electron Energy =                 614.6312718265861577
    DFT Exchange-Correlation Energy =       0.0000000000000000
    Empirical Dispersion Energy =           0.0000000000000000
    PCM Polarization Energy =               0.0000000000000000
    EFP Energy =                            0.0000000000000000
    Total Energy =                       -527.7413123954457888
    Molecular point group: c1
  Basis Set: CC-PVTZ
  Basis Set:

  -Total Gradient:
     Atom            X                  Y                   Z
    ------   -----------------  -----------------  -----------------
       1       -0.000004971509    -0.000005162976     0.000004949056
       2       -0.000003961615     0.000017428874    -0.000015475342
       3        0.000090559744    -0.000009294453     0.000051083020
       4        0.000000090253    -0.000003690886    -0.000000594109
       5        0.000025728728     0.000088174299     0.000015154775
       6       -0.000059455963    -0.000036222413    -0.000031472629
       7       -0.000048252209    -0.000049357647    -0.000037182113
       8        0.000005442639    -0.000035940531    -0.000005002332
       9       -0.000001511984     0.000002893508     0.000003830268
      10       -0.000003103822     0.000001611817     0.000001732062
      11        0.000002481387     0.000019826753     0.000010277550
      12       -0.000009136390    -0.000003703260     0.000010564147
      13        0.000006090737     0.000013436907    -0.000007864356

  **** Optimization is complete! (in 11 steps) ****
    Final optimized geometry and variables:
    Molecular point group: c1

    Geometry (in Angstrom), charge = 0, multiplicity = 1:

    H           -2.731265976184     2.433942367105    -0.887666492973
    C           -2.056711620625     1.610890568214    -0.768213965231
    C           -2.098563985125     0.933409822782     0.357157144930
    H           -1.377112843541     1.409152876492    -1.570421749589
    O           -1.374685551642    -0.139653281371     0.734967733868
    H           -2.776425848724     1.201183235349     1.143120718243
    C           -0.569014734065    -0.819257991676    -0.165725737897
    C            0.882217231873    -0.400192042510    -0.055028163526
    H           -0.889296079114    -0.692896989504    -1.189449010285
    H           -0.611798775762    -1.868766647880     0.085980888768
    F            1.604444216011    -1.116986111536    -0.893900102025
    F            1.068925339699     0.866135918744    -0.349982190208
    F            1.355620348132    -0.600089918414     1.152471583245

  Mulliken Charges: (a.u.)
   Center  Symbol    Alpha    Beta     Spin     Total
       1     H     0.42342  0.42342  0.00000  0.15316
       2     C     3.20032  3.20032  0.00000 -0.40065
       3     C     2.97945  2.97945  0.00000  0.04110
       4     H     0.42934  0.42934  0.00000  0.14132
       5     O     4.15183  4.15183  0.00000 -0.30365
       6     H     0.41020  0.41020  0.00000  0.17960
       7     C     3.01678  3.01678  0.00000 -0.03355
       8     C     2.67555  2.67555  0.00000  0.64890
       9     H     0.45163  0.45163  0.00000  0.09674
      10     H     0.43266  0.43266  0.00000  0.13468
      11     F     4.61338  4.61338  0.00000 -0.22675
      12     F     4.60742  4.60742  0.00000 -0.21483
      13     F     4.60803  4.60803  0.00000 -0.21606

   Total alpha = 32.00000, Total beta = 32.00000, Total charge =  0.00000

*** Psi4 exiting successfully. Buy a developer a beer!
