                              Psi4 1.0.54 Driver

  ==> Input File <==

--------------------------------------------------------------------------
set {
	reference rhf
	basis cc-pvtz
}

set_num_threads( 4 )
memory 2 gb

molecule MOL {
0 1

H	 -0.366580	 2.045936	 -0.305741
C	 0.351829	 1.335402	 0.083179
N	 -0.000018	 0.000080	 -0.334836
H	 1.327156	 1.599860	 -0.305475
H	 0.380566	 1.445403	 1.171445
C	 -1.049126	 -0.562072	 0.481091
C	 -0.319326	 -0.059097	 -1.740816
H	 -1.238687	 -1.586186	 0.185541
H	 -0.747535	 -0.564901	 1.520909
H	 -1.989538	 -0.008291	 0.403485
H	 0.515775	 0.305612	 -2.325432
H	 -0.509913	 -1.083725	 -2.033971
H	 -1.199510	 0.536335	 -2.001294

	symmetry c1
}
set optking {
	frozen_dihedral = ("
		6 3 2 1
	")
}

ee,wfn = optimize('scf', return_wfn=True)
oeprop( wfn, 'DIPOLE', 'QUADRUPOLE', 'MULLIKEN_CHARGES')
f=open( 'psi4out.xyz', 'w' )
f.write( "13  " )
f.write( str(ee) + "\n" )
f.write( MOL.save_string_xyz() )
f.close()
--------------------------------------------------------------------------

    Molecular point group: c1
  Charge       = 0
  Multiplicity = 1
  Basis Set: CC-PVTZ
  Basis Set:
  @DF-RHF Final Energy:  -173.33217928367944
    Total Energy =                       -173.3321792836793520
    Molecular point group: c1
  Basis Set: CC-PVTZ
  Basis Set:
  Basis Set: CC-PVTZ
  Basis Set:
  @DF-RHF Final Energy:  -173.33291743514570
    Total Energy =                       -173.3329174351457596
  Basis Set: CC-PVTZ
  Basis Set:
  Basis Set: CC-PVTZ
  Basis Set:
  @DF-RHF Final Energy:  -173.33301196851556
    Total Energy =                       -173.3330119685155069
  Basis Set: CC-PVTZ
  Basis Set:
  Basis Set: CC-PVTZ
  Basis Set:
  @DF-RHF Final Energy:  -173.33301447487995
    Total Energy =                       -173.3330144748799455
  Basis Set: CC-PVTZ
  Basis Set:
  Charge       = 0
  Multiplicity = 1
  Basis Set: CC-PVTZ
  Basis Set:

    Orbital Energies (a.u.)
    -----------------------

    Doubly Occupied:

       1A    -15.537804     2A    -11.234356     3A    -11.234327
       4A    -11.234185     5A     -1.225929     6A     -0.953238
       7A     -0.952344     8A     -0.806071     9A     -0.641886
      10A     -0.632317    11A     -0.630914    12A     -0.546364
      13A     -0.541731    14A     -0.517379    15A     -0.504142
      16A     -0.502554    17A     -0.345499

  @DF-RHF Final Energy:  -173.33301475760058

   => Energetics <=

    Nuclear Repulsion Energy =            139.3049074807135241
    One-Electron Energy =                -509.1937653943502369
    Two-Electron Energy =                 196.5558431560360759
    DFT Exchange-Correlation Energy =       0.0000000000000000
    Empirical Dispersion Energy =           0.0000000000000000
    PCM Polarization Energy =               0.0000000000000000
    EFP Energy =                            0.0000000000000000
    Total Energy =                       -173.3330147576006084
    Molecular point group: c1
  Basis Set: CC-PVTZ
  Basis Set:

  -Total Gradient:
     Atom            X                  Y                   Z
    ------   -----------------  -----------------  -----------------
       1        0.001899191982     0.000402794452    -0.002861544981
       2       -0.001743119125    -0.000912642658     0.004350598453
       3       -0.001941587249     0.001562995277    -0.003077070287
       4       -0.000012821802     0.000000031867    -0.000012337259
       5       -0.000003286098    -0.000003263344     0.000000735311
       6        0.001785599512    -0.001040098256     0.001587127439
       7       -0.000007618725    -0.000002463163    -0.000009482204
       8       -0.000004311675    -0.000002590224     0.000001677272
       9        0.000002864414     0.000000276147     0.000001341439
      10        0.000016579422     0.000000577975    -0.000004368093
      11       -0.000002203209     0.000001573722     0.000006586221
      12        0.000000489647    -0.000004195047     0.000001140806
      13        0.000010222906    -0.000002996746     0.000015595884

  **** Optimization is complete! (in 5 steps) ****
    Final optimized geometry and variables:
    Molecular point group: c1

    Geometry (in Angstrom), charge = 0, multiplicity = 1:

    H           -0.056594621333     1.914432981600     0.137266219028
    C            0.631841147023     1.138046382117     0.483371522565
    N            0.252599372649    -0.184153895270     0.046583255673
    H            1.611973137525     1.387805412510     0.092527587699
    H            0.684831432938     1.176760842247     1.562750553633
    C           -0.794464766830    -0.766430373737     0.848622130450
    C           -0.026830204658    -0.234384513891    -1.365388816073
    H           -0.984008999984    -1.781972450474     0.523850180901
    H           -0.489536483356    -0.800462301789     1.886566349692
    H           -1.738766827030    -0.215415950168     0.791405005236
    H            0.821484476380     0.143638941076    -1.922793834329
    H           -0.199638507396    -1.257531227753    -1.674810070931
    H           -0.903653537506     0.357450582011    -1.646375576484

  Mulliken Charges: (a.u.)
   Center  Symbol    Alpha    Beta     Spin     Total
       1     H     0.47316  0.47316  0.00000  0.05368
       2     C     3.08852  3.08852  0.00000 -0.17703
       3     N     3.59584  3.59584  0.00000 -0.19168
       4     H     0.45203  0.45203  0.00000  0.09594
       5     H     0.45372  0.45372  0.00000  0.09257
       6     C     3.08805  3.08805  0.00000 -0.17610
       7     C     3.08932  3.08932  0.00000 -0.17864
       8     H     0.45310  0.45310  0.00000  0.09379
       9     H     0.45249  0.45249  0.00000  0.09503
      10     H     0.47457  0.47457  0.00000  0.05086
      11     H     0.45299  0.45299  0.00000  0.09402
      12     H     0.45282  0.45282  0.00000  0.09436
      13     H     0.47340  0.47340  0.00000  0.05320

   Total alpha = 17.00000, Total beta = 17.00000, Total charge = -0.00000

*** Psi4 exiting successfully. Buy a developer a beer!
