                              Psi4 1.0.54 Driver

  ==> Input File <==

--------------------------------------------------------------------------
set {
	reference rhf
	basis cc-pvtz
}

set_num_threads( 4 )
memory 2 gb

molecule MOL {
0 1

O	 -0.988175	 -1.402891	 0.050086
C	 -0.675048	 -0.248293	 -0.009686
C	 -1.742492	 0.826599	 -0.011538
N	 0.622280	 0.144970	 -0.099307
H	 -1.692153	 1.431066	 -0.908439
H	 -2.698310	 0.331559	 0.031353
H	 -1.642148	 1.483784	 0.843455
C	 1.356450	 0.415661	 1.118752
C	 1.234202	 0.636500	 -1.310796
H	 2.374945	 0.062637	 1.012612
H	 0.887729	 -0.090173	 1.943138
H	 1.385287	 1.480755	 1.334102
H	 2.280524	 0.359400	 -1.318632
H	 0.778478	 0.211035	 -2.188401
H	 1.176349	 1.720161	 -1.384112

	symmetry c1
}
set optking {
	frozen_dihedral = ("
		8 4 2 3
	")
}

ee,wfn = optimize('scf', return_wfn=True)
oeprop( wfn, 'DIPOLE', 'QUADRUPOLE', 'MULLIKEN_CHARGES')
f=open( 'psi4out.xyz', 'w' )
f.write( "15  " )
f.write( str(ee) + "\n" )
f.write( MOL.save_string_xyz() )
f.close()
--------------------------------------------------------------------------

    Molecular point group: c1
  Charge       = 0
  Multiplicity = 1
  Basis Set: CC-PVTZ
  Basis Set:
  @DF-RHF Final Energy:  -286.09930346509304
    Total Energy =                       -286.0993034650928735
    Molecular point group: c1
  Basis Set: CC-PVTZ
  Basis Set:
  Basis Set: CC-PVTZ
  Basis Set:
  @DF-RHF Final Energy:  -286.10289060812715
    Total Energy =                       -286.1028906081270407
  Basis Set: CC-PVTZ
  Basis Set:
  Basis Set: CC-PVTZ
  Basis Set:
  @DF-RHF Final Energy:  -286.07400377268550
    Total Energy =                       -286.0740037726855576
  Basis Set: CC-PVTZ
  Basis Set:
  Basis Set: CC-PVTZ
  Basis Set:
  @DF-RHF Final Energy:  -286.10752516473849
    Total Energy =                       -286.1075251647382629
  Basis Set: CC-PVTZ
  Basis Set:
  @DF-RHF Final Energy:  -285.99037028076168
    Total Energy =                       -285.9903702807617947
  @DF-RHF Final Energy:  -286.09104605172342
    Total Energy =                       -286.0910460517234242
  @DF-RHF Final Energy:  -286.11045698285557
    Total Energy =                       -286.1104569828555668
  @DF-RHF Final Energy:  -286.10597995267278
    Total Energy =                       -286.1059799526728966
  @DF-RHF Final Energy:  -286.11033511271245
    Total Energy =                       -286.1103351127124483
  @DF-RHF Final Energy:  -286.11174304676990
    Total Energy =                       -286.1117430467696749
  @DF-RHF Final Energy:  -286.11181019396395
    Total Energy =                       -286.1118101939635494
  @DF-RHF Final Energy:  -286.11186793624927
    Total Energy =                       -286.1118679362490411
  @DF-RHF Final Energy:  -286.11187620801286
    Total Energy =                       -286.1118762080127453
  @DF-RHF Final Energy:  -286.11188286657011
    Total Energy =                       -286.1118828665702836
  Basis Set: CC-PVTZ
  Basis Set:
  @DF-RHF Final Energy:  -286.11188449556300
    Total Energy =                       -286.1118844955630038
  Basis Set: CC-PVTZ
  Basis Set:
  Basis Set: CC-PVTZ
  Basis Set:
  @DF-RHF Final Energy:  -286.11179771809475
    Total Energy =                       -286.1117977180953176
  Basis Set: CC-PVTZ
  Basis Set:
  Basis Set: CC-PVTZ
  Basis Set:
  @DF-RHF Final Energy:  -286.11188409948159
    Total Energy =                       -286.1118840994818697
  Basis Set: CC-PVTZ
  Basis Set:
  Charge       = 0
  Multiplicity = 1
  Basis Set: CC-PVTZ
  Basis Set:

    Orbital Energies (a.u.)
    -----------------------

    Doubly Occupied:

       1A    -20.537104     2A    -15.560940     3A    -11.344063
       4A    -11.255341     5A    -11.255173     6A    -11.232304
       7A     -1.410555     8A     -1.239083     9A     -1.011210
      10A     -0.970152    11A     -0.907497    12A     -0.741581
      13A     -0.682586    14A     -0.662497    15A     -0.646320
      16A     -0.607846    17A     -0.587878    18A     -0.577476
      19A     -0.556893    20A     -0.548597    21A     -0.529258
      22A     -0.500086    23A     -0.426799    24A     -0.375836

  @DF-RHF Final Energy:  -286.11188428708999

   => Energetics <=

    Nuclear Repulsion Energy =            252.9259033829704322
    One-Electron Energy =                -889.7414331791442237
    Two-Electron Energy =                 350.7036455090836853
    DFT Exchange-Correlation Energy =       0.0000000000000000
    Empirical Dispersion Energy =           0.0000000000000000
    PCM Polarization Energy =               0.0000000000000000
    EFP Energy =                            0.0000000000000000
    Total Energy =                       -286.1118842870901062
    Molecular point group: c1
  Basis Set: CC-PVTZ
  Basis Set:

  -Total Gradient:
     Atom            X                  Y                   Z
    ------   -----------------  -----------------  -----------------
       1        0.000067041884     0.000021939860     0.000046465293
       2       -0.006010167356     0.005324120733    -0.005320252342
       3        0.003061576395    -0.002768233608     0.004573763579
       4        0.006386156278    -0.005443720657    -0.003435947090
       5       -0.000013673920     0.000017397098     0.000001030805
       6        0.000005526523     0.000001700108     0.000003885740
       7       -0.000005485316    -0.000001358497    -0.000000184095
       8       -0.003451283649     0.002892841924     0.004086833657
       9       -0.000066429806    -0.000056043504     0.000025772585
      10        0.000029082383     0.000023071180    -0.000004444879
      11        0.000012974500    -0.000029620055    -0.000007185141
      12       -0.000009068166     0.000005568200     0.000013987888
      13        0.000005313397     0.000008441643     0.000003490590
      14       -0.000006371873    -0.000004490297    -0.000007234330
      15       -0.000005191276     0.000008385869     0.000020017739

  **** Optimization is complete! (in 18 steps) ****
    Final optimized geometry and variables:
    Molecular point group: c1

    Geometry (in Angstrom), charge = 0, multiplicity = 1:

    O           -0.155071219540    -1.571352165294    -0.855653222142
    C           -0.383249198561    -0.581548020342    -0.250788954058
    C           -1.606870855979    -0.472370296744     0.634769299917
    N            0.558688221490     0.480081412474    -0.235869561586
    H           -2.270410870612     0.318708548568     0.309219252745
    H           -2.136208159464    -1.411133402544     0.614162479021
    H           -1.302269829963    -0.243370708569     1.649424569907
    C            1.589013872397     0.277354272642     0.770862500949
    C           -0.001067757968     1.816230569773    -0.170629706153
    H            2.381105718772     0.997337548573     0.615221478390
    H            2.008644399950    -0.712720989929     0.671214031481
    H            1.213734901246     0.402477739970     1.787609141715
    H            0.784861633453     2.528412662484    -0.383109440802
    H           -0.765216351054     1.940469109887    -0.926077599505
    H           -0.427142290042     2.068768149459     0.800570706971

  Mulliken Charges: (a.u.)
   Center  Symbol    Alpha    Beta     Spin     Total
       1     O     4.16866  4.16866  0.00000 -0.33733
       2     C     2.84116  2.84116  0.00000  0.31769
       3     C     3.16197  3.16197  0.00000 -0.32395
       4     N     3.59160  3.59160  0.00000 -0.18321
       5     H     0.44808  0.44808  0.00000  0.10384
       6     H     0.42989  0.42989  0.00000  0.14022
       7     H     0.44578  0.44578  0.00000  0.10843
       8     C     3.09687  3.09687  0.00000 -0.19375
       9     C     3.10552  3.10552  0.00000 -0.21104
      10     H     0.44902  0.44902  0.00000  0.10196
      11     H     0.43889  0.43889  0.00000  0.12222
      12     H     0.46867  0.46867  0.00000  0.06266
      13     H     0.44216  0.44216  0.00000  0.11568
      14     H     0.44602  0.44602  0.00000  0.10797
      15     H     0.46570  0.46570  0.00000  0.06861

   Total alpha = 24.00000, Total beta = 24.00000, Total charge = -0.00000

*** Psi4 exiting successfully. Buy a developer a beer!
