                              Psi4 1.0.54 Driver

  ==> Input File <==

--------------------------------------------------------------------------
set {
	reference rhf
	basis cc-pvtz
}

set_num_threads( 4 )
memory 2 gb

molecule MOL {
0 1

O	 2.102084	 0.827073	 -0.861507
C	 1.704209	 0.119472	 -0.000093
C	 0.380337	 -0.600947	 -0.000234
O	 2.389979	 -0.135832	 1.102157
C	 -0.824290	 0.329213	 -0.000115
H	 0.371455	 -1.255476	 -0.865660
H	 0.371410	 -1.255787	 0.864952
C	 -2.146151	 -0.432825	 -0.000068
H	 -0.773936	 0.979158	 -0.866319
H	 -0.773838	 0.979034	 0.866186
C	 -3.366283	 0.483552	 0.000557
H	 -2.189286	 -1.084450	 -0.869996
H	 -2.188867	 -1.085083	 0.869399
C	 -4.687436	 -0.278003	 0.000108
H	 -3.325150	 1.134819	 -0.867957
H	 -3.325087	 1.133730	 0.869885
H	 -4.773783	 -0.912098	 -0.876078
H	 -5.531922	 0.401392	 0.000363
H	 -4.773901	 -0.912898	 0.875703
C	 3.656344	 0.477308	 1.235221
H	 4.313955	 0.171634	 0.435019
H	 4.047653	 0.149083	 2.184427
H	 3.562350	 1.553049	 1.222559

	symmetry c1
}
set optking {
	frozen_dihedral = ("
		1 2 3 6
	")
}

ee,wfn = optimize('scf', return_wfn=True)
oeprop( wfn, 'DIPOLE', 'QUADRUPOLE', 'MULLIKEN_CHARGES')
f=open( 'psi4out.xyz', 'w' )
f.write( "23  " )
f.write( str(ee) + "\n" )
f.write( MOL.save_string_xyz() )
f.close()
--------------------------------------------------------------------------

    Molecular point group: c1
  Charge       = 0
  Multiplicity = 1
  Basis Set: CC-PVTZ
  Basis Set:
  @DF-RHF Final Energy:  -423.12900193834770
    Total Energy =                       -423.1290019383477556
    Molecular point group: c1
  Basis Set: CC-PVTZ
  Basis Set:
  Basis Set: CC-PVTZ
  Basis Set:
  @DF-RHF Final Energy:  -423.12964917673020
    Total Energy =                       -423.1296491767302541
  Basis Set: CC-PVTZ
  Basis Set:
  Basis Set: CC-PVTZ
  Basis Set:
  @DF-RHF Final Energy:  -423.12961602437900
    Total Energy =                       -423.1296160243791746
  Basis Set: CC-PVTZ
  Basis Set:
  Basis Set: CC-PVTZ
  Basis Set:
  @DF-RHF Final Energy:  -423.12972254672678
    Total Energy =                       -423.1297225467263843
  Basis Set: CC-PVTZ
  Basis Set:
  Basis Set: CC-PVTZ
  Basis Set:
  @DF-RHF Final Energy:  -423.12973000818897
    Total Energy =                       -423.1297300081893127
  Basis Set: CC-PVTZ
  Basis Set:
  Charge       = 0
  Multiplicity = 1
  Basis Set: CC-PVTZ
  Basis Set:

    Orbital Energies (a.u.)
    -----------------------

    Doubly Occupied:

       1A    -20.598638     2A    -20.531061     3A    -11.363865
       4A    -11.278461     5A    -11.232102     6A    -11.223732
       7A    -11.217975     8A    -11.216467     9A    -11.209055
      10A     -1.472373    11A     -1.364414    12A     -1.096351
      13A     -1.045085    14A     -0.987427    15A     -0.934389
      16A     -0.845239    17A     -0.797331    18A     -0.773598
      19A     -0.697470    20A     -0.683997    21A     -0.675426
      22A     -0.654491    23A     -0.608260    24A     -0.599336
      25A     -0.576916    26A     -0.571065    27A     -0.545724
      28A     -0.531544    29A     -0.525523    30A     -0.506843
      31A     -0.488050    32A     -0.474370    33A     -0.468983
      34A     -0.465488    35A     -0.457253    36A     -0.433758

  @DF-RHF Final Energy:  -423.12973051059151

   => Energetics <=

    Nuclear Repulsion Energy =            453.7476602541269699
    One-Electron Energy =               -1475.4506553127944244
    Two-Electron Energy =                 598.5732645480757128
    DFT Exchange-Correlation Energy =       0.0000000000000000
    Empirical Dispersion Energy =           0.0000000000000000
    PCM Polarization Energy =               0.0000000000000000
    EFP Energy =                            0.0000000000000000
    Total Energy =                       -423.1297305105917985
    Molecular point group: c1
  Basis Set: CC-PVTZ
  Basis Set:

  -Total Gradient:
     Atom            X                  Y                   Z
    ------   -----------------  -----------------  -----------------
       1        0.000079518782    -0.000171574493    -0.000104010703
       2       -0.000193901024     0.000352423275    -0.000050711113
       3        0.000153361643    -0.000268294472     0.000130035274
       4        0.000065932773    -0.000036006925     0.000135229658
       5       -0.000013943127    -0.000013961879     0.000010979493
       6       -0.000104018738     0.000152216061    -0.000113637473
       7       -0.000007455520    -0.000014960435     0.000008883769
       8        0.000012084367    -0.000001998177    -0.000009400899
       9       -0.000009061502     0.000011694559    -0.000016563604
      10        0.000006503731    -0.000007526698     0.000003006579
      11        0.000006133677     0.000011420383     0.000002429638
      12        0.000005061434    -0.000003236217    -0.000002060358
      13        0.000008903309     0.000000568994     0.000003893680
      14       -0.000003785978    -0.000001061466    -0.000005881626
      15       -0.000001200870     0.000006419137    -0.000006304526
      16        0.000002050265     0.000003993154     0.000002453050
      17       -0.000003633084    -0.000000702380    -0.000001574458
      18        0.000002529218    -0.000002110204    -0.000000893493
      19       -0.000002541051    -0.000005287741     0.000007036275
      20       -0.000013948557    -0.000016916062    -0.000005870536
      21       -0.000000340466     0.000013370508     0.000015875644
      22        0.000005731212     0.000001900776     0.000000034543
      23        0.000006019513    -0.000010369694    -0.000002948816

  **** Optimization is complete! (in 6 steps) ****
    Final optimized geometry and variables:
    Molecular point group: c1

    Geometry (in Angstrom), charge = 0, multiplicity = 1:

    O            2.064183247129     0.752754593557    -1.002569609200
    C            1.739691828663     0.012990461493    -0.135952215007
    C            0.433078341015    -0.739815401746    -0.111876405662
    O            2.493964223909    -0.239364726575     0.919451119995
    C           -0.766632697747     0.209985325451    -0.131253499302
    H            0.416215724609    -1.362851803556    -0.999213682229
    H            0.401762668340    -1.385504404916     0.754109675924
    C           -2.097469426931    -0.534015967800    -0.173465440351
    H           -0.680749460113     0.864914247088    -0.989842413465
    H           -0.734986693734     0.844522715277     0.750219815755
    C           -3.305240600470     0.398564046803    -0.187712779450
    H           -2.124830884786    -1.169353363896    -1.055536945363
    H           -2.168562012937    -1.199311479170     0.683761501292
    C           -4.635156429511    -0.346162446734    -0.234753848336
    H           -3.233752852093     1.063673384219    -1.043594345372
    H           -3.278708457614     1.033016885390     0.693907984312
    H           -4.706918755903    -0.963350233853    -1.124117720890
    H           -5.470852964236     0.343903096751    -0.243476056663
    H           -4.751337563911    -0.995221162948     0.626889030228
    C            3.744860892737     0.415523289141     0.991910309154
    H            4.364114644648     0.147313623150     0.148977298401
    H            4.201310882422     0.084054234412     1.910406566465
    H            3.613288767977     1.487180415877     1.005480814177

  Mulliken Charges: (a.u.)
   Center  Symbol    Alpha    Beta     Spin     Total
       1     O     4.20497  4.20497  0.00000 -0.40994
       2     C     2.81326  2.81326  0.00000  0.37347
       3     C     3.08009  3.08009  0.00000 -0.16017
       4     O     4.14437  4.14437  0.00000 -0.28875
       5     C     3.09595  3.09595  0.00000 -0.19189
       6     H     0.44434  0.44434  0.00000  0.11132
       7     H     0.43997  0.43997  0.00000  0.12005
       8     C     3.09082  3.09082  0.00000 -0.18164
       9     H     0.43914  0.43914  0.00000  0.12171
      10     H     0.45149  0.45149  0.00000  0.09702
      11     C     3.08445  3.08445  0.00000 -0.16890
      12     H     0.45368  0.45368  0.00000  0.09263
      13     H     0.45471  0.45471  0.00000  0.09059
      14     C     3.15027  3.15027  0.00000 -0.30055
      15     H     0.45253  0.45253  0.00000  0.09494
      16     H     0.45395  0.45395  0.00000  0.09210
      17     H     0.45472  0.45472  0.00000  0.09056
      18     H     0.44763  0.44763  0.00000  0.10473
      19     H     0.45525  0.45525  0.00000  0.08950
      20     C     3.03507  3.03507  0.00000 -0.07015
      21     H     0.45407  0.45407  0.00000  0.09185
      22     H     0.44518  0.44518  0.00000  0.10964
      23     H     0.45407  0.45407  0.00000  0.09187

   Total alpha = 36.00000, Total beta = 36.00000, Total charge = -0.00000

*** Psi4 exiting successfully. Buy a developer a beer!
