  ==> Input File <==

--------------------------------------------------------------------------
set {
	reference rhf
	basis cc-pvtz
}

set_num_threads( 4 )
memory 2 gb

molecule MOL {
0 1

H	 0.096543	 -0.857849	 -1.729739
C	 0.302578	 0.220498	 -1.690298
C	 0.062554	 0.862911	 -0.350953
O	 0.689605	 0.784563	 -2.654246
C	 -1.339253	 0.577611	 0.196911
H	 0.245212	 1.925946	 -0.440883
H	 0.803612	 0.451172	 0.330500
C	 -1.813142	 -0.849710	 -0.061612
H	 -2.032833	 1.276441	 -0.256032
H	 -1.357249	 0.782269	 1.263793
H	 -1.839268	 -1.063526	 -1.124230
H	 -2.810118	 -1.001930	 0.334000
H	 -1.159274	 -1.579980	 0.402282

	symmetry c1
}
set optking {
	frozen_dihedral = ("
		6 3 5 9
	")
}

ee = optimize('scf')
oeprop('DIPOLE', 'QUADRUPOLE', 'MULLIKEN_CHARGES')
f=open( 'psi4out.xyz', 'w' )
f.write( "13  " )
f.write( str(ee) + "\n" )
f.write( MOL.save_string_xyz() )
f.close()
--------------------------------------------------------------------------

    Molecular point group: c1
  Charge       = 0
  Multiplicity = 1
  Basis Set: CC-PVTZ
  Basis Set:
  @DF-RHF Final Energy:  -231.06458751357408
    Total Energy =                       -231.0645875135741676
    Molecular point group: c1
  Basis Set: CC-PVTZ
  Basis Set:
  Basis Set: CC-PVTZ
  Basis Set:
  @DF-RHF Final Energy:  -231.06531030225727
    Total Energy =                       -231.0653103022571884
  Basis Set: CC-PVTZ
  Basis Set:
  Basis Set: CC-PVTZ
  Basis Set:
  @DF-RHF Final Energy:  -231.06689020090127
    Total Energy =                       -231.0668902009013550
  Basis Set: CC-PVTZ
  Basis Set:
  Basis Set: CC-PVTZ
  Basis Set:
  @DF-RHF Final Energy:  -231.06703159236775
    Total Energy =                       -231.0670315923678686
  Basis Set: CC-PVTZ
  Basis Set:
  @DF-RHF Final Energy:  -231.06664726039716
    Total Energy =                       -231.0666472603972466
  @DF-RHF Final Energy:  -231.06745355659066
    Total Energy =                       -231.0674535565905501
  @DF-RHF Final Energy:  -231.06749282683128
    Total Energy =                       -231.0674928268312271
  Basis Set: CC-PVTZ
  Basis Set:
  @DF-RHF Final Energy:  -231.06752138292740
    Total Energy =                       -231.0675213829273673
  Basis Set: CC-PVTZ
  Basis Set:
  Basis Set: CC-PVTZ
  Basis Set:
  @DF-RHF Final Energy:  -231.06754451903126
    Total Energy =                       -231.0675445190314008
  Basis Set: CC-PVTZ
  Basis Set:
  Basis Set: CC-PVTZ
  Basis Set:
  @DF-RHF Final Energy:  -231.06754593091628
    Total Energy =                       -231.0675459309163102
  Basis Set: CC-PVTZ
  Basis Set:
  Charge       = 0
  Multiplicity = 1
  Basis Set: CC-PVTZ
  Basis Set:

    Orbital Energies (a.u.)
    -----------------------

    Doubly Occupied:

       1A    -20.551816     2A    -11.320321     3A    -11.236978
       4A    -11.234209     5A    -11.223474     6A     -1.406238
       7A     -1.085372     8A     -0.974215     9A     -0.857772
      10A     -0.776946    11A     -0.683259    12A     -0.644380
      13A     -0.614216    14A     -0.605139    15A     -0.564743
      16A     -0.536156    17A     -0.512820    18A     -0.492050
      19A     -0.482410    20A     -0.410316

  @DF-RHF Final Energy:  -231.06754607522609

   => Energetics <=

    Nuclear Repulsion Energy =            174.1869321403765696
    One-Electron Energy =                -658.0832958507540980
    Two-Electron Energy =                 252.8288176351515801
    DFT Exchange-Correlation Energy =       0.0000000000000000
    Empirical Dispersion Energy =           0.0000000000000000
    PCM Polarization Energy =               0.0000000000000000
    EFP Energy =                            0.0000000000000000
    Total Energy =                       -231.0675460752259198
    Molecular point group: c1
  Basis Set: CC-PVTZ
  Basis Set:

  -Total Gradient:
     Atom            X                  Y                   Z
    ------   -----------------  -----------------  -----------------
       1       -0.000004102472    -0.000004806703     0.000003721076
       2        0.000003513894     0.000025484069     0.000008347971
       3        0.001673767057     0.000587822677     0.005276560939
       4       -0.000000864815    -0.000005859382    -0.000007341162
       5       -0.001001386542    -0.003072564764    -0.004506015044
       6       -0.001260244639    -0.000023728625    -0.003737191963
       7        0.000001477905    -0.000006324221     0.000008061897
       8        0.000003587695    -0.000002710761     0.000003833790
       9        0.000582713608     0.002500993089     0.002953067363
      10        0.000001843201     0.000004592134    -0.000000604358
      11        0.000002413364    -0.000000602310    -0.000002674224
      12       -0.000001317051     0.000000291626     0.000001348200
      13       -0.000001401206    -0.000002586832    -0.000001114489

  **** Optimization is complete! (in 11 steps) ****
    Final optimized geometry and variables:
    Molecular point group: c1

    Geometry (in Angstrom), charge = 0, multiplicity = 1:

    H            0.966928196298    -1.167502485806    -0.825961864282
    C            0.835582002486    -0.081163085620    -0.770828864762
    C            0.569572027986     0.486808966323     0.600113961490
    O            0.905149223649     0.570310303179    -1.756078232016
    C           -0.870714715506     0.241918217032     1.085793611427
    H            0.755918956993     1.550006730041     0.531635625237
    H            1.275128643692     0.038849236108     1.293563745132
    C           -1.400268470331    -1.176599229236     0.895980607764
    H           -1.526280162926     0.959670926463     0.606031288359
    H           -0.900422550329     0.487707707888     2.141992552269
    H           -1.501701841008    -1.437063075745    -0.151089012322
    H           -2.378535472531    -1.275268334087     1.349960180446
    H           -0.747131377827    -1.908508401872     1.360130371188

  Mulliken Charges: (a.u.)
   Center  Symbol    Alpha    Beta     Spin     Total
       1     H     0.46143  0.46143  0.00000  0.07714
       2     C     2.90593  2.90593  0.00000  0.18813
       3     C     3.09144  3.09144  0.00000 -0.18288
       4     O     4.16577  4.16577  0.00000 -0.33155
       5     C     3.09103  3.09103  0.00000 -0.18206
       6     H     0.43941  0.43941  0.00000  0.12118
       7     H     0.44926  0.44926  0.00000  0.10149
       8     C     3.15686  3.15686  0.00000 -0.31372
       9     H     0.44500  0.44500  0.00000  0.11000
      10     H     0.44880  0.44880  0.00000  0.10240
      11     H     0.44994  0.44994  0.00000  0.10012
      12     H     0.44279  0.44279  0.00000  0.11442
      13     H     0.45233  0.45233  0.00000  0.09535

   Total alpha = 20.00000, Total beta = 20.00000, Total charge = -0.00000
