                              Psi4 1.0.54 Driver

  ==> Input File <==

--------------------------------------------------------------------------
set {
	reference rhf
	basis cc-pvtz
}

set_num_threads( 4 )
memory 2 gb

molecule MOL {
0 1

O	 0.541902	 0.545780	 -0.958386
C	 0.029490	 0.077183	 0.000078
C	 -1.232113	 -0.748027	 0.000015
O	 0.510371	 0.221619	 1.223648
C	 -2.501422	 0.088592	 -0.000052
H	 -1.188777	 -1.400384	 -0.865133
H	 -1.188857	 -1.400312	 0.865225
H	 -2.548170	 0.725504	 -0.873205
H	 -3.371613	 -0.556398	 -0.000040
H	 -2.548215	 0.725571	 0.873047
C	 1.696146	 0.976732	 1.369887
H	 2.506240	 0.525296	 0.816545
H	 1.920565	 0.977581	 2.424146
H	 1.549976	 1.987540	 1.018964

	symmetry c1
}
set optking {
	frozen_dihedral = ("
		4 2 3 6
	")
}

ee,wfn = optimize('scf', return_wfn=True)
oeprop( wfn, 'DIPOLE', 'QUADRUPOLE', 'MULLIKEN_CHARGES')
f=open( 'psi4out.xyz', 'w' )
f.write( "14  " )
f.write( str(ee) + "\n" )
f.write( MOL.save_string_xyz() )
f.close()
--------------------------------------------------------------------------

    Molecular point group: c1
  Charge       = 0
  Multiplicity = 1
  Basis Set: CC-PVTZ
  Basis Set:
  @DF-RHF Final Energy:  -305.98526756438582
    Total Energy =                       -305.9852675643858788
    Molecular point group: c1
  Basis Set: CC-PVTZ
  Basis Set:
  Basis Set: CC-PVTZ
  Basis Set:
  @DF-RHF Final Energy:  -305.98583258971712
    Total Energy =                       -305.9858325897169493
  Basis Set: CC-PVTZ
  Basis Set:
  Basis Set: CC-PVTZ
  Basis Set:
  @DF-RHF Final Energy:  -305.88202720838126
    Total Energy =                       -305.8820272083812597
  Basis Set: CC-PVTZ
  Basis Set:
  Basis Set: CC-PVTZ
  Basis Set:
  @DF-RHF Final Energy:  -305.96808140343524
    Total Energy =                       -305.9680814034352352
  Basis Set: CC-PVTZ
  Basis Set:
  @DF-RHF Final Energy:  -305.98491921333846
    Total Energy =                       -305.9849192133386850
  @DF-RHF Final Energy:  -305.98047428562944
    Total Energy =                       -305.9804742856295547
  @DF-RHF Final Energy:  -305.97520774575128
    Total Energy =                       -305.9752077457513906
  @DF-RHF Final Energy:  -305.97186950384003
    Total Energy =                       -305.9718695038400256
  @DF-RHF Final Energy:  -305.97393474519259
    Total Energy =                       -305.9739347451925937
  @DF-RHF Final Energy:  -305.98210968844364
    Total Energy =                       -305.9821096884436429
  Basis Set: CC-PVTZ
  Basis Set:
  @DF-RHF Final Energy:  -305.98583994501257
    Total Energy =                       -305.9858399450126853
  Basis Set: CC-PVTZ
  Basis Set:
  Basis Set: CC-PVTZ
  Basis Set:
  @DF-RHF Final Energy:  -305.98595407736821
    Total Energy =                       -305.9859540773682056
  Basis Set: CC-PVTZ
  Basis Set:
  Basis Set: CC-PVTZ
  Basis Set:
  @DF-RHF Final Energy:  -305.98598641028957
    Total Energy =                       -305.9859864102897404
  Basis Set: CC-PVTZ
  Basis Set:
  Charge       = 0
  Multiplicity = 1
  Basis Set: CC-PVTZ
  Basis Set:

    Orbital Energies (a.u.)
    -----------------------

    Doubly Occupied:

       1A    -20.599146     2A    -20.532311     3A    -11.364434
       4A    -11.279204     5A    -11.235683     6A    -11.224782
       7A     -1.473054     8A     -1.365346     9A     -1.067418
      10A     -0.979476    11A     -0.882800    12A     -0.775741
      13A     -0.700261    14A     -0.682979    15A     -0.676168
      16A     -0.618037    17A     -0.600388    18A     -0.567226
      19A     -0.542637    20A     -0.520843    21A     -0.509515
      22A     -0.505767    23A     -0.459477    24A     -0.438407

  @DF-RHF Final Energy:  -305.98598719527934

   => Energetics <=

    Nuclear Repulsion Energy =            248.2016504161667569
    One-Electron Energy =                -909.1730743655546121
    Two-Electron Energy =                 354.9854367541085480
    DFT Exchange-Correlation Energy =       0.0000000000000000
    Empirical Dispersion Energy =           0.0000000000000000
    PCM Polarization Energy =               0.0000000000000000
    EFP Energy =                            0.0000000000000000
    Total Energy =                       -305.9859871952792787
    Molecular point group: c1
  Basis Set: CC-PVTZ
  Basis Set:

  -Total Gradient:
     Atom            X                  Y                   Z
    ------   -----------------  -----------------  -----------------
       1        0.000000252719     0.000078346599     0.000003664084
       2       -0.000209702578     0.000051106759     0.000174874823
       3       -0.000147438569     0.000259930405     0.000007308999
       4        0.000128017292    -0.000105737869    -0.000053976885
       5        0.000005655202    -0.000029561155    -0.000018307066
       6        0.000161488739    -0.000224139581    -0.000086649209
       7       -0.000006497307    -0.000026851361     0.000008284093
       8       -0.000001870355     0.000031412184    -0.000008904395
       9       -0.000011498276    -0.000005115282     0.000002447934
      10        0.000005995766    -0.000005622456     0.000025029089
      11        0.000074242410    -0.000061892533    -0.000129341414
      12        0.000043364388     0.000028534575     0.000006665476
      13        0.000010654126    -0.000021873747     0.000044827872
      14       -0.000052663556     0.000031463462     0.000024076597

  **** Optimization is complete! (in 11 steps) ****
    Final optimized geometry and variables:
    Molecular point group: c1

    Geometry (in Angstrom), charge = 0, multiplicity = 1:

    O            0.253461204531     1.220227171639    -0.691200237622
    C            0.085386207049     0.109256171951    -0.316331896968
    C           -1.102964714618    -0.740009755616    -0.688547455908
    O            0.915266876992    -0.512735290104     0.503168361797
    C           -2.329003137025    -0.352717332497     0.142010274902
    H           -1.300035045111    -0.572426746080    -1.738655054055
    H           -0.861673800204    -1.783151070511    -0.541926503720
    H           -2.577299210689     0.690162198965    -0.005097618494
    H           -3.181987073440    -0.951259322814    -0.151109938935
    H           -2.151981287252    -0.517017939602     1.198358192070
    C            2.046911287439     0.208432691776     0.948657836429
    H            2.666818358269     0.497666187275     0.113176806671
    H            2.587067741230    -0.458695037864     1.600659299305
    H            1.745479826266     1.094559517547     1.487325087961

  Mulliken Charges: (a.u.)
   Center  Symbol    Alpha    Beta     Spin     Total
       1     O     4.20466  4.20466  0.00000 -0.40931
       2     C     2.79833  2.79833  0.00000  0.40334
       3     C     3.08445  3.08445  0.00000 -0.16889
       4     O     4.14791  4.14791  0.00000 -0.29582
       5     C     3.14917  3.14917  0.00000 -0.29834
       6     H     0.44157  0.44157  0.00000  0.11687
       7     H     0.44276  0.44276  0.00000  0.11448
       8     H     0.44377  0.44377  0.00000  0.11247
       9     H     0.44808  0.44808  0.00000  0.10383
      10     H     0.45123  0.45123  0.00000  0.09754
      11     C     3.03478  3.03478  0.00000 -0.06956
      12     H     0.45350  0.45350  0.00000  0.09299
      13     H     0.44554  0.44554  0.00000  0.10891
      14     H     0.45426  0.45426  0.00000  0.09148

   Total alpha = 24.00000, Total beta = 24.00000, Total charge = -0.00000

*** Psi4 exiting successfully. Buy a developer a beer!
