                              Psi4 1.0.54 Driver

  ==> Input File <==

--------------------------------------------------------------------------
set {
	reference rhf
	basis cc-pvtz
}

set_num_threads( 4 )
memory 2 gb

molecule MOL {
0 1

H	 2.646708	 0.758099	 0.000000
O	 2.258158	 -0.097743	 0.000000
C	 0.911162	 -0.015915	 0.000000
C	 0.328927	 0.962085	 0.789506
C	 0.117952	 -0.863484	 -0.750244
H	 0.959796	 1.610601	 1.364772
C	 -1.043459	 1.083072	 0.821011
H	 0.569662	 -1.622523	 -1.362999
C	 -1.258656	 -0.730446	 -0.708860
H	 -1.489147	 1.842810	 1.434657
C	 -1.848854	 0.239722	 0.073680
H	 -1.867295	 -1.392842	 -1.294621
H	 -2.916078	 0.339961	 0.103335

	symmetry c1
}
set optking {
	frozen_dihedral = ("
		4 3 2 1
	")
}

ee,wfn = optimize('scf', return_wfn=True)
oeprop( wfn, 'DIPOLE', 'QUADRUPOLE', 'MULLIKEN_CHARGES')
f=open( 'psi4out.xyz', 'w' )
f.write( "13  " )
f.write( str(ee) + "\n" )
f.write( MOL.save_string_xyz() )
f.close()
--------------------------------------------------------------------------

    Molecular point group: c1
  Charge       = 0
  Multiplicity = 1
  Basis Set: CC-PVTZ
  Basis Set:
  @DF-RHF Final Energy:  -305.66705154192590
    Total Energy =                       -305.6670515419261278
    Molecular point group: c1
  Basis Set: CC-PVTZ
  Basis Set:
  Basis Set: CC-PVTZ
  Basis Set:
  @DF-RHF Final Energy:  -305.66841449931974
    Total Energy =                       -305.6684144993195105
  Basis Set: CC-PVTZ
  Basis Set:
  Basis Set: CC-PVTZ
  Basis Set:
  @DF-RHF Final Energy:  -305.66872523304022
    Total Energy =                       -305.6687252330400497
  Basis Set: CC-PVTZ
  Basis Set:
  Basis Set: CC-PVTZ
  Basis Set:
  @DF-RHF Final Energy:  -305.66874272474899
    Total Energy =                       -305.6687427247489950
  Basis Set: CC-PVTZ
  Basis Set:
  Basis Set: CC-PVTZ
  Basis Set:
  @DF-RHF Final Energy:  -305.66874731404238
    Total Energy =                       -305.6687473140423776
  Basis Set: CC-PVTZ
  Basis Set:
  Charge       = 0
  Multiplicity = 1
  Basis Set: CC-PVTZ
  Basis Set:

    Orbital Energies (a.u.)
    -----------------------

    Doubly Occupied:

       1A    -20.579412     2A    -11.294093     3A    -11.234662
       4A    -11.233184     5A    -11.226239     6A    -11.221914
       7A    -11.221827     8A     -1.408516     9A     -1.152897
      10A     -1.022526    11A     -1.008401    12A     -0.846746
      13A     -0.827207    14A     -0.740360    15A     -0.686823
      16A     -0.653287    17A     -0.622054    18A     -0.598917
      19A     -0.591745    20A     -0.547063    21A     -0.517351
      22A     -0.495731    23A     -0.480458    24A     -0.342591
      25A     -0.320001

  @DF-RHF Final Energy:  -305.66874767167263

   => Energetics <=

    Nuclear Repulsion Energy =            273.6291140386926486
    One-Electron Energy =                -956.8477183889860953
    Two-Electron Energy =                 377.5498566786209267
    DFT Exchange-Correlation Energy =       0.0000000000000000
    Empirical Dispersion Energy =           0.0000000000000000
    PCM Polarization Energy =               0.0000000000000000
    EFP Energy =                            0.0000000000000000
    Total Energy =                       -305.6687476716724632
    Molecular point group: c1
  Basis Set: CC-PVTZ
  Basis Set:

  -Total Gradient:
     Atom            X                  Y                   Z
    ------   -----------------  -----------------  -----------------
       1       -0.000080897803    -0.000195073616    -0.002536823148
       2        0.000046856095    -0.000348257013     0.004045495918
       3        0.000128138467     0.001677813938    -0.003114563855
       4       -0.000032973934    -0.001116639456     0.001578817209
       5       -0.000019488795     0.000005422368     0.000017093937
       6       -0.000004501526    -0.000005520017    -0.000010188990
       7       -0.000006307243    -0.000025335216     0.000015638426
       8        0.000022338865     0.000010406081     0.000002526313
       9       -0.000044624246    -0.000005250985     0.000067878358
      10       -0.000015822789    -0.000007939098    -0.000007309574
      11        0.000016900269    -0.000014709540    -0.000062871336
      12       -0.000000852864     0.000011247100    -0.000004506295
      13       -0.000008764502     0.000013835451     0.000008813037

  **** Optimization is complete! (in 6 steps) ****
    Final optimized geometry and variables:
    Molecular point group: c1

    Geometry (in Angstrom), charge = 0, multiplicity = 1:

    H            2.688139917621     0.605584141068    -0.133698994592
    O            2.253242725620    -0.224652034759    -0.058578566291
    C            0.906292173178    -0.063382195771    -0.032420539198
    C            0.311388088073     0.972106043072     0.664823508039
    C            0.125675998501    -1.005674563918    -0.675810104825
    H            0.922601517690     1.687199348638     1.183575281739
    C           -1.066719639593     1.075136797238     0.694786848249
    H            0.605323688448    -1.806715660445    -1.202964798533
    C           -1.249967008286    -0.900405758058    -0.627716253107
    H           -1.522832494827     1.884533499942     1.232482300978
    C           -1.855111704581     0.141256701491     0.051710616174
    H           -1.851789183076    -1.634233706911    -1.129304516939
    H           -2.924265199774     0.220986874511     0.082128881639

  Mulliken Charges: (a.u.)
   Center  Symbol    Alpha    Beta     Spin     Total
       1     H     0.38588  0.38588  0.00000  0.22824
       2     O     4.18281  4.18281  0.00000 -0.36561
       3     C     2.86234  2.86234  0.00000  0.27531
       4     C     3.12563  3.12563  0.00000 -0.25126
       5     C     3.10921  3.10921  0.00000 -0.21842
       6     H     0.42761  0.42761  0.00000  0.14478
       7     C     3.06649  3.06649  0.00000 -0.13297
       8     H     0.41769  0.41769  0.00000  0.16463
       9     C     3.06048  3.06048  0.00000 -0.12095
      10     H     0.42226  0.42226  0.00000  0.15548
      11     C     3.09381  3.09381  0.00000 -0.18761
      12     H     0.42219  0.42219  0.00000  0.15563
      13     H     0.42362  0.42362  0.00000  0.15276

   Total alpha = 25.00000, Total beta = 25.00000, Total charge =  0.00000

*** Psi4 exiting successfully. Buy a developer a beer!
