  ==> Input File <==

--------------------------------------------------------------------------
set {
	reference rhf
	basis 6-31G*
}

set_num_threads( 4 )
memory 2 gb

molecule MOL {
0 1

H	 -3.420663	 1.227371	 -1.044276
O	 -3.452007	 0.283848	 -0.965577
C	 -3.181085	 -0.079926	 0.364119
C	 -1.765924	 0.277073	 0.805136
H	 -3.327791	 -1.152017	 0.410903
H	 -3.905698	 0.375695	 1.036898
C	 -0.677594	 -0.417312	 -0.014550
H	 -1.637766	 1.358238	 0.744969
H	 -1.659588	 0.017670	 1.857098
C	 0.738335	 -0.034840	 0.421385
H	 -0.814977	 -0.178223	 -1.064632
H	 -0.802730	 -1.495410	 0.071702
C	 1.743934	 -1.174579	 0.237403
H	 1.058480	 0.837793	 -0.142918
H	 0.726076	 0.266188	 1.468207
C	 3.158821	 -0.869629	 0.742633
H	 1.790418	 -1.446570	 -0.815951
H	 1.372997	 -2.053524	 0.760544
C	 3.886042	 0.232649	 -0.029725
H	 3.748513	 -1.781404	 0.685890
H	 3.114573	 -0.602999	 1.796745
H	 3.934490	 -0.001010	 -1.090006
H	 4.904333	 0.347297	 0.329128
H	 3.394801	 1.194353	 0.075022

	symmetry c1
}
set optking {
	frozen_dihedral = ("
		13 10 7 11
	")
}

ee = optimize('scf')
oeprop('DIPOLE', 'QUADRUPOLE', 'MULLIKEN_CHARGES')
f=open( 'psi4out.xyz', 'w' )
f.write( "24  " )
f.write( str(ee) + "\n" )
f.write( MOL.save_string_xyz() )
f.close()
--------------------------------------------------------------------------

    Molecular point group: c1
  Charge       = 0
  Multiplicity = 1
  Basis Set: 6-31G*
  Basis Set:
  @DF-RHF Final Energy:  -349.24448864688264
    Total Energy =                       -349.2444886468828713
    Molecular point group: c1
  Basis Set: 6-31G*
  Basis Set:
  Basis Set: 6-31G*
  Basis Set:
  @DF-RHF Final Energy:  -349.24472327297985
    Total Energy =                       -349.2447232729801385
  Basis Set: 6-31G*
  Basis Set:
  Basis Set: 6-31G*
  Basis Set:
  @DF-RHF Final Energy:  -349.24480686465819
    Total Energy =                       -349.2448068646579031
  Basis Set: 6-31G*
  Basis Set:
  Basis Set: 6-31G*
  Basis Set:
  @DF-RHF Final Energy:  -349.24480458604825
    Total Energy =                       -349.2448045860479056
  Basis Set: 6-31G*
  Basis Set:
  Basis Set: 6-31G*
  Basis Set:
  @DF-RHF Final Energy:  -349.24481196354026
    Total Energy =                       -349.2448119635405419
  Basis Set: 6-31G*
  Basis Set:
  Basis Set: 6-31G*
  Basis Set:
  @DF-RHF Final Energy:  -349.24481558925908
    Total Energy =                       -349.2448155892590194
  Basis Set: 6-31G*
  Basis Set:
  Charge       = 0
  Multiplicity = 1
  Basis Set: 6-31G*
  Basis Set:

    Orbital Energies (a.u.)
    -----------------------

    Doubly Occupied:

       1A    -20.553666     2A    -11.267499     3A    -11.217350
       4A    -11.214077     5A    -11.212433     6A    -11.211860
       7A    -11.210803     8A    -11.207284     9A     -1.360186
      10A     -1.087614    11A     -1.048077    12A     -0.984912
      13A     -0.914929    14A     -0.850379    15A     -0.800711
      16A     -0.776802    17A     -0.678961    18A     -0.653691
      19A     -0.623320    20A     -0.620971    21A     -0.595571
      22A     -0.578475    23A     -0.567934    24A     -0.532387
      25A     -0.520642    26A     -0.512661    27A     -0.493278
      28A     -0.477253    29A     -0.466350    30A     -0.459645
      31A     -0.453431    32A     -0.448166    33A     -0.419027

  @DF-RHF Final Energy:  -349.24481581436646

   => Energetics <=

    Nuclear Repulsion Energy =            383.9713931018349058
    One-Electron Energy =               -1234.3917299338218072
    Two-Electron Energy =                 501.1755210176207811
    DFT Exchange-Correlation Energy =       0.0000000000000000
    Empirical Dispersion Energy =           0.0000000000000000
    PCM Polarization Energy =               0.0000000000000000
    EFP Energy =                            0.0000000000000000
    Total Energy =                       -349.2448158143661203
    Molecular point group: c1
  Basis Set: 6-31G*
  Basis Set:

  -Total Gradient:
     Atom            X                  Y                   Z
    ------   -----------------  -----------------  -----------------
       1        0.000000319086     0.000005968586    -0.000007462183
       2       -0.000013497762     0.000019070868     0.000016572074
       3        0.000014229045    -0.000037421199    -0.000021327824
       4       -0.000004289313     0.000021229422    -0.000026918718
       5       -0.000001322179    -0.000005009599     0.000010901350
       6        0.000007273707     0.000007358231    -0.000006755590
       7        0.001499859882    -0.005186162931    -0.000258500183
       8        0.000011064109     0.000010710591     0.000016201803
       9       -0.000009544730    -0.000009736801    -0.000008401006
      10        0.000524532335     0.002459454903    -0.003680128123
      11       -0.001426208350     0.003805732425     0.001146164145
      12       -0.000014915170    -0.000016776936    -0.000005108503
      13       -0.000611383755    -0.001074070473     0.002785074398
      14        0.000001540093    -0.000002643331     0.000027890095
      15        0.000005256266    -0.000009880709    -0.000014244574
      16       -0.000010762836     0.000019436472     0.000045500982
      17       -0.000017415647    -0.000011366534    -0.000006070458
      18       -0.000000724017     0.000003434388    -0.000001665106
      19        0.000014955926     0.000008730371    -0.000010464292
      20       -0.000009787177     0.000008721382    -0.000007149147
      21        0.000017049439    -0.000011606393     0.000016974816
      22        0.000008623925     0.000003888426    -0.000006715314
      23       -0.000004628698     0.000004635259    -0.000004663499
      24        0.000019775822    -0.000013696416     0.000000294860

  **** Optimization is complete! (in 7 steps) ****
    Final optimized geometry and variables:
    Molecular point group: c1

    Geometry (in Angstrom), charge = 0, multiplicity = 1:

    H           -3.352011228845     1.515149806615    -1.210743131177
    O           -3.407504304768     0.570118583228    -1.176553969900
    C           -3.196137610092     0.140849288835     0.144622701917
    C           -1.788791826923     0.435900485841     0.651097471836
    H           -3.374748073788    -0.927416466029     0.138478346096
    H           -3.932133152936     0.588139349094     0.810508713971
    C           -0.690054356017    -0.267945579368    -0.149882952439
    H           -1.623433147589     1.513781140902     0.631367494015
    H           -1.730833290047     0.140109864996     1.697135597986
    C            0.724291640477     0.126238947453     0.306936654134
    H           -0.825427866100    -0.008367984364    -1.194406838499
    H           -0.826701120590    -1.343535309298    -0.065310026010
    C            1.753490647762    -0.990416254323     0.108062057322
    H            1.030913528384     1.029146080634    -0.212688295342
    H            0.704977321351     0.379906869226     1.366153772169
    C            3.173852182842    -0.643717453768     0.568438254100
    H            1.778087178076    -1.281981042772    -0.941260244917
    H            1.415161428042    -1.866450368224     0.656995481256
    C            3.865256001637     0.439290849262    -0.262029322821
    H            3.777534967948    -1.547314464947     0.532189800917
    H            3.149138216884    -0.338193911512     1.612743554369
    H            3.898043311840     0.163204785497    -1.312568942970
    H            4.887815594485     0.586922568477     0.071777947422
    H            3.358257760737     1.395508494154    -0.187158287693

  Mulliken Charges: (a.u.)
   Center  Symbol    Alpha    Beta     Spin     Total
       1     H     0.28336  0.28336  0.00000  0.43328
       2     O     4.36837  4.36837  0.00000 -0.73674
       3     C     2.99663  2.99663  0.00000  0.00673
       4     C     3.16992  3.16992  0.00000 -0.33983
       5     H     0.41638  0.41638  0.00000  0.16724
       6     H     0.42818  0.42818  0.00000  0.14363
       7     C     3.15411  3.15411  0.00000 -0.30822
       8     H     0.42822  0.42822  0.00000  0.14356
       9     H     0.42246  0.42246  0.00000  0.15508
      10     C     3.15487  3.15487  0.00000 -0.30974
      11     H     0.40981  0.40981  0.00000  0.18039
      12     H     0.42221  0.42221  0.00000  0.15557
      13     C     3.15332  3.15332  0.00000 -0.30665
      14     H     0.42023  0.42023  0.00000  0.15954
      15     H     0.42529  0.42529  0.00000  0.14942
      16     C     3.15285  3.15285  0.00000 -0.30569
      17     H     0.42332  0.42332  0.00000  0.15335
      18     H     0.42240  0.42240  0.00000  0.15520
      19     C     3.24073  3.24073  0.00000 -0.48147
      20     H     0.42109  0.42109  0.00000  0.15781
      21     H     0.42396  0.42396  0.00000  0.15207
      22     H     0.42189  0.42189  0.00000  0.15622
      23     H     0.41960  0.41960  0.00000  0.16080
      24     H     0.42079  0.42079  0.00000  0.15843

   Total alpha = 33.00000, Total beta = 33.00000, Total charge = -0.00000
