  ==> Input File <==

--------------------------------------------------------------------------
set {
	reference rhf
	basis 6-31G*
}

set_num_threads( 4 )
memory 2 gb

molecule MOL {
0 1

O	 3.225979	 0.970355	 -0.599647
C	 2.701189	 0.057885	 -0.047330
C	 1.245376	 -0.013843	 0.345420
O	 3.347903	 -1.046386	 0.304773
C	 0.455112	 1.231400	 -0.050772
H	 0.838542	 -0.913825	 -0.103701
H	 1.208210	 -0.175333	 1.419774
C	 -0.998893	 1.219485	 0.433193
H	 0.482531	 1.345121	 -1.130325
H	 0.957290	 2.103070	 0.354729
C	 -1.883438	 0.145884	 -0.207175
H	 -1.431207	 2.195402	 0.224832
H	 -1.019646	 1.105716	 1.516076
C	 -3.347647	 0.245583	 0.225435
H	 -1.822183	 0.231698	 -1.291012
H	 -1.510341	 -0.844814	 0.042401
C	 -4.239992	 -0.825570	 -0.404234
H	 -3.732888	 1.230466	 -0.033079
H	 -3.408585	 0.170602	 1.310038
C	 -4.100254	 -2.190690	 0.268537
H	 -5.278082	 -0.503769	 -0.354672
H	 -3.999975	 -0.918569	 -1.461364
H	 -4.744677	 -2.928279	 -0.199745
H	 -4.367210	 -2.138544	 1.320303
H	 -3.079107	 -2.556161	 0.205569
C	 4.728119	 -1.109107	 -0.004993
H	 4.882018	 -1.033965	 -1.071845
H	 5.068212	 -2.067527	 0.355250
H	 5.265056	 -0.311663	 0.488280

	symmetry c1
}
set optking {
	frozen_dihedral = ("
		21 17 14 11
	")
}

ee = optimize('scf')
oeprop('DIPOLE', 'QUADRUPOLE', 'MULLIKEN_CHARGES')
f=open( 'psi4out.xyz', 'w' )
f.write( "29  " )
f.write( str(ee) + "\n" )
f.write( MOL.save_string_xyz() )
f.close()
--------------------------------------------------------------------------

    Molecular point group: c1
  Charge       = 0
  Multiplicity = 1
  Basis Set: 6-31G*
  Basis Set:
  @DF-RHF Final Energy:  -501.04183236280198
    Total Energy =                       -501.0418323628015287
    Molecular point group: c1
  Basis Set: 6-31G*
  Basis Set:
  Basis Set: 6-31G*
  Basis Set:
  @DF-RHF Final Energy:  -501.04203455646393
    Total Energy =                       -501.0420345564640456
  Basis Set: 6-31G*
  Basis Set:
  Basis Set: 6-31G*
  Basis Set:
  @DF-RHF Final Energy:  -501.04205671966952
    Total Energy =                       -501.0420567196697448
  Basis Set: 6-31G*
  Basis Set:
  Basis Set: 6-31G*
  Basis Set:
  @DF-RHF Final Energy:  -501.04204333412372
    Total Energy =                       -501.0420433341232638
  Basis Set: 6-31G*
  Basis Set:
  Basis Set: 6-31G*
  Basis Set:
  @DF-RHF Final Energy:  -501.04205803805144
    Total Energy =                       -501.0420580380518913
  Basis Set: 6-31G*
  Basis Set:
  Basis Set: 6-31G*
  Basis Set:
  @DF-RHF Final Energy:  -501.04205100296531
    Total Energy =                       -501.0420510029650814
  Basis Set: 6-31G*
  Basis Set:
  Charge       = 0
  Multiplicity = 1
  Basis Set: 6-31G*
  Basis Set:

    Orbital Energies (a.u.)
    -----------------------

    Doubly Occupied:

       1A    -20.603400     2A    -20.545228     3A    -11.372041
       4A    -11.280680     5A    -11.234807     6A    -11.219104
       7A    -11.217596     8A    -11.216044     9A    -11.215761
      10A    -11.214581    11A    -11.209496    12A     -1.469098
      13A     -1.362542    14A     -1.097967    15A     -1.066213
      16A     -1.018383    17A     -0.976160    18A     -0.928362
      19A     -0.868447    20A     -0.802075    21A     -0.782768
      22A     -0.764007    23A     -0.700791    24A     -0.682365
      25A     -0.672087    26A     -0.642804    27A     -0.629727
      28A     -0.608131    29A     -0.595770    30A     -0.588637
      31A     -0.559491    32A     -0.554352    33A     -0.534565
      34A     -0.525205    35A     -0.521299    36A     -0.509874
      37A     -0.496223    38A     -0.476604    39A     -0.473569
      40A     -0.462582    41A     -0.456243    42A     -0.451386
      43A     -0.441759    44A     -0.435701

  @DF-RHF Final Energy:  -501.04205827477892

   => Energetics <=

    Nuclear Repulsion Energy =            616.1402003163633481
    One-Electron Energy =               -1903.3966655810875181
    Two-Electron Energy =                 786.2144069899457008
    DFT Exchange-Correlation Energy =       0.0000000000000000
    Empirical Dispersion Energy =           0.0000000000000000
    PCM Polarization Energy =               0.0000000000000000
    EFP Energy =                            0.0000000000000000
    Total Energy =                       -501.0420582747785829
    Molecular point group: c1
  Basis Set: 6-31G*
  Basis Set:

  -Total Gradient:
     Atom            X                  Y                   Z
    ------   -----------------  -----------------  -----------------
       1        0.000003318004     0.000002469198     0.000008121507
       2       -0.000007284810    -0.000012176132    -0.000024548448
       3        0.000004864000     0.000005500924     0.000008230771
       4        0.000003173427     0.000004423423     0.000007052242
       5        0.000009651608     0.000006020145     0.000003289142
       6        0.000003330992     0.000000883417    -0.000001451207
       7       -0.000002627332    -0.000000399315    -0.000000374440
       8       -0.000008676044    -0.000005135394     0.000006064933
       9        0.000001537025    -0.000000144928     0.000002148616
      10        0.000008972059    -0.000000753959    -0.000001772912
      11       -0.000272824107     0.000861919616    -0.001104555787
      12       -0.000000514651    -0.000003649468     0.000000489284
      13       -0.000000309574     0.000004787345    -0.000000141777
      14        0.000411309062    -0.001025535414     0.001151856226
      15       -0.000009195947    -0.000002601591    -0.000001122772
      16       -0.000001690956     0.000002833596     0.000000901816
      17       -0.000326555521    -0.000692485975     0.001691895709
      18       -0.000001245728     0.000004925106    -0.000005436538
      19        0.000001430413    -0.000006784976    -0.000005154075
      20       -0.000008998719     0.000005600342     0.000004803543
      21        0.000188445137     0.000828729524    -0.001725517134
      22        0.000009056635     0.000001076485    -0.000000430661
      23       -0.000008091642    -0.000000929774    -0.000007798608
      24        0.000004073148     0.000007915942    -0.000001300226
      25       -0.000001257079     0.000013476699    -0.000005569509
      26       -0.000000164812    -0.000000038487     0.000000316203
      27       -0.000000266254     0.000000076015    -0.000000028371
      28        0.000000232733     0.000000053879     0.000000076028
      29        0.000000308923    -0.000000056248    -0.000000043556

  **** Optimization is complete! (in 7 steps) ****
    Final optimized geometry and variables:
    Molecular point group: c1

    Geometry (in Angstrom), charge = 0, multiplicity = 1:

    O            3.078246409074     1.119241155957    -0.624181458718
    C            2.558154608824     0.204679901492    -0.070885969705
    C            1.102981275332     0.126398698462     0.323016158655
    O            3.210314085524    -0.896236475524     0.281649719588
    C            0.306312858529     1.367182783339    -0.074399950820
    H            0.700354753122    -0.776261867363    -0.124515678492
    H            1.067388641424    -0.033725223394     1.397628334279
    C           -1.147052761847     1.349579514388     0.411434025124
    H            0.331889609965     1.479116153288    -1.154185613255
    H            0.805006690161     2.241871006207     0.328888342346
    C           -2.027825745345     0.270822809919    -0.225860324822
    H           -1.583869373822     2.323326094180     0.202037583850
    H           -1.165885287829     1.237656253689     1.494531497096
    C           -3.494850712657     0.379954410118     0.200267473991
    H           -1.967344100263     0.353664969155    -1.309868827681
    H           -1.646904634824    -0.714868992424     0.027567927816
    C           -4.410072747898    -0.686510384521    -0.416463397145
    H           -3.860378446130     1.363840732397    -0.085807558675
    H           -3.566104417827     0.335001432501     1.285729458928
    C           -4.302788851324    -2.062737186974     0.241358017907
    H           -5.440001724823    -0.343224014029    -0.362621341217
    H           -4.186730458057    -0.775669532145    -1.477890279578
    H           -4.976440882095    -2.772206518390    -0.229398438360
    H           -4.561261456412    -2.011273308862     1.295376375716
    H           -3.298748490623    -2.468615013015     0.167282589064
    C            4.590647002556    -0.952635543015    -0.028851948255
    H            4.743583662828    -0.877601176351    -1.095854186429
    H            4.935472756073    -1.909141025641     0.331957271553
    H            5.124048310769    -0.152260321349     0.463506510674

  Mulliken Charges: (a.u.)
   Center  Symbol    Alpha    Beta     Spin     Total
       1     O     4.28595  4.28595  0.00000 -0.57190
       2     C     2.60481  2.60481  0.00000  0.79039
       3     C     3.20975  3.20975  0.00000 -0.41950
       4     O     4.30746  4.30746  0.00000 -0.61492
       5     C     3.15366  3.15366  0.00000 -0.30732
       6     H     0.39900  0.39900  0.00000  0.20200
       7     H     0.40119  0.40119  0.00000  0.19762
       8     C     3.15661  3.15661  0.00000 -0.31321
       9     H     0.41311  0.41311  0.00000  0.17378
      10     H     0.40873  0.40873  0.00000  0.18253
      11     C     3.15619  3.15619  0.00000 -0.31238
      12     H     0.41835  0.41835  0.00000  0.16330
      13     H     0.42377  0.42377  0.00000  0.15247
      14     C     3.15278  3.15278  0.00000 -0.30556
      15     H     0.42260  0.42260  0.00000  0.15480
      16     H     0.42239  0.42239  0.00000  0.15522
      17     C     3.15371  3.15371  0.00000 -0.30741
      18     H     0.42147  0.42147  0.00000  0.15706
      19     H     0.42367  0.42367  0.00000  0.15265
      20     C     3.24019  3.24019  0.00000 -0.48038
      21     H     0.42028  0.42028  0.00000  0.15944
      22     H     0.42304  0.42304  0.00000  0.15393
      23     H     0.41905  0.41905  0.00000  0.16191
      24     H     0.42176  0.42176  0.00000  0.15647
      25     H     0.42138  0.42138  0.00000  0.15724
      26     C     3.09241  3.09241  0.00000 -0.18483
      27     H     0.40908  0.40908  0.00000  0.18183
      28     H     0.40850  0.40850  0.00000  0.18300
      29     H     0.40912  0.40912  0.00000  0.18177

   Total alpha = 44.00000, Total beta = 44.00000, Total charge =  0.00000
