  ==> Input File <==

--------------------------------------------------------------------------
set {
	reference rhf
	basis cc-pvtz
}

set_num_threads( 4 )
memory 2 gb

molecule MOL {
0 1

H	 -0.886353	 4.075028	 -0.206556
O	 -0.970912	 3.171907	 0.036912
C	 0.195440	 2.468143	 -0.304198
C	 0.027642	 1.012027	 0.090274
H	 1.053379	 2.881115	 0.220362
H	 0.393366	 2.555635	 -1.368919
C	 -1.138737	 0.285728	 -0.581921
H	 -0.104178	 0.969771	 1.166538
H	 0.958383	 0.496188	 -0.132987
C	 -1.933983	 -0.631436	 0.343653
H	 -0.763151	 -0.285569	 -1.422081
H	 -1.808359	 1.035291	 -0.992333
H	 -2.789188	 -1.049673	 -0.174718
H	 -1.335629	 -1.461368	 0.700418
H	 -2.305435	 -0.092167	 1.209725

	symmetry c1
}
set optking {
	frozen_dihedral = ("
		8 4 7 11
	")
}

ee = optimize('scf')
oeprop('DIPOLE', 'QUADRUPOLE', 'MULLIKEN_CHARGES')
f=open( 'psi4out.xyz', 'w' )
f.write( "15  " )
f.write( str(ee) + "\n" )
f.write( MOL.save_string_xyz() )
f.close()
--------------------------------------------------------------------------

    Molecular point group: c1
  Charge       = 0
  Multiplicity = 1
  Basis Set: CC-PVTZ
  Basis Set:
  @DF-RHF Final Energy:  -232.23459815452091
    Total Energy =                       -232.2345981545208247
    Molecular point group: c1
  Basis Set: CC-PVTZ
  Basis Set:
  Basis Set: CC-PVTZ
  Basis Set:
  @DF-RHF Final Energy:  -232.23539178554566
    Total Energy =                       -232.2353917855455165
  Basis Set: CC-PVTZ
  Basis Set:
  Basis Set: CC-PVTZ
  Basis Set:
  @DF-RHF Final Energy:  -232.23545936448815
    Total Energy =                       -232.2354593644881788
  Basis Set: CC-PVTZ
  Basis Set:
  Basis Set: CC-PVTZ
  Basis Set:
  @DF-RHF Final Energy:  -232.23546347812240
    Total Energy =                       -232.2354634781223695
  Basis Set: CC-PVTZ
  Basis Set:
  Basis Set: CC-PVTZ
  Basis Set:
  @DF-RHF Final Energy:  -232.23546555318327
    Total Energy =                       -232.2354655531833032
  Basis Set: CC-PVTZ
  Basis Set:
  Charge       = 0
  Multiplicity = 1
  Basis Set: CC-PVTZ
  Basis Set:

    Orbital Energies (a.u.)
    -----------------------

    Doubly Occupied:

       1A    -20.546741     2A    -11.266472     3A    -11.210319
       4A    -11.207533     5A    -11.201439     6A     -1.364653
       7A     -1.064006     8A     -0.974813     9A     -0.856375
      10A     -0.787627    11A     -0.708865    12A     -0.637100
      13A     -0.611217    14A     -0.596056    15A     -0.547467
      16A     -0.527909    17A     -0.513546    18A     -0.476423
      19A     -0.462417    20A     -0.457950    21A     -0.433174

  @DF-RHF Final Energy:  -232.23546565639947

   => Energetics <=

    Nuclear Repulsion Energy =            189.4679531790681040
    One-Electron Energy =                -690.5026365718778152
    Two-Electron Energy =                 268.7992177364102417
    DFT Exchange-Correlation Energy =       0.0000000000000000
    Empirical Dispersion Energy =           0.0000000000000000
    PCM Polarization Energy =               0.0000000000000000
    EFP Energy =                            0.0000000000000000
    Total Energy =                       -232.2354656563994695
    Molecular point group: c1
  Basis Set: CC-PVTZ
  Basis Set:

  -Total Gradient:
     Atom            X                  Y                   Z
    ------   -----------------  -----------------  -----------------
       1       -0.000000468181     0.000004879153     0.000006156537
       2        0.000001021247     0.000006691335    -0.000008863673
       3       -0.000007691811    -0.000012715106     0.000005645450
       4       -0.002168399658     0.003251109086     0.000373842901
       5       -0.000001523819    -0.000004818021    -0.000007819658
       6        0.000001243728     0.000003695956     0.000000509917
       7       -0.000083810881     0.002754875316    -0.002646618765
       8        0.001821464524    -0.003137180015     0.000121149914
       9        0.000003491521    -0.000004894337    -0.000007653906
      10       -0.000001524006    -0.000002410393     0.000008931696
      11        0.000425565119    -0.002861110799     0.002152498214
      12        0.000007759988    -0.000003225196     0.000002513368
      13        0.000007224320     0.000006464801     0.000001660898
      14        0.000000769878    -0.000003552912    -0.000005217594
      15       -0.000005121970     0.000002191135     0.000003264703

  **** Optimization is complete! (in 6 steps) ****
    Final optimized geometry and variables:
    Molecular point group: c1

    Geometry (in Angstrom), charge = 0, multiplicity = 1:

    H           -0.064216249522     2.771487345046    -0.137240400441
    O           -0.145104125263     1.885553490947     0.163612875692
    C            0.970188260709     1.133419798840    -0.238834700350
    C            0.769358899213    -0.307494463936     0.183932712518
    H            1.874875767618     1.526181076777     0.218075381928
    H            1.095718793732     1.188123717446    -1.318636230680
    C           -0.398289921569    -1.013953190074    -0.524084599610
    H            0.634572483092    -0.345815211667     1.259759411742
    H            1.693544493753    -0.843599155117    -0.013213967419
    C           -1.155069690932    -1.971280914367     0.393219467839
    H           -0.015849034352    -1.585044537713    -1.364266987653
    H           -1.088832409675    -0.278124382584    -0.915724251869
    H           -1.945525648583    -2.485138950063    -0.142230345262
    H           -0.492240765180    -2.725247136149     0.806349029716
    H           -1.606042893670    -1.437405385675     1.222370559961

  Mulliken Charges: (a.u.)
   Center  Symbol    Alpha    Beta     Spin     Total
       1     H     0.39528  0.39528  0.00000  0.20945
       2     O     4.19918  4.19918  0.00000 -0.39837
       3     C     2.97423  2.97423  0.00000  0.05153
       4     C     3.08994  3.08994  0.00000 -0.17988
       5     H     0.46446  0.46446  0.00000  0.07107
       6     H     0.47276  0.47276  0.00000  0.05447
       7     C     3.08274  3.08274  0.00000 -0.16549
       8     H     0.45327  0.45327  0.00000  0.09347
       9     H     0.45312  0.45312  0.00000  0.09377
      10     C     3.14878  3.14878  0.00000 -0.29757
      11     H     0.45623  0.45623  0.00000  0.08754
      12     H     0.44988  0.44988  0.00000  0.10024
      13     H     0.45103  0.45103  0.00000  0.09794
      14     H     0.45691  0.45691  0.00000  0.08618
      15     H     0.45218  0.45218  0.00000  0.09564

   Total alpha = 21.00000, Total beta = 21.00000, Total charge =  0.00000
