  ==> Input File <==

--------------------------------------------------------------------------
set {
	reference rhf
	basis 6-31G*
}

set_num_threads( 1 )
memory 2 gb

molecule MOL {
0 1

H	 -2.646374	 -0.642757	 1.268656
C	 -2.083525	 -0.384536	 0.393091
O	 -0.807605	 -0.127164	 0.768327
F	 -2.118945	 -1.383102	 -0.486752
F	 -2.621877	 0.670592	 -0.209486
C	 0.084052	 0.273579	 -0.209957
C	 0.801086	 1.508260	 0.320690
Cl	 -0.761767	 0.644704	 -1.721271
H	 0.821683	 -0.479648	 -0.425186
F	 1.680835	 1.941527	 -0.557069
F	 1.448045	 1.182697	 1.422003
F	 -0.030964	 2.481641	 0.600325

	symmetry c1
}
set optking {
	frozen_dihedral = ("
		10 7 6 9,
		6 3 2 4
	")
}

ee = energy('scf')
oeprop('DIPOLE', 'QUADRUPOLE', 'MULLIKEN_CHARGES')
f=open( 'psi4out.xyz', 'w' )
f.write( "12  " )
f.write( str(ee) + "\n" )
f.write( MOL.save_string_xyz() )
f.close()
--------------------------------------------------------------------------

    Molecular point group: c1

    Geometry (in Angstrom), charge = 0, multiplicity = 1:

       Center              X                  Y                   Z               Mass
    ------------   -----------------  -----------------  -----------------  -----------------
           H         -2.173540292685    -1.344566835275     1.412131633876     1.007825032070
           C         -1.610691292685    -1.086345835275     0.536566633876    12.000000000000
           O         -0.334771292685    -0.828973835275     0.911802633876    15.994914619560
           F         -1.646111292685    -2.084911835275    -0.343276366124    18.998403224000
           F         -2.149043292685    -0.031217835275    -0.066010366124    18.998403224000
           C          0.556885707315    -0.428230835275    -0.066481366124    12.000000000000
           C          1.273919707315     0.806450164725     0.464165633876    12.000000000000
          CL         -0.288933292685    -0.057105835275    -1.577795366124    34.968852682000
           H          1.294516707315    -1.181457835275    -0.281710366124     1.007825032070
           F          2.153668707315     1.239717164725    -0.413593366124    18.998403224000
           F          1.920878707315     0.480887164725     1.565478633876    18.998403224000
           F          0.441869707315     1.779831164725     0.743800633876    18.998403224000

  Charge       = 0
  Multiplicity = 1
  Basis Set: 6-31G*
  Basis Set:

    Orbital Energies (a.u.)
    -----------------------

    Doubly Occupied:

       1A   -104.831526     2A    -26.358070     3A    -26.357230
       4A    -26.356611     5A    -26.336279     6A    -26.332392
       7A    -20.646589     8A    -11.524659     9A    -11.484645
      10A    -11.397622    11A    -10.568414    12A     -8.037626
      13A     -8.034105    14A     -8.033861    15A     -1.759536
      16A     -1.711113    17A     -1.655999    18A     -1.654871
      19A     -1.630653    20A     -1.484049    21A     -1.177134
      22A     -1.053779    23A     -0.982867    24A     -0.916197
      25A     -0.851175    26A     -0.849324    27A     -0.842940
      28A     -0.821000    29A     -0.803832    30A     -0.779895
      31A     -0.732344    32A     -0.722970    33A     -0.708765
      34A     -0.689543    35A     -0.677464    36A     -0.672607
      37A     -0.657218    38A     -0.655255    39A     -0.645839
      40A     -0.632873    41A     -0.602863    42A     -0.550617
      43A     -0.537166    44A     -0.463018    45A     -0.453139

  @DF-RHF Final Energy: -1146.28148018399156

   => Energetics <=

    Nuclear Repulsion Energy =            761.8823770149244865
    One-Electron Energy =               -3106.9762801736574147
    Two-Electron Energy =                1198.8124229747415939
    DFT Exchange-Correlation Energy =       0.0000000000000000
    Empirical Dispersion Energy =           0.0000000000000000
    PCM Polarization Energy =               0.0000000000000000
    EFP Energy =                            0.0000000000000000
    Total Energy =                      -1146.2814801839915617

  Mulliken Charges: (a.u.)
   Center  Symbol    Alpha    Beta     Spin     Total
       1     H     0.39744  0.39744  0.00000  0.20511
       2     C     2.56907  2.56907  0.00000  0.86186
       3     O     4.30797  4.30797  0.00000 -0.61595
       4     F     4.68625  4.68625  0.00000 -0.37251
       5     F     4.68033  4.68033  0.00000 -0.36066
       6     C     3.03323  3.03323  0.00000 -0.06646
       7     C     2.43671  2.43671  0.00000  1.12658
       8    CL     8.49913  8.49913  0.00000  0.00173
       9     H     0.37008  0.37008  0.00000  0.25985
      10     F     4.67393  4.67393  0.00000 -0.34785
      11     F     4.67689  4.67689  0.00000 -0.35379
      12     F     4.66896  4.66896  0.00000 -0.33791

   Total alpha = 45.00000, Total beta = 45.00000, Total charge = -0.00000
