  ==> Input File <==

--------------------------------------------------------------------------
set {
	reference rhf
	basis 6-31G*
}

set_num_threads( 4 )
memory 2 gb

molecule MOL {
0 1

O	 0.035913	 -0.220780	 -0.340723
C	 1.122059	 0.121804	 -0.000188
C	 1.496898	 1.502438	 0.480685
O	 2.172624	 -0.688929	 0.000216
C	 0.323525	 2.477212	 0.499499
H	 1.934605	 1.394138	 1.469339
H	 2.297878	 1.862775	 -0.159114
C	 0.730541	 3.867583	 0.989980
H	 -0.463015	 2.079079	 1.133021
H	 -0.099552	 2.548019	 -0.497745
C	 -0.438875	 4.850964	 1.010776
H	 1.154519	 3.790801	 1.989191
H	 1.520599	 4.260717	 0.353329
H	 -1.231725	 4.502549	 1.666254
H	 -0.123637	 5.828339	 1.362398
H	 -0.862619	 4.976290	 0.018619
C	 3.452279	 -0.082609	 0.000533
H	 3.583069	 0.529321	 -0.880332
H	 4.163299	 -0.894027	 0.001117
H	 3.582335	 0.529955	 0.881077

	symmetry c1
}
set optking {
	frozen_dihedral = ("
		1 2 4 17
	")
}

ee = optimize('scf')
oeprop('DIPOLE', 'QUADRUPOLE', 'MULLIKEN_CHARGES')
f=open( 'psi4out.xyz', 'w' )
f.write( "20  " )
f.write( str(ee) + "\n" )
f.write( MOL.save_string_xyz() )
f.close()
--------------------------------------------------------------------------

    Molecular point group: c1
  Charge       = 0
  Multiplicity = 1
  Basis Set: 6-31G*
  Basis Set:
  @DF-RHF Final Energy:  -383.91524539281932
    Total Energy =                       -383.9152453928193154
    Molecular point group: c1
  Basis Set: 6-31G*
  Basis Set:
  Basis Set: 6-31G*
  Basis Set:
  @DF-RHF Final Energy:  -383.91397442590659
    Total Energy =                       -383.9139744259065310
  Basis Set: 6-31G*
  Basis Set:
  Basis Set: 6-31G*
  Basis Set:
  @DF-RHF Final Energy:  -383.92300153187205
    Total Energy =                       -383.9230015318717051
  Basis Set: 6-31G*
  Basis Set:
  Basis Set: 6-31G*
  Basis Set:
  @DF-RHF Final Energy:  -383.92499889065067
    Total Energy =                       -383.9249988906507269
  Basis Set: 6-31G*
  Basis Set:
  @DF-RHF Final Energy:  -383.92405723324561
    Total Energy =                       -383.9240572332455486
  Basis Set: 6-31G*
  Basis Set:
  @DF-RHF Final Energy:  -383.92551537241940
    Total Energy =                       -383.9255153724194543
  Basis Set: 6-31G*
  Basis Set:
  Basis Set: 6-31G*
  Basis Set:
  @DF-RHF Final Energy:  -383.92569752723364
    Total Energy =                       -383.9256975272336376
  Basis Set: 6-31G*
  Basis Set:
  Basis Set: 6-31G*
  Basis Set:
  @DF-RHF Final Energy:  -383.92570161302774
    Total Energy =                       -383.9257016130276270
  Basis Set: 6-31G*
  Basis Set:
  Charge       = 0
  Multiplicity = 1
  Basis Set: 6-31G*
  Basis Set:

    Orbital Energies (a.u.)
    -----------------------

    Doubly Occupied:

       1A    -20.600540     2A    -20.541044     3A    -11.374000
       4A    -11.296391     5A    -11.245655     6A    -11.224430
       7A    -11.223602     8A    -11.213506     9A     -1.462567
      10A     -1.365333    11A     -1.091865    12A     -1.017184
      13A     -0.984630    14A     -0.901868    15A     -0.810697
      16A     -0.767201    17A     -0.700106    18A     -0.688577
      19A     -0.673034    20A     -0.649976    21A     -0.603519
      22A     -0.593980    23A     -0.589383    24A     -0.552613
      25A     -0.541154    26A     -0.522357    27A     -0.509429
      28A     -0.482513    29A     -0.475200    30A     -0.474283
      31A     -0.447500    32A     -0.430975

  @DF-RHF Final Energy:  -383.92570190808078

   => Energetics <=

    Nuclear Repulsion Energy =            383.1059672800824956
    One-Electron Energy =               -1281.9531102410896892
    Two-Electron Energy =                 514.9214410529266388
    DFT Exchange-Correlation Energy =       0.0000000000000000
    Empirical Dispersion Energy =           0.0000000000000000
    PCM Polarization Energy =               0.0000000000000000
    EFP Energy =                            0.0000000000000000
    Total Energy =                       -383.9257019080805549
    Molecular point group: c1
  Basis Set: 6-31G*
  Basis Set:

  -Total Gradient:
     Atom            X                  Y                   Z
    ------   -----------------  -----------------  -----------------
       1        0.000576522446     0.000563120435    -0.002050084129
       2       -0.000775647613    -0.000784895855     0.001923939384
       3        0.000008271684    -0.000003872813    -0.000050176298
       4        0.000194895866     0.000240632005     0.002103618634
       5        0.000003966724    -0.000004332628     0.000008428362
       6        0.000003155310    -0.000024819580    -0.000000660448
       7       -0.000015726072     0.000003881413     0.000011276451
       8       -0.000002060113     0.000006594673    -0.000004694524
       9        0.000003890249    -0.000002784504    -0.000000452701
      10        0.000000533199     0.000001739732    -0.000002254463
      11       -0.000000624416     0.000002365772     0.000001975588
      12       -0.000001211320    -0.000003070473    -0.000000728232
      13        0.000000456905    -0.000000097469    -0.000000428972
      14       -0.000000740097     0.000000122932     0.000000527666
      15       -0.000000653305    -0.000000461285     0.000000086184
      16        0.000000138451     0.000000700971    -0.000000681869
      17       -0.000026808772    -0.000003808685    -0.001978365068
      18        0.000049654708    -0.000014001478     0.000013819639
      19        0.000007549036     0.000008632617     0.000007282631
      20       -0.000025562867     0.000014354224     0.000017572162

  **** Optimization is complete! (in 9 steps) ****
    Final optimized geometry and variables:
    Molecular point group: c1

    Geometry (in Angstrom), charge = 0, multiplicity = 1:

    O           -1.023767729025    -1.598785933869    -0.681654127558
    C            0.058256123822    -1.269877471505    -0.332535136562
    C            0.390487394051     0.130038867092     0.145930090155
    O            1.043787782586    -2.174066785508    -0.330308367490
    C           -0.830660034163     1.045296856800     0.185768848962
    H            0.842292314436     0.053017475397     1.131973479226
    H            1.154718753591     0.552081298179    -0.501716566524
    C           -0.484293057475     2.452898073176     0.673545857920
    H           -1.584772369018     0.605635775576     0.830062761061
    H           -1.271290341542     1.094416423283    -0.804305362036
    C           -1.701439100364     3.375821763390     0.717421164576
    H           -0.039969530698     2.396140345775     1.665360808133
    H            0.273449662921     2.887603820049     0.024390807714
    H           -2.463704121825     2.986425022857     1.385790141075
    H           -1.429627458964     4.367145133153     1.066055021813
    H           -2.148318150956     3.481060576390    -0.266781678645
    C            2.404586662589    -1.812940018805    -0.335826977577
    H            2.649191166581    -1.211621177827    -1.202981352587
    H            2.953939962374    -2.740057535971    -0.385708307312
    H            2.687908771123    -1.283446537828     0.565024115163

  Mulliken Charges: (a.u.)
   Center  Symbol    Alpha    Beta     Spin     Total
       1     O     4.26545  4.26545  0.00000 -0.53090
       2     C     2.59869  2.59869  0.00000  0.80262
       3     C     3.23385  3.23385  0.00000 -0.46770
       4     O     4.30416  4.30416  0.00000 -0.60832
       5     C     3.14754  3.14754  0.00000 -0.29508
       6     H     0.40299  0.40299  0.00000  0.19402
       7     H     0.40513  0.40513  0.00000  0.18973
       8     C     3.15482  3.15482  0.00000 -0.30964
       9     H     0.40926  0.40926  0.00000  0.18149
      10     H     0.40897  0.40897  0.00000  0.18205
      11     C     3.23954  3.23954  0.00000 -0.47908
      12     H     0.42350  0.42350  0.00000  0.15301
      13     H     0.42399  0.42399  0.00000  0.15202
      14     H     0.41903  0.41903  0.00000  0.16194
      15     H     0.41845  0.41845  0.00000  0.16310
      16     H     0.41918  0.41918  0.00000  0.16163
      17     C     3.09394  3.09394  0.00000 -0.18788
      18     H     0.41588  0.41588  0.00000  0.16824
      19     H     0.39815  0.39815  0.00000  0.20370
      20     H     0.41747  0.41747  0.00000  0.16505

   Total alpha = 32.00000, Total beta = 32.00000, Total charge =  0.00000
