  ==> Input File <==

--------------------------------------------------------------------------
set {
	reference rhf
	basis 6-31G*
}

set_num_threads( 1 )
memory 2 gb

molecule MOL {
0 1

O	 -2.439739	 -0.935931	 -0.423848
C	 -1.921153	 0.064240	 -0.045697
C	 -2.624470	 1.379923	 0.150949
O	 -0.632575	 0.154573	 0.251549
H	 -2.168117	 2.136577	 -0.476876
H	 -3.669540	 1.273223	 -0.098610
H	 -2.519365	 1.700893	 1.180846
C	 0.160891	 -1.019931	 0.106212
C	 1.589627	 -0.672828	 0.480843
H	 0.089836	 -1.367806	 -0.916050
H	 -0.238459	 -1.792301	 0.749618
C	 1.705169	 0.434843	 1.529706
H	 2.101371	 -0.368191	 -0.429787
H	 2.088179	 -1.571597	 0.834281
C	 3.156571	 0.777148	 1.863263
H	 1.197561	 1.326330	 1.166820
H	 1.186746	 0.129570	 2.432704
H	 3.211728	 1.563660	 2.609178
H	 3.693324	 1.118432	 0.982526
H	 3.682970	 -0.088162	 2.255973

	symmetry c1
}
set optking {
	frozen_dihedral = ("
		16 12 9 8,
		2 4 8 10,
		1 2 4 8
	")
}

ee = energy('scf')
oeprop('DIPOLE', 'QUADRUPOLE', 'MULLIKEN_CHARGES')
f=open( 'psi4out.xyz', 'w' )
f.write( "20  " )
f.write( str(ee) + "\n" )
f.write( MOL.save_string_xyz() )
f.close()
--------------------------------------------------------------------------

    Molecular point group: c1

    Geometry (in Angstrom), charge = 0, multiplicity = 1:

       Center              X                  Y                   Z               Mass
    ------------   -----------------  -----------------  -----------------  -----------------
           O         -2.305199811292    -0.963113000934    -0.911759198619    15.994914619560
           C         -1.786613811292     0.037057999066    -0.533608198619    12.000000000000
           C         -2.489930811292     1.352740999066    -0.336962198619    12.000000000000
           O         -0.498035811292     0.127390999066    -0.236362198619    15.994914619560
           H         -2.033577811292     2.109394999066    -0.964787198619     1.007825032070
           H         -3.535000811292     1.246040999066    -0.586521198619     1.007825032070
           H         -2.384825811292     1.673710999066     0.692934801381     1.007825032070
           C          0.295430188708    -1.047113000934    -0.381699198619    12.000000000000
           C          1.724166188708    -0.700010000934    -0.007068198619    12.000000000000
           H          0.224375188708    -1.394988000934    -1.403961198619     1.007825032070
           H         -0.103919811292    -1.819483000934     0.261706801381     1.007825032070
           C          1.839708188708     0.407660999066     1.041794801381    12.000000000000
           H          2.235910188708    -0.395373000934    -0.917698198619     1.007825032070
           H          2.222718188708    -1.598779000934     0.346369801381     1.007825032070
           C          3.291110188708     0.749965999066     1.375351801381    12.000000000000
           H          1.332100188708     1.299147999066     0.678908801381     1.007825032070
           H          1.321285188708     0.102387999066     1.944792801381     1.007825032070
           H          3.346267188708     1.536477999066     2.121266801381     1.007825032070
           H          3.827863188708     1.091249999066     0.494614801381     1.007825032070
           H          3.817509188708    -0.115344000934     1.768061801381     1.007825032070

  Charge       = 0
  Multiplicity = 1
  Basis Set: 6-31G*
  Basis Set:

    Orbital Energies (a.u.)
    -----------------------

    Doubly Occupied:

       1A    -20.601814     2A    -20.544376     3A    -11.374764
       4A    -11.282063     5A    -11.233888     6A    -11.224388
       7A    -11.217877     8A    -11.211378     9A     -1.468528
      10A     -1.362788    11A     -1.084922    12A     -1.027410
      13A     -0.981245    14A     -0.879236    15A     -0.817685
      16A     -0.763621    17A     -0.690398    18A     -0.688569
      19A     -0.667556    20A     -0.632950    21A     -0.596473
      22A     -0.592777    23A     -0.573411    24A     -0.548376
      25A     -0.544293    26A     -0.534803    27A     -0.508279
      28A     -0.482625    29A     -0.474531    30A     -0.467182
      31A     -0.447094    32A     -0.438807

  @DF-RHF Final Energy:  -383.94008815228705

   => Energetics <=

    Nuclear Repulsion Energy =            388.2505865771626645
    One-Electron Energy =               -1292.4531583285038323
    Two-Electron Energy =                 520.2624835990541214
    DFT Exchange-Correlation Energy =       0.0000000000000000
    Empirical Dispersion Energy =           0.0000000000000000
    PCM Polarization Energy =               0.0000000000000000
    EFP Energy =                            0.0000000000000000
    Total Energy =                       -383.9400881522869895

  Mulliken Charges: (a.u.)
   Center  Symbol    Alpha    Beta     Spin     Total
       1     O     4.28330  4.28330  0.00000 -0.56660
       2     C     2.61830  2.61830  0.00000  0.76341
       3     C     3.28194  3.28194  0.00000 -0.56389
       4     O     4.31016  4.31016  0.00000 -0.62032
       5     H     0.40073  0.40073  0.00000  0.19854
       6     H     0.39667  0.39667  0.00000  0.20665
       7     H     0.40063  0.40063  0.00000  0.19873
       8     C     2.99870  2.99870  0.00000  0.00259
       9     C     3.17296  3.17296  0.00000 -0.34591
      10     H     0.40741  0.40741  0.00000  0.18518
      11     H     0.41076  0.41076  0.00000  0.17848
      12     C     3.15010  3.15010  0.00000 -0.30020
      13     H     0.41769  0.41769  0.00000  0.16463
      14     H     0.41624  0.41624  0.00000  0.16752
      15     C     3.24053  3.24053  0.00000 -0.48106
      16     H     0.40947  0.40947  0.00000  0.18106
      17     H     0.42210  0.42210  0.00000  0.15580
      18     H     0.41816  0.41816  0.00000  0.16368
      19     H     0.42144  0.42144  0.00000  0.15712
      20     H     0.42270  0.42270  0.00000  0.15459

   Total alpha = 32.00000, Total beta = 32.00000, Total charge = -0.00000
