  ==> Input File <==

--------------------------------------------------------------------------
set {
	reference rhf
	basis cc-pvtz
}

set_num_threads( 4 )
memory 2 gb

molecule MOL {
0 1

H	 -2.816458	 -0.841657	 -0.064679
N	 -1.878861	 -0.711874	 0.250184
C	 -1.341419	 0.551458	 -0.220231
H	 -1.333674	 -1.468530	 -0.105118
C	 0.082190	 0.731516	 0.254705
H	 -1.357065	 0.652078	 -1.304747
H	 -1.939897	 1.357530	 0.189797
O	 0.805610	 1.399424	 -0.734370
H	 0.093331	 1.307047	 1.179266
H	 0.527023	 -0.240949	 0.453104
C	 2.154195	 1.567420	 -0.447460
H	 2.606987	 2.094361	 -1.274925
H	 2.298163	 2.151483	 0.459093
H	 2.656778	 0.611040	 -0.323726

	symmetry c1
}
set optking {
	frozen_dihedral = ("
		8 5 3 6
	")
}

ee = optimize('scf')
oeprop('DIPOLE', 'QUADRUPOLE', 'MULLIKEN_CHARGES')
f=open( 'psi4out.xyz', 'w' )
f.write( "14  " )
f.write( str(ee) + "\n" )
f.write( MOL.save_string_xyz() )
f.close()
--------------------------------------------------------------------------

    Molecular point group: c1
  Charge       = 0
  Multiplicity = 1
  Basis Set: CC-PVTZ
  Basis Set:
  @DF-RHF Final Energy:  -248.22027595016701
    Total Energy =                       -248.2202759501669220
    Molecular point group: c1
  Basis Set: CC-PVTZ
  Basis Set:
  Basis Set: CC-PVTZ
  Basis Set:
  @DF-RHF Final Energy:  -248.22107546894568
    Total Energy =                       -248.2210754689457985
  Basis Set: CC-PVTZ
  Basis Set:
  Basis Set: CC-PVTZ
  Basis Set:
  @DF-RHF Final Energy:  -248.22120966558259
    Total Energy =                       -248.2212096655825917
  Basis Set: CC-PVTZ
  Basis Set:
  Basis Set: CC-PVTZ
  Basis Set:
  @DF-RHF Final Energy:  -248.22124097286087
    Total Energy =                       -248.2212409728605280
  Basis Set: CC-PVTZ
  Basis Set:
  Charge       = 0
  Multiplicity = 1
  Basis Set: CC-PVTZ
  Basis Set:

    Orbital Energies (a.u.)
    -----------------------

    Doubly Occupied:

       1A    -20.548725     2A    -15.532079     3A    -11.262795
       4A    -11.262201     5A    -11.239790     6A     -1.382811
       7A     -1.181904     8A     -0.998590     9A     -0.900701
      10A     -0.824217    11A     -0.688153    12A     -0.665762
      13A     -0.654953    14A     -0.621027    15A     -0.586963
      16A     -0.568633    17A     -0.516302    18A     -0.498287
      19A     -0.471874    20A     -0.416955    21A     -0.388567

  @DF-RHF Final Energy:  -248.22124218423374

   => Energetics <=

    Nuclear Repulsion Energy =            191.0439421854276247
    One-Electron Energy =                -716.1077932514222084
    Two-Electron Energy =                 276.8426088817606114
    DFT Exchange-Correlation Energy =       0.0000000000000000
    Empirical Dispersion Energy =           0.0000000000000000
    PCM Polarization Energy =               0.0000000000000000
    EFP Energy =                            0.0000000000000000
    Total Energy =                       -248.2212421842340291
    Molecular point group: c1
  Basis Set: CC-PVTZ
  Basis Set:

  -Total Gradient:
     Atom            X                  Y                   Z
    ------   -----------------  -----------------  -----------------
       1       -0.000027010561    -0.000013609946    -0.000016889359
       2        0.000056442397     0.000046785727     0.000002871833
       3        0.001013339844    -0.006231570279    -0.000938332658
       4       -0.000005853037    -0.000061306827    -0.000018964051
       5       -0.001166941564     0.005010727584     0.001961111525
       6       -0.000665801524     0.004357963157     0.000433774418
       7       -0.000005624667     0.000040828748    -0.000020119177
       8        0.000810009774    -0.003095453079    -0.001443661141
       9        0.000009909165    -0.000010896918     0.000000761822
      10        0.000037427144    -0.000014005572    -0.000004026891
      11       -0.000016125373    -0.000008746574     0.000074448268
      12       -0.000047526109    -0.000020665415    -0.000016129041
      13        0.000002817891     0.000005402685    -0.000001390813
      14        0.000004936618    -0.000005453290    -0.000013454736

  **** Optimization is complete! (in 5 steps) ****
    Final optimized geometry and variables:
    Molecular point group: c1

    Geometry (in Angstrom), charge = 0, multiplicity = 1:

    H           -2.862567675982    -1.433966013199     0.307969204690
    N           -1.877291581307    -1.399136564185     0.458174100304
    C           -1.314852759394    -0.159878930812    -0.046541262479
    H           -1.477740572452    -2.189308447737    -0.003456802741
    C            0.128453077460     0.005694848826     0.417732127392
    H           -1.331683490488    -0.052427584016    -1.127917291961
    H           -1.912119870739     0.656740136115     0.341985729671
    O            0.853767345196     0.670442444203    -0.569690827306
    H            0.173408899519     0.547990750727     1.359092353492
    H            0.564206083480    -0.976795978437     0.594012068320
    C            2.175218810370     0.929678070092    -0.232000180164
    H            2.639205620867     1.430800625579    -1.069210273195
    H            2.245745484738     1.571837560529     0.643176784246
    H            2.721685014124     0.011140267247    -0.027595999893

  Mulliken Charges: (a.u.)
   Center  Symbol    Alpha    Beta     Spin     Total
       1     H     0.42724  0.42724  0.00000  0.14552
       2     N     3.69440  3.69440  0.00000 -0.38880
       3     C     3.03390  3.03390  0.00000 -0.06781
       4     H     0.42835  0.42835  0.00000  0.14330
       5     C     2.95594  2.95594  0.00000  0.08813
       6     H     0.45940  0.45940  0.00000  0.08120
       7     H     0.45763  0.45763  0.00000  0.08475
       8     O     4.17387  4.17387  0.00000 -0.34774
       9     H     0.47257  0.47257  0.00000  0.05486
      10     H     0.47651  0.47651  0.00000  0.04698
      11     C     3.02911  3.02911  0.00000 -0.05823
      12     H     0.44733  0.44733  0.00000  0.10534
      13     H     0.47119  0.47119  0.00000  0.05762
      14     H     0.47256  0.47256  0.00000  0.05487

   Total alpha = 21.00000, Total beta = 21.00000, Total charge = -0.00000
