                              Psi4 1.0.54 Driver

  ==> Input File <==

--------------------------------------------------------------------------
set {
	reference rhf
	basis cc-pvtz
}

set_num_threads( 4 )
memory 2 gb

molecule MOL {
0 1

H	 2.906850	 -0.405509	 0.011376
O	 2.213561	 0.151091	 -0.291283
C	 1.135873	 0.113391	 0.608264
C	 0.027642	 1.012027	 0.090274
H	 1.448725	 0.464969	 1.588205
H	 0.777641	 -0.905293	 0.728322
C	 -1.138737	 0.285728	 -0.581921
H	 0.464661	 1.708096	 -0.618252
H	 -0.340737	 1.603071	 0.925246
C	 -1.933983	 -0.631436	 0.343653
H	 -0.763151	 -0.285569	 -1.422081
H	 -1.808359	 1.035291	 -0.992333
H	 -2.789188	 -1.049673	 -0.174718
H	 -1.335629	 -1.461368	 0.700418
H	 -2.305435	 -0.092167	 1.209725

	symmetry c1
}
set optking {
	frozen_dihedral = ("
		2 3 4 8
	")
}

ee,wfn = optimize('scf', return_wfn=True)
oeprop( wfn, 'DIPOLE', 'QUADRUPOLE', 'MULLIKEN_CHARGES')
f=open( 'psi4out.xyz', 'w' )
f.write( "15  " )
f.write( str(ee) + "\n" )
f.write( MOL.save_string_xyz() )
f.close()
--------------------------------------------------------------------------

    Molecular point group: c1
  Charge       = 0
  Multiplicity = 1
  Basis Set: CC-PVTZ
  Basis Set:
  @DF-RHF Final Energy:  -232.23247199792823
    Total Energy =                       -232.2324719979282577
    Molecular point group: c1
  Basis Set: CC-PVTZ
  Basis Set:
  Basis Set: CC-PVTZ
  Basis Set:
  @DF-RHF Final Energy:  -232.23280033928239
    Total Energy =                       -232.2328003392825622
  Basis Set: CC-PVTZ
  Basis Set:
  Basis Set: CC-PVTZ
  Basis Set:
  @DF-RHF Final Energy:  -232.23327699141697
    Total Energy =                       -232.2332769914170285
  Basis Set: CC-PVTZ
  Basis Set:
  Basis Set: CC-PVTZ
  Basis Set:
  @DF-RHF Final Energy:  -232.23331389940864
    Total Energy =                       -232.2333138994086994
  Basis Set: CC-PVTZ
  Basis Set:
  Basis Set: CC-PVTZ
  Basis Set:
  @DF-RHF Final Energy:  -232.23332836313691
    Total Energy =                       -232.2333283631371614
  Basis Set: CC-PVTZ
  Basis Set:
  Basis Set: CC-PVTZ
  Basis Set:
  @DF-RHF Final Energy:  -232.23332955939887
    Total Energy =                       -232.2333295593986122
  Basis Set: CC-PVTZ
  Basis Set:
  Charge       = 0
  Multiplicity = 1
  Basis Set: CC-PVTZ
  Basis Set:

    Orbital Energies (a.u.)
    -----------------------

    Doubly Occupied:

       1A    -20.545496     2A    -11.265448     3A    -11.212470
       4A    -11.209781     5A    -11.207082     6A     -1.362589
       7A     -1.067476     8A     -0.970686     9A     -0.869542
      10A     -0.781919    11A     -0.706596    12A     -0.647899
      13A     -0.605334    14A     -0.586602    15A     -0.560547
      16A     -0.537489    17A     -0.510003    18A     -0.477045
      19A     -0.472339    20A     -0.455033    21A     -0.431314

  @DF-RHF Final Energy:  -232.23332962271348

   => Energetics <=

    Nuclear Repulsion Energy =            189.1085178098169877
    One-Electron Energy =                -689.7183131176172992
    Two-Electron Energy =                 268.3764656850868278
    DFT Exchange-Correlation Energy =       0.0000000000000000
    Empirical Dispersion Energy =           0.0000000000000000
    PCM Polarization Energy =               0.0000000000000000
    EFP Energy =                            0.0000000000000000
    Total Energy =                       -232.2333296227134838
    Molecular point group: c1
  Basis Set: CC-PVTZ
  Basis Set:

  -Total Gradient:
     Atom            X                  Y                   Z
    ------   -----------------  -----------------  -----------------
       1        0.000001782803    -0.000000885281     0.000004137990
       2        0.001068623656     0.002205441507     0.001513905150
       3       -0.001505751605    -0.003310365146    -0.002533889629
       4        0.001060345983     0.003396454644     0.003850992121
       5       -0.000001588961     0.000001666919    -0.000001149337
       6       -0.000000478831     0.000002335105    -0.000001406912
       7       -0.000003221467     0.000005850476     0.000000461952
       8       -0.000621111332    -0.002303226394    -0.002836495940
       9        0.000000027283     0.000002085146     0.000001490240
      10        0.000011366991    -0.000004656658    -0.000004332014
      11       -0.000003940443     0.000000250729     0.000011746738
      12       -0.000002888198     0.000006158014    -0.000002888616
      13       -0.000005061732    -0.000002724174    -0.000004665687
      14        0.000000525530    -0.000004328222     0.000004657308
      15        0.000001370325     0.000005943332    -0.000002563363

  **** Optimization is complete! (in 7 steps) ****
    Final optimized geometry and variables:
    Molecular point group: c1

    Geometry (in Angstrom), charge = 0, multiplicity = 1:

    H            2.798116547646    -0.529577811395    -0.130553279868
    O            2.100954794167     0.058918131499    -0.354602612406
    C            1.049852286217    -0.065349102240     0.571888604500
    C           -0.108982339593     0.818032388760     0.109161462601
    H            1.391256396726     0.248625235242     1.554367309177
    H            0.739696883446    -1.102620940975     0.652655081513
    C           -1.224276214604     0.065128710427    -0.621579428052
    H            0.310456334601     1.546654587177    -0.573142353188
    H           -0.528136342926     1.356616894507     0.952514531373
    C           -2.103259484893    -0.789480977244     0.287918518834
    H           -0.782772033016    -0.555250688299    -1.396177764285
    H           -1.853489079754     0.786796573260    -1.132870301616
    H           -2.872227016554    -1.298539736231    -0.281834272154
    H           -1.531743675093    -1.548051027285     0.811118839603
    H           -2.597214979149    -0.177059186773     1.035419807617

  Mulliken Charges: (a.u.)
   Center  Symbol    Alpha    Beta     Spin     Total
       1     H     0.39515  0.39515  0.00000  0.20970
       2     O     4.20014  4.20014  0.00000 -0.40027
       3     C     2.96501  2.96501  0.00000  0.06999
       4     C     3.09415  3.09415  0.00000 -0.18829
       5     H     0.47059  0.47059  0.00000  0.05882
       6     H     0.47470  0.47470  0.00000  0.05059
       7     C     3.09472  3.09472  0.00000 -0.18944
       8     H     0.44348  0.44348  0.00000  0.11304
       9     H     0.45250  0.45250  0.00000  0.09499
      10     C     3.14982  3.14982  0.00000 -0.29963
      11     H     0.44988  0.44988  0.00000  0.10024
      12     H     0.44953  0.44953  0.00000  0.10093
      13     H     0.44765  0.44765  0.00000  0.10471
      14     H     0.45715  0.45715  0.00000  0.08570
      15     H     0.45554  0.45554  0.00000  0.08893

   Total alpha = 21.00000, Total beta = 21.00000, Total charge =  0.00000

*** Psi4 exiting successfully. Buy a developer a beer!
