  ==> Input File <==

--------------------------------------------------------------------------
set {
	reference rhf
	basis 6-31G*
}

set_num_threads( 4 )
memory 2 gb

molecule MOL {
0 1

H	 2.521958	 2.228152	 -0.902608
N	 1.753475	 1.589642	 -0.975307
C	 1.865559	 0.531981	 0.018834
H	 1.782610	 1.205944	 -1.900919
C	 0.645745	 -0.382037	 -0.029944
H	 1.922147	 1.002520	 0.995691
H	 2.772456	 -0.067579	 -0.092808
C	 -0.679275	 0.379305	 0.025956
H	 0.698998	 -0.976915	 -0.937203
H	 0.693479	 -1.083846	 0.802235
C	 -1.903357	 -0.536963	 -0.023547
H	 -0.726309	 1.082987	 -0.803784
H	 -0.717680	 0.977832	 0.934877
C	 -3.225172	 0.228290	 0.028445
H	 -1.867824	 -1.134999	 -0.931459
H	 -1.860449	 -1.239604	 0.805977
H	 -3.313397	 0.915643	 -0.808262
H	 -4.073500	 -0.448134	 -0.008893
H	 -3.306061	 0.809945	 0.942516

	symmetry c1
}
set optking {
	frozen_dihedral = ("
		6 3 5 9
	")
}

ee = optimize('scf')
oeprop('DIPOLE', 'QUADRUPOLE', 'MULLIKEN_CHARGES')
f=open( 'psi4out.xyz', 'w' )
f.write( "19  " )
f.write( str(ee) + "\n" )
f.write( MOL.save_string_xyz() )
f.close()
--------------------------------------------------------------------------

    Molecular point group: c1
  Charge       = 0
  Multiplicity = 1
  Basis Set: 6-31G*
  Basis Set:
  @DF-RHF Final Energy:  -251.35025775295784
    Total Energy =                       -251.3502577529579298
    Molecular point group: c1
  Basis Set: 6-31G*
  Basis Set:
  Basis Set: 6-31G*
  Basis Set:
  @DF-RHF Final Energy:  -251.35063620533475
    Total Energy =                       -251.3506362053349790
  Basis Set: 6-31G*
  Basis Set:
  Basis Set: 6-31G*
  Basis Set:
  @DF-RHF Final Energy:  -251.35086658770177
    Total Energy =                       -251.3508665877018302
  Basis Set: 6-31G*
  Basis Set:
  Basis Set: 6-31G*
  Basis Set:
  @DF-RHF Final Energy:  -251.35087110846931
    Total Energy =                       -251.3508711084692209
  Basis Set: 6-31G*
  Basis Set:
  Charge       = 0
  Multiplicity = 1
  Basis Set: 6-31G*
  Basis Set:

    Orbital Energies (a.u.)
    -----------------------

    Doubly Occupied:

       1A    -15.533629     2A    -11.240844     3A    -11.210681
       4A    -11.208716     5A    -11.202916     6A    -11.202293
       7A     -1.177766     8A     -1.066078     9A     -0.995001
      10A     -0.902094    11A     -0.811177    12A     -0.779414
      13A     -0.666454    14A     -0.630983    15A     -0.620805
      16A     -0.584489    17A     -0.563013    18A     -0.546350
      19A     -0.528996    20A     -0.493142    21A     -0.478389
      22A     -0.461935    23A     -0.454399    24A     -0.447319
      25A     -0.379132

  @DF-RHF Final Energy:  -251.35087189146245

   => Energetics <=

    Nuclear Repulsion Energy =            249.2208962065336380
    One-Electron Energy =                -832.7715102874024069
    Two-Electron Energy =                 332.1997421894061517
    DFT Exchange-Correlation Energy =       0.0000000000000000
    Empirical Dispersion Energy =           0.0000000000000000
    PCM Polarization Energy =               0.0000000000000000
    EFP Energy =                            0.0000000000000000
    Total Energy =                       -251.3508718914625888
    Molecular point group: c1
  Basis Set: 6-31G*
  Basis Set:

  -Total Gradient:
     Atom            X                  Y                   Z
    ------   -----------------  -----------------  -----------------
       1        0.000022058714     0.000062669781    -0.000060856030
       2        0.000078620773    -0.000141582280     0.000067096303
       3       -0.001611364687     0.002153262333    -0.000758853968
       4        0.000003873430     0.000047869435    -0.000074408121
       5       -0.001278159295     0.001874858906    -0.001529379387
       6        0.001471355801    -0.002069766561     0.000988038909
       7        0.000056375845     0.000092201862    -0.000108682447
       8        0.000112615830    -0.000113509894     0.000070384967
       9        0.001318302521    -0.001939831142     0.001337590590
      10       -0.000126885244    -0.000027676062     0.000029224306
      11       -0.000031676161     0.000019894037     0.000104410816
      12        0.000056790566     0.000044145301    -0.000052344639
      13       -0.000057139550    -0.000018810177     0.000013470417
      14       -0.000026047367    -0.000024544265    -0.000047788610
      15        0.000032692679     0.000034490077     0.000032259946
      16       -0.000021479330     0.000005075234     0.000010675322
      17       -0.000001130196     0.000014916738    -0.000002367754
      18       -0.000008937911     0.000009335796    -0.000021739058
      19        0.000010133585    -0.000022999116     0.000003268436

  **** Optimization is complete! (in 5 steps) ****
    Final optimized geometry and variables:
    Molecular point group: c1

    Geometry (in Angstrom), charge = 0, multiplicity = 1:

    H            2.861366064497     1.877070178484    -0.704171263640
    N            2.072665364438     1.268681042883    -0.810155149594
    C            2.094549968146     0.218501866142     0.197280463820
    H            2.133494019046     0.872878225684    -1.729492646360
    C            0.859497629339    -0.678224727278     0.118914992317
    H            2.137579918450     0.684943819131     1.177072702413
    H            2.982447050934    -0.414588233443     0.126949487007
    C           -0.472931413793     0.067044589324     0.190066282996
    H            0.909246765350    -1.279756522260    -0.788695236483
    H            0.917809400225    -1.392068765978     0.939218353674
    C           -1.681070364338    -0.871372047349     0.167495961165
    H           -0.539248432430     0.770885522029    -0.632338464424
    H           -0.497683979624     0.663528771487     1.100802206115
    C           -3.014475433182    -0.126998693168     0.230138790997
    H           -1.650240148761    -1.477060976947    -0.736235653934
    H           -1.617923706156    -1.567414411307     1.001753798516
    H           -3.122232431524     0.553951461020    -0.609375681130
    H           -3.853157538831    -0.816354060217     0.207264668754
    H           -3.092961499774     0.459468484137     1.141286480009

  Mulliken Charges: (a.u.)
   Center  Symbol    Alpha    Beta     Spin     Total
       1     H     0.33158  0.33158  0.00000  0.33683
       2     N     3.91997  3.91997  0.00000 -0.83993
       3     C     3.06319  3.06319  0.00000 -0.12638
       4     H     0.33548  0.33548  0.00000  0.32905
       5     C     3.15887  3.15887  0.00000 -0.31773
       6     H     0.42080  0.42080  0.00000  0.15841
       7     H     0.43256  0.43256  0.00000  0.13488
       8     C     3.14584  3.14584  0.00000 -0.29167
       9     H     0.42702  0.42702  0.00000  0.14597
      10     H     0.42322  0.42322  0.00000  0.15356
      11     C     3.15190  3.15190  0.00000 -0.30380
      12     H     0.40986  0.40986  0.00000  0.18029
      13     H     0.42584  0.42584  0.00000  0.14833
      14     C     3.23849  3.23849  0.00000 -0.47698
      15     H     0.42519  0.42519  0.00000  0.14962
      16     H     0.42543  0.42543  0.00000  0.14913
      17     H     0.42152  0.42152  0.00000  0.15695
      18     H     0.42110  0.42110  0.00000  0.15781
      19     H     0.42217  0.42217  0.00000  0.15566

   Total alpha = 25.00000, Total beta = 25.00000, Total charge = -0.00000
