  ==> Input File <==

--------------------------------------------------------------------------
set {
	reference rhf
	basis 6-31G*
}

set_num_threads( 1 )
memory 2 gb

molecule MOL {
0 1

O	 2.684621	 -0.230908	 -0.575545
C	 1.705091	 0.115954	 0.001797
C	 0.381791	 -0.609817	 0.001258
O	 1.650520	 1.214401	 0.744477
C	 -0.823008	 0.326187	 0.001381
H	 0.371250	 -1.265087	 -0.865474
H	 0.370908	 -1.265746	 0.867490
C	 -2.149452	 -0.435131	 -0.000098
H	 -0.770201	 0.977095	 -0.865636
H	 -0.771220	 0.975655	 0.869608
C	 -3.368779	 0.488503	 -0.000883
H	 -2.193746	 -1.087250	 -0.871175
H	 -2.195311	 -1.087803	 0.870418
C	 -4.693822	 -0.272754	 -0.001129
H	 -3.325798	 1.139422	 -0.871284
H	 -3.326423	 1.139959	 0.869145
H	 -4.781274	 -0.907928	 -0.878124
H	 -5.538651	 0.408946	 -0.001420
H	 -4.781694	 -0.907783	 0.875984
C	 2.831668	 1.990426	 0.831833
H	 3.635726	 1.411486	 1.262935
H	 2.589135	 2.826291	 1.469314
H	 3.130243	 2.339583	 -0.146148

	symmetry c1
}
set optking {
	frozen_dihedral = ("
		15 11 8 12,
		9 5 8 12,
		9 5 3 6,
		1 2 4 20
	")
}

ee = energy('scf')
oeprop('DIPOLE', 'QUADRUPOLE', 'MULLIKEN_CHARGES')
f=open( 'psi4out.xyz', 'w' )
f.write( "23  " )
f.write( str(ee) + "\n" )
f.write( MOL.save_string_xyz() )
f.close()
--------------------------------------------------------------------------

    Molecular point group: c1

    Geometry (in Angstrom), charge = 0, multiplicity = 1:

       Center              X                  Y                   Z               Mass
    ------------   -----------------  -----------------  -----------------  -----------------
           O          2.852051445638    -0.536096968485    -0.693284428231    15.994914619560
           C          1.872521445638    -0.189234968485    -0.115942428231    12.000000000000
           C          0.549221445638    -0.915005968485    -0.116481428231    12.000000000000
           O          1.817950445638     0.909212031515     0.626737571769    15.994914619560
           C         -0.655577554362     0.020998031515    -0.116358428231    12.000000000000
           H          0.538680445638    -1.570275968485    -0.983213428231     1.007825032070
           H          0.538338445638    -1.570934968485     0.749750571769     1.007825032070
           C         -1.982021554362    -0.740319968485    -0.117837428231    12.000000000000
           H         -0.602770554362     0.671906031515    -0.983375428231     1.007825032070
           H         -0.603789554362     0.670466031515     0.751868571769     1.007825032070
           C         -3.201348554362     0.183314031515    -0.118622428231    12.000000000000
           H         -2.026315554362    -1.392438968485    -0.988914428231     1.007825032070
           H         -2.027880554362    -1.392991968485     0.752678571769     1.007825032070
           C         -4.526391554362    -0.577942968485    -0.118868428231    12.000000000000
           H         -3.158367554362     0.834233031515    -0.989023428231     1.007825032070
           H         -3.158992554362     0.834770031515     0.751405571769     1.007825032070
           H         -4.613843554362    -1.213116968485    -0.995863428231     1.007825032070
           H         -5.371220554362     0.103757031515    -0.119159428231     1.007825032070
           H         -4.614263554362    -1.212971968485     0.758244571769     1.007825032070
           C          2.999098445638     1.685237031515     0.714093571769    12.000000000000
           H          3.803156445638     1.106297031515     1.145195571769     1.007825032070
           H          2.756565445638     2.521102031515     1.351574571769     1.007825032070
           H          3.297673445638     2.034394031515    -0.263887428231     1.007825032070

  Charge       = 0
  Multiplicity = 1
  Basis Set: 6-31G*
  Basis Set:

    Orbital Energies (a.u.)
    -----------------------

    Doubly Occupied:

       1A    -20.604810     2A    -20.543678     3A    -11.371946
       4A    -11.281248     5A    -11.234798     6A    -11.223657
       7A    -11.220133     8A    -11.218991     9A    -11.211507
      10A     -1.469695    11A     -1.361970    12A     -1.096898
      13A     -1.046053    14A     -0.982655    15A     -0.935041
      16A     -0.847605    17A     -0.797598    18A     -0.774196
      19A     -0.694204    20A     -0.682757    21A     -0.671923
      22A     -0.652511    23A     -0.609280    24A     -0.591500
      25A     -0.577626    26A     -0.567292    27A     -0.550684
      28A     -0.525555    29A     -0.524364    30A     -0.508647
      31A     -0.486808    32A     -0.478880    33A     -0.470353
      34A     -0.467273    35A     -0.454728    36A     -0.425974

  @DF-RHF Final Energy:  -422.97379289376192

   => Energetics <=

    Nuclear Repulsion Energy =            456.6203798270553307
    One-Electron Energy =               -1480.8626992085362417
    Two-Electron Energy =                 601.2685264877154623
    DFT Exchange-Correlation Energy =       0.0000000000000000
    Empirical Dispersion Energy =           0.0000000000000000
    PCM Polarization Energy =               0.0000000000000000
    EFP Energy =                            0.0000000000000000
    Total Energy =                       -422.9737928937654488

  Mulliken Charges: (a.u.)
   Center  Symbol    Alpha    Beta     Spin     Total
       1     O     4.28762  4.28762  0.00000 -0.57524
       2     C     2.60709  2.60709  0.00000  0.78581
       3     C     3.20682  3.20682  0.00000 -0.41364
       4     O     4.30290  4.30290  0.00000 -0.60580
       5     C     3.15845  3.15845  0.00000 -0.31690
       6     H     0.39864  0.39864  0.00000  0.20272
       7     H     0.40126  0.40126  0.00000  0.19748
       8     C     3.15306  3.15306  0.00000 -0.30613
       9     H     0.41748  0.41748  0.00000  0.16503
      10     H     0.40632  0.40632  0.00000  0.18735
      11     C     3.15180  3.15180  0.00000 -0.30359
      12     H     0.42238  0.42238  0.00000  0.15524
      13     H     0.42289  0.42289  0.00000  0.15423
      14     C     3.23969  3.23969  0.00000 -0.47937
      15     H     0.42198  0.42198  0.00000  0.15604
      16     H     0.42192  0.42192  0.00000  0.15615
      17     H     0.42115  0.42115  0.00000  0.15769
      18     H     0.41845  0.41845  0.00000  0.16309
      19     H     0.42144  0.42144  0.00000  0.15712
      20     C     3.09232  3.09232  0.00000 -0.18463
      21     H     0.40878  0.40878  0.00000  0.18243
      22     H     0.40888  0.40888  0.00000  0.18223
      23     H     0.40867  0.40867  0.00000  0.18266

   Total alpha = 36.00000, Total beta = 36.00000, Total charge = -0.00000
