  ==> Input File <==

--------------------------------------------------------------------------
set {
	reference rhf
	basis 6-31G*
}

set_num_threads( 1 )
memory 2 gb

molecule MOL {
0 1

H	 -4.127496	 0.784045	 -0.593929
O	 -3.451986	 0.121101	 -0.584133
C	 -2.235649	 0.692220	 -0.175553
C	 -1.177863	 -0.397191	 -0.171080
H	 -1.942477	 1.493911	 -0.852051
H	 -2.330353	 1.123946	 0.819928
C	 0.198102	 0.111031	 0.262842
H	 -1.121958	 -0.823510	 -1.169005
H	 -1.509467	 -1.192985	 0.490151
C	 1.331804	 -0.827780	 -0.158768
H	 0.361943	 1.100838	 -0.156218
H	 0.217265	 0.229072	 1.345532
C	 2.723619	 -0.410569	 0.329459
H	 1.342964	 -0.912588	 -1.244120
H	 1.116806	 -1.824343	 0.220779
C	 3.243875	 0.895854	 -0.272975
H	 3.424222	 -1.207124	 0.091250
H	 2.714788	 -0.329854	 1.414619
H	 3.251977	 0.848779	 -1.358681
H	 2.637085	 1.747371	 0.016682
H	 4.259473	 1.094070	 0.055697

	symmetry c1
}
set optking {
	frozen_dihedral = ("
		2 3 4 8,
		4 7 10 14,
		16 13 10 14,
		1 2 3 5
	")
}

ee = energy('scf')
oeprop('DIPOLE', 'QUADRUPOLE', 'MULLIKEN_CHARGES')
f=open( 'psi4out.xyz', 'w' )
f.write( "21  " )
f.write( str(ee) + "\n" )
f.write( MOL.save_string_xyz() )
f.close()
--------------------------------------------------------------------------

    Molecular point group: c1

    Geometry (in Angstrom), charge = 0, multiplicity = 1:

       Center              X                  Y                   Z               Mass
    ------------   -----------------  -----------------  -----------------  -----------------
           H         -4.148573565193     0.736563352556    -0.471479726880     1.007825032070
           O         -3.473063565193     0.073619352556    -0.461683726880    15.994914619560
           C         -2.256726565193     0.644738352556    -0.053103726880    12.000000000000
           C         -1.198940565193    -0.444672647444    -0.048630726880    12.000000000000
           H         -1.963554565193     1.446429352556    -0.729601726880     1.007825032070
           H         -2.351430565193     1.076464352556     0.942377273120     1.007825032070
           C          0.177024434807     0.063549352556     0.385291273120    12.000000000000
           H         -1.143035565193    -0.870991647444    -1.046555726880     1.007825032070
           H         -1.530544565193    -1.240466647444     0.612600273120     1.007825032070
           C          1.310726434807    -0.875261647444    -0.036318726880    12.000000000000
           H          0.340865434807     1.053356352556    -0.033768726880     1.007825032070
           H          0.196187434807     0.181590352556     1.467981273120     1.007825032070
           C          2.702541434807    -0.458050647444     0.451908273120    12.000000000000
           H          1.321886434807    -0.960069647444    -1.121670726880     1.007825032070
           H          1.095728434807    -1.871824647444     0.343228273120     1.007825032070
           C          3.222797434807     0.848372352556    -0.150525726880    12.000000000000
           H          3.403144434807    -1.254605647444     0.213699273120     1.007825032070
           H          2.693710434807    -0.377335647444     1.537068273120     1.007825032070
           H          3.230899434807     0.801297352556    -1.236231726880     1.007825032070
           H          2.616007434807     1.699889352556     0.139131273120     1.007825032070
           H          4.238395434807     1.046588352556     0.178146273120     1.007825032070

  Charge       = 0
  Multiplicity = 1
  Basis Set: 6-31G*
  Basis Set:

    Orbital Energies (a.u.)
    -----------------------

    Doubly Occupied:

       1A    -20.551808     2A    -11.267176     3A    -11.215432
       4A    -11.215061     5A    -11.213683     6A    -11.210330
       7A    -11.208311     8A     -1.358655     9A     -1.086293
      10A     -1.033175    11A     -0.954376    12A     -0.875674
      13A     -0.807517    14A     -0.779155    15A     -0.692639
      16A     -0.659346    17A     -0.624416    18A     -0.607101
      19A     -0.583194    20A     -0.574036    21A     -0.531794
      22A     -0.523012    23A     -0.511775    24A     -0.482875
      25A     -0.482157    26A     -0.460848    27A     -0.455424
      28A     -0.443179    29A     -0.433632

  @DF-RHF Final Energy:  -310.21173413997656

   => Energetics <=

    Nuclear Repulsion Energy =            312.7533613363998484
    One-Electron Energy =               -1040.2461584727286663
    Two-Electron Energy =                 417.2810629963523184
    DFT Exchange-Correlation Energy =       0.0000000000000000
    Empirical Dispersion Energy =           0.0000000000000000
    PCM Polarization Energy =               0.0000000000000000
    EFP Energy =                            0.0000000000000000
    Total Energy =                       -310.2117341399764996

  Mulliken Charges: (a.u.)
   Center  Symbol    Alpha    Beta     Spin     Total
       1     H     0.28120  0.28120  0.00000  0.43759
       2     O     4.37174  4.37174  0.00000 -0.74348
       3     C     2.99088  2.99088  0.00000  0.01824
       4     C     3.15912  3.15912  0.00000 -0.31824
       5     H     0.43266  0.43266  0.00000  0.13468
       6     H     0.43289  0.43289  0.00000  0.13421
       7     C     3.16215  3.16215  0.00000 -0.32431
       8     H     0.41458  0.41458  0.00000  0.17084
       9     H     0.41389  0.41389  0.00000  0.17222
      10     C     3.15259  3.15259  0.00000 -0.30517
      11     H     0.42254  0.42254  0.00000  0.15492
      12     H     0.42215  0.42215  0.00000  0.15569
      13     C     3.15273  3.15273  0.00000 -0.30546
      14     H     0.42302  0.42302  0.00000  0.15396
      15     H     0.42068  0.42068  0.00000  0.15863
      16     C     3.24115  3.24115  0.00000 -0.48230
      17     H     0.42065  0.42065  0.00000  0.15870
      18     H     0.42344  0.42344  0.00000  0.15311
      19     H     0.42210  0.42210  0.00000  0.15579
      20     H     0.42065  0.42065  0.00000  0.15871
      21     H     0.41918  0.41918  0.00000  0.16164

   Total alpha = 29.00000, Total beta = 29.00000, Total charge =  0.00000
