  ==> Input File <==

--------------------------------------------------------------------------
set {
	reference rhf
	basis 6-31G*
}

set_num_threads( 4 )
memory 2 gb

molecule MOL {
0 1

O	 3.225979	 0.970355	 -0.599647
C	 2.701189	 0.057885	 -0.047330
C	 1.245376	 -0.013843	 0.345420
O	 3.347903	 -1.046386	 0.304773
C	 0.455112	 1.231400	 -0.050772
H	 0.838542	 -0.913825	 -0.103701
H	 1.208210	 -0.175333	 1.419774
C	 -0.998893	 1.219485	 0.433193
H	 0.482531	 1.345121	 -1.130325
H	 0.957290	 2.103070	 0.354729
C	 -1.883438	 0.145884	 -0.207175
H	 -1.431207	 2.195402	 0.224832
H	 -1.019646	 1.105716	 1.516076
C	 -3.347647	 0.245583	 0.225435
H	 -1.822183	 0.231698	 -1.291012
H	 -1.510341	 -0.844814	 0.042401
C	 -4.239992	 -0.825570	 -0.404234
H	 -3.732888	 1.230466	 -0.033079
H	 -3.408585	 0.170602	 1.310038
C	 -5.065976	 -1.595918	 0.625337
H	 -4.907355	 -0.359246	 -1.125907
H	 -3.623060	 -1.523520	 -0.966411
H	 -5.687704	 -2.347508	 0.148708
H	 -5.719923	 -0.929769	 1.181029
H	 -4.425664	 -2.102461	 1.342057
C	 4.728119	 -1.109107	 -0.004993
H	 4.882018	 -1.033965	 -1.071845
H	 5.068212	 -2.067527	 0.355250
H	 5.265056	 -0.311663	 0.488280

	symmetry c1
}
set optking {
	frozen_dihedral = ("
		21 17 14 11
	")
}

ee = optimize('scf')
oeprop('DIPOLE', 'QUADRUPOLE', 'MULLIKEN_CHARGES')
f=open( 'psi4out.xyz', 'w' )
f.write( "29  " )
f.write( str(ee) + "\n" )
f.write( MOL.save_string_xyz() )
f.close()
--------------------------------------------------------------------------

    Molecular point group: c1
  Charge       = 0
  Multiplicity = 1
  Basis Set: 6-31G*
  Basis Set:
  @DF-RHF Final Energy:  -501.03849642675482
    Total Energy =                       -501.0384964267555006
    Molecular point group: c1
  Basis Set: 6-31G*
  Basis Set:
  Basis Set: 6-31G*
  Basis Set:
  @DF-RHF Final Energy:  -501.03872653951498
    Total Energy =                       -501.0387265395143004
  Basis Set: 6-31G*
  Basis Set:
  Basis Set: 6-31G*
  Basis Set:
  @DF-RHF Final Energy:  -501.03880329721198
    Total Energy =                       -501.0388032972115298
  Basis Set: 6-31G*
  Basis Set:
  Basis Set: 6-31G*
  Basis Set:
  @DF-RHF Final Energy:  -501.03879070413188
    Total Energy =                       -501.0387907041307471
  Basis Set: 6-31G*
  Basis Set:
  Basis Set: 6-31G*
  Basis Set:
  @DF-RHF Final Energy:  -501.03880375399012
    Total Energy =                       -501.0388037539903507
  Basis Set: 6-31G*
  Basis Set:
  Basis Set: 6-31G*
  Basis Set:
  @DF-RHF Final Energy:  -501.03880257009405
    Total Energy =                       -501.0388025700933667
  Basis Set: 6-31G*
  Basis Set:
  Charge       = 0
  Multiplicity = 1
  Basis Set: 6-31G*
  Basis Set:

    Orbital Energies (a.u.)
    -----------------------

    Doubly Occupied:

       1A    -20.603392     2A    -20.545218     3A    -11.372030
       4A    -11.280679     5A    -11.234785     6A    -11.219113
       7A    -11.217460     8A    -11.216294     9A    -11.215576
      10A    -11.214187    11A    -11.209387    12A     -1.469088
      13A     -1.362533    14A     -1.097375    15A     -1.065047
      16A     -1.019011    17A     -0.977143    18A     -0.928155
      19A     -0.861943    20A     -0.800383    21A     -0.789998
      22A     -0.763979    23A     -0.700761    24A     -0.682370
      25A     -0.672062    26A     -0.646661    27A     -0.625175
      28A     -0.608575    29A     -0.595307    30A     -0.584344
      31A     -0.563501    32A     -0.551843    33A     -0.532125
      34A     -0.530020    35A     -0.516915    36A     -0.505578
      37A     -0.501621    38A     -0.476198    39A     -0.471506
      40A     -0.461135    41A     -0.455860    42A     -0.455338
      43A     -0.440361    44A     -0.434761

  @DF-RHF Final Energy:  -501.03880269315891

   => Energetics <=

    Nuclear Repulsion Energy =            611.6007262399086812
    One-Electron Energy =               -1894.3294745600778697
    Two-Electron Energy =                 781.6899456270102746
    DFT Exchange-Correlation Energy =       0.0000000000000000
    Empirical Dispersion Energy =           0.0000000000000000
    PCM Polarization Energy =               0.0000000000000000
    EFP Energy =                            0.0000000000000000
    Total Energy =                       -501.0388026931589138
    Molecular point group: c1
  Basis Set: 6-31G*
  Basis Set:

  -Total Gradient:
     Atom            X                  Y                   Z
    ------   -----------------  -----------------  -----------------
       1       -0.000000799922    -0.000004008336    -0.000015616372
       2        0.000002332270     0.000028859335     0.000047323048
       3        0.000026909743     0.000006227937     0.000007093191
       4       -0.000000057147    -0.000006599615    -0.000007927472
       5       -0.000011263760    -0.000026335535    -0.000020353559
       6        0.000036231756     0.000028919979    -0.000001445657
       7       -0.000003649390    -0.000011645439     0.000009685200
       8        0.000057467658    -0.000058479182     0.000067298872
       9       -0.000012131993    -0.000031323594    -0.000003386872
      10       -0.000010082660     0.000027631945    -0.000016124190
      11        0.000205404621    -0.000814648090     0.001070678529
      12        0.000031744006    -0.000002282050     0.000008483172
      13        0.000010258638    -0.000016988968     0.000007573925
      14       -0.000686506661     0.001263848307    -0.001214804379
      15       -0.000025651083     0.000031929308    -0.000006530474
      16       -0.000072064066     0.000014446886    -0.000019987431
      17        0.001780643336    -0.000693605446    -0.001250586208
      18       -0.000001956388    -0.000002905607    -0.000033990610
      19        0.000035116506     0.000034839265    -0.000010322784
      20       -0.000013279185    -0.000026841958    -0.000048280696
      21       -0.001321128845     0.000273838803     0.001443471645
      22       -0.000024923695    -0.000019747345     0.000012007329
      23       -0.000012385865    -0.000027974518     0.000016342860
      24        0.000006097630     0.000009519728    -0.000023967851
      25        0.000004860312     0.000023750752    -0.000014912204
      26       -0.000001351068    -0.000000420773    -0.000002147992
      27        0.000000875503    -0.000000086824     0.000000226860
      28       -0.000000098164    -0.000000287037     0.000000041804
      29       -0.000000612080     0.000000368074     0.000000158315

  **** Optimization is complete! (in 7 steps) ****
    Final optimized geometry and variables:
    Molecular point group: c1

    Geometry (in Angstrom), charge = 0, multiplicity = 1:

    O            3.169542088319     1.053042001145    -0.660206111372
    C            2.646037584783     0.142642639611    -0.103273512170
    C            1.190356229699     0.070926931665     0.289960168641
    O            3.294223875022    -0.959051445580     0.254162027592
    C            0.398217879127     1.312778232688    -0.113118594851
    H            0.784858553580    -0.832174015740    -0.154045533466
    H            1.153553936759    -0.084577027234     1.365215995173
    C           -1.055153705117     1.302599583161     0.373064683565
    H            0.423991788751     1.419693904921    -1.193394028874
    H            0.900137870420     2.187462537213     0.286131233631
    C           -1.943337561092     0.233725523873    -0.268873098374
    H           -1.485441992739     2.280219760422     0.168337869699
    H           -1.074566850848     1.185858331210     1.455769228456
    C           -3.405619906590     0.327890349148     0.174613011578
    H           -1.888175398179     0.325092243095    -1.352799589960
    H           -1.571899672574    -0.759610063743    -0.027214585346
    C           -4.314777133884    -0.747620920749    -0.460621373486
    H           -3.787162628542     1.319482144666    -0.054500601439
    H           -3.441548791373     0.239470724247     1.258506555720
    C           -5.149388952807    -1.516318401556     0.565259486417
    H           -4.990450763649    -0.283336013277    -1.173339898479
    H           -3.712901882638    -1.454282874537    -1.025821968522
    H           -5.783296619025    -2.255351566754     0.084551891155
    H           -5.791581819392    -0.845021039811     1.128496383120
    H           -4.513018097517    -2.036325615597     1.276058247784
    C            4.674496460567    -1.021496809206    -0.055430474377
    H            4.828200739466    -0.951433638316    -1.122660215594
    H            5.015855353134    -1.977674878904     0.309523777255
    H            5.210424114598    -0.220921946602     0.433851709768

  Mulliken Charges: (a.u.)
   Center  Symbol    Alpha    Beta     Spin     Total
       1     O     4.28595  4.28595  0.00000 -0.57189
       2     C     2.60487  2.60487  0.00000  0.79027
       3     C     3.20962  3.20962  0.00000 -0.41924
       4     O     4.30747  4.30747  0.00000 -0.61494
       5     C     3.15371  3.15371  0.00000 -0.30742
       6     H     0.39891  0.39891  0.00000  0.20218
       7     H     0.40124  0.40124  0.00000  0.19753
       8     C     3.15743  3.15743  0.00000 -0.31486
       9     H     0.41306  0.41306  0.00000  0.17387
      10     H     0.40872  0.40872  0.00000  0.18256
      11     C     3.15681  3.15681  0.00000 -0.31362
      12     H     0.41822  0.41822  0.00000  0.16356
      13     H     0.42386  0.42386  0.00000  0.15227
      14     C     3.15438  3.15438  0.00000 -0.30876
      15     H     0.42213  0.42213  0.00000  0.15574
      16     H     0.42348  0.42348  0.00000  0.15303
      17     C     3.15472  3.15472  0.00000 -0.30943
      18     H     0.42034  0.42034  0.00000  0.15931
      19     H     0.42141  0.42141  0.00000  0.15719
      20     C     3.23986  3.23986  0.00000 -0.47972
      21     H     0.41998  0.41998  0.00000  0.16003
      22     H     0.42039  0.42039  0.00000  0.15922
      23     H     0.42051  0.42051  0.00000  0.15898
      24     H     0.42133  0.42133  0.00000  0.15734
      25     H     0.42248  0.42248  0.00000  0.15504
      26     C     3.09241  3.09241  0.00000 -0.18482
      27     H     0.40908  0.40908  0.00000  0.18184
      28     H     0.40851  0.40851  0.00000  0.18297
      29     H     0.40912  0.40912  0.00000  0.18176

   Total alpha = 44.00000, Total beta = 44.00000, Total charge =  0.00000
