  ==> Input File <==

--------------------------------------------------------------------------
set {
	reference rhf
	basis 6-31G*
}

set_num_threads( 4 )
memory 2 gb

molecule MOL {
0 1

H	 2.460838	 -0.232807	 -0.761236
O	 1.654024	 -0.625927	 -0.460906
C	 1.135793	 0.118896	 0.612333
C	 0.031547	 1.023609	 0.088541
H	 1.915668	 0.729681	 1.063582
H	 0.754543	 -0.542641	 1.387006
C	 -1.134819	 0.293262	 -0.585751
H	 0.474374	 1.714721	 -0.623187
H	 -0.338529	 1.620940	 0.920081
C	 -1.917817	 -0.639439	 0.339494
H	 -0.758119	 -0.268455	 -1.433105
H	 -1.813832	 1.041889	 -0.986690
H	 -2.777680	 -1.057197	 -0.174994
H	 -1.310268	 -1.471279	 0.680599
H	 -2.283753	 -0.111424	 1.216626

	symmetry c1
}
set optking {
	frozen_dihedral = ("
		1 2 3 4
	")
}

ee = optimize('scf')
oeprop('DIPOLE', 'QUADRUPOLE', 'MULLIKEN_CHARGES')
f=open( 'psi4out.xyz', 'w' )
f.write( "15  " )
f.write( str(ee) + "\n" )
f.write( MOL.save_string_xyz() )
f.close()
--------------------------------------------------------------------------

    Molecular point group: c1
  Charge       = 0
  Multiplicity = 1
  Basis Set: 6-31G*
  Basis Set:
  @DF-RHF Final Energy:  -232.14134600548329
    Total Energy =                       -232.1413460054833990
    Molecular point group: c1
  Basis Set: 6-31G*
  Basis Set:
  Basis Set: 6-31G*
  Basis Set:
  @DF-RHF Final Energy:  -232.14224109886840
    Total Energy =                       -232.1422410988683964
  Basis Set: 6-31G*
  Basis Set:
  Basis Set: 6-31G*
  Basis Set:
  @DF-RHF Final Energy:  -232.14240628010208
    Total Energy =                       -232.1424062801021364
  Basis Set: 6-31G*
  Basis Set:
  Basis Set: 6-31G*
  Basis Set:
  @DF-RHF Final Energy:  -232.14236503675966
    Total Energy =                       -232.1423650367595428
  Basis Set: 6-31G*
  Basis Set:
  Basis Set: 6-31G*
  Basis Set:
  @DF-RHF Final Energy:  -232.14241611933593
    Total Energy =                       -232.1424161193357349
  Basis Set: 6-31G*
  Basis Set:
  Charge       = 0
  Multiplicity = 1
  Basis Set: 6-31G*
  Basis Set:

    Orbital Energies (a.u.)
    -----------------------

    Doubly Occupied:

       1A    -20.552683     2A    -11.267790     3A    -11.213171
       4A    -11.209409     5A    -11.203932     6A     -1.358830
       7A     -1.063736     8A     -0.969098     9A     -0.871369
      10A     -0.781401    11A     -0.693241    12A     -0.640448
      13A     -0.619123    14A     -0.575473    15A     -0.560340
      16A     -0.533387    17A     -0.505632    18A     -0.484141
      19A     -0.467316    20A     -0.452502    21A     -0.424701

  @DF-RHF Final Energy:  -232.14241633400695

   => Energetics <=

    Nuclear Repulsion Energy =            191.4320392856296280
    One-Electron Energy =                -694.2534589233449651
    Two-Electron Energy =                 270.6790033037086118
    DFT Exchange-Correlation Energy =       0.0000000000000000
    Empirical Dispersion Energy =           0.0000000000000000
    PCM Polarization Energy =               0.0000000000000000
    EFP Energy =                            0.0000000000000000
    Total Energy =                       -232.1424163340067253
    Molecular point group: c1
  Basis Set: 6-31G*
  Basis Set:

  -Total Gradient:
     Atom            X                  Y                   Z
    ------   -----------------  -----------------  -----------------
       1        0.000917040033    -0.000938144248     0.001213719761
       2       -0.001450513307     0.000822965920    -0.001388174738
       3        0.001278236162     0.000913714662    -0.000065678349
       4       -0.000737340869    -0.000819791011     0.000220002752
       5       -0.000000594753     0.000005725112    -0.000003112715
       6       -0.000002380535    -0.000009975928     0.000003040588
       7        0.000003261000     0.000030641497     0.000001523005
       8       -0.000004638491    -0.000014625405     0.000004627947
       9       -0.000024034076     0.000008970393    -0.000002513648
      10        0.000008428861    -0.000013159690     0.000009065011
      11        0.000001414972     0.000005436975    -0.000000064675
      12        0.000011045321     0.000010916185     0.000000409109
      13        0.000004905167    -0.000005076563    -0.000001099537
      14        0.000008366518     0.000002541613     0.000010589598
      15       -0.000013196003    -0.000000139512    -0.000002334109

  **** Optimization is complete! (in 6 steps) ****
    Final optimized geometry and variables:
    Molecular point group: c1

    Geometry (in Angstrom), charge = 0, multiplicity = 1:

    H            2.478774124391    -0.286046964838    -0.753734980552
    O            1.674415434900    -0.669214837885    -0.438354487026
    C            1.138903716690     0.120407779401     0.597968769146
    C            0.014594086787     1.023591847658     0.102754067440
    H            1.915972642021     0.722369492987     1.062570571526
    H            0.773005243902    -0.560138689326     1.357094521748
    C           -1.143032227021     0.285322926744    -0.577319338648
    H            0.433678316270     1.741864197006    -0.599194949762
    H           -0.360500552881     1.598626944155     0.948564500064
    C           -1.928028498764    -0.646782774152     0.347269428563
    H           -0.754772054310    -0.279994162664    -1.417610433510
    H           -1.823422652366     1.026829858376    -0.988891299350
    H           -2.776488905015    -1.078364730753    -0.174652653867
    H           -1.317149373358    -1.468773842859     0.705236618500
    H           -2.311191627718    -0.113014082080     1.213400018401

  Mulliken Charges: (a.u.)
   Center  Symbol    Alpha    Beta     Spin     Total
       1     H     0.28014  0.28014  0.00000  0.43972
       2     O     4.37113  4.37113  0.00000 -0.74226
       3     C     3.00299  3.00299  0.00000 -0.00599
       4     C     3.15985  3.15985  0.00000 -0.31969
       5     H     0.42846  0.42846  0.00000  0.14309
       6     H     0.41759  0.41759  0.00000  0.16483
       7     C     3.15319  3.15319  0.00000 -0.30639
       8     H     0.42426  0.42426  0.00000  0.15148
       9     H     0.42602  0.42602  0.00000  0.14796
      10     C     3.24365  3.24365  0.00000 -0.48731
      11     H     0.40901  0.40901  0.00000  0.18197
      12     H     0.42299  0.42299  0.00000  0.15401
      13     H     0.41900  0.41900  0.00000  0.16200
      14     H     0.41678  0.41678  0.00000  0.16645
      15     H     0.42494  0.42494  0.00000  0.15013

   Total alpha = 21.00000, Total beta = 21.00000, Total charge =  0.00000
