  ==> Input File <==

--------------------------------------------------------------------------
set {
	reference rhf
	basis 6-31G*
}

set_num_threads( 4 )
memory 2 gb

molecule MOL {
0 1

H	 -3.340940	 0.871246	 1.120525
C	 -3.339679	 0.411507	 0.124403
C	 -2.483135	 1.111790	 -0.899584
O	 -3.983048	 -0.565593	 -0.083209
C	 -1.046098	 1.337730	 -0.409552
H	 -2.505416	 0.534526	 -1.816633
H	 -2.948701	 2.075905	 -1.100546
C	 -0.252658	 0.041456	 -0.226725
H	 -0.535197	 1.975590	 -1.124673
H	 -1.066954	 1.890784	 0.528240
C	 1.180775	 0.282413	 0.250794
H	 -0.235010	 -0.501014	 -1.169732
H	 -0.762899	 -0.606537	 0.483414
C	 2.148627	 -0.814315	 -0.201312
H	 1.516199	 1.249228	 -0.115937
H	 1.192670	 0.346017	 1.338083
C	 3.580890	 -0.659131	 0.322722
H	 2.166869	 -0.852443	 -1.289387
H	 1.762857	 -1.776509	 0.128956
C	 4.324889	 0.564933	 -0.213704
H	 4.142010	 -1.551473	 0.056605
H	 3.564836	 -0.624694	 1.410140
H	 4.342616	 0.565491	 -1.300421
H	 3.866655	 1.493402	 0.110242
H	 5.353900	 0.572371	 0.132816

	symmetry c1
}
set optking {
	frozen_dihedral = ("
		12 8 11 14
	")
}

ee = optimize('scf')
oeprop('DIPOLE', 'QUADRUPOLE', 'MULLIKEN_CHARGES')
f=open( 'psi4out.xyz', 'w' )
f.write( "25  " )
f.write( str(ee) + "\n" )
f.write( MOL.save_string_xyz() )
f.close()
--------------------------------------------------------------------------

    Molecular point group: c1
  Charge       = 0
  Multiplicity = 1
  Basis Set: 6-31G*
  Basis Set:
  @DF-RHF Final Energy:  -387.11958388201560
    Total Energy =                       -387.1195838820149220
    Molecular point group: c1
  Basis Set: 6-31G*
  Basis Set:
  Basis Set: 6-31G*
  Basis Set:
  @DF-RHF Final Energy:  -387.11953130418107
    Total Energy =                       -387.1195313041816917
  Basis Set: 6-31G*
  Basis Set:
  Basis Set: 6-31G*
  Basis Set:
  @DF-RHF Final Energy:  -387.11768604767371
    Total Energy =                       -387.1176860476733737
  Basis Set: 6-31G*
  Basis Set:
  Basis Set: 6-31G*
  Basis Set:
  @DF-RHF Final Energy:  -387.11972733909579
    Total Energy =                       -387.1197273390956752
  Basis Set: 6-31G*
  Basis Set:
  @DF-RHF Final Energy:  -387.11980936911226
    Total Energy =                       -387.1198093691118629
  Basis Set: 6-31G*
  Basis Set:
  @DF-RHF Final Energy:  -387.11980211679764
    Total Energy =                       -387.1198021167974730
  Basis Set: 6-31G*
  Basis Set:
  Basis Set: 6-31G*
  Basis Set:
  @DF-RHF Final Energy:  -387.11970571432965
    Total Energy =                       -387.1197057143298252
  Basis Set: 6-31G*
  Basis Set:
  Basis Set: 6-31G*
  Basis Set:
  @DF-RHF Final Energy:  -387.11983487383458
    Total Energy =                       -387.1198348738348614
  Basis Set: 6-31G*
  Basis Set:
  Charge       = 0
  Multiplicity = 1
  Basis Set: 6-31G*
  Basis Set:

    Orbital Energies (a.u.)
    -----------------------

    Doubly Occupied:

       1A    -20.562063     2A    -11.326252     3A    -11.235668
       4A    -11.234742     5A    -11.223750     6A    -11.219725
       7A    -11.218069     8A    -11.217325     9A    -11.210910
      10A     -1.402025    11A     -1.103431    12A     -1.069870
      13A     -1.012717    14A     -0.942519    15A     -0.875753
      16A     -0.821605    17A     -0.788401    18A     -0.781342
      19A     -0.665277    20A     -0.657035    21A     -0.634317
      22A     -0.624835    23A     -0.604841    24A     -0.595280
      25A     -0.570264    26A     -0.556435    27A     -0.530176
      28A     -0.524675    29A     -0.513339    30A     -0.496429
      31A     -0.490130    32A     -0.477956    33A     -0.463603
      34A     -0.457977    35A     -0.441231    36A     -0.409665

  @DF-RHF Final Energy:  -387.11983531821733

   => Energetics <=

    Nuclear Repulsion Energy =            439.0110393774935460
    One-Electron Energy =               -1394.3424929012053326
    Two-Electron Energy =                 568.2116182054944602
    DFT Exchange-Correlation Energy =       0.0000000000000000
    Empirical Dispersion Energy =           0.0000000000000000
    PCM Polarization Energy =               0.0000000000000000
    EFP Energy =                            0.0000000000000000
    Total Energy =                       -387.1198353182173832
    Molecular point group: c1
  Basis Set: 6-31G*
  Basis Set:

  -Total Gradient:
     Atom            X                  Y                   Z
    ------   -----------------  -----------------  -----------------
       1        0.000001897929     0.000010672722    -0.000003679664
       2        0.000010258772    -0.000012064773     0.000038888224
       3        0.000007994806     0.000005220536    -0.000043784830
       4        0.000018323080     0.000013097918    -0.000021883655
       5       -0.000013153227    -0.000024754132     0.000013495504
       6       -0.000000582096     0.000008248770    -0.000018289056
       7       -0.000005150427    -0.000008971531     0.000017484674
       8        0.000320009639     0.004825036353    -0.003510065116
       9       -0.000001254007    -0.000012892814     0.000005571371
      10       -0.000008691402     0.000019980593     0.000007446168
      11       -0.000788167486    -0.002832598127     0.003835183249
      12       -0.000099480960    -0.003465831556     0.002099221045
      13       -0.000025743155     0.000016720738     0.000011373097
      14        0.000559329694     0.001459254469    -0.002436716136
      15        0.000020791495     0.000028465662     0.000009779993
      16        0.000012535570    -0.000035081995    -0.000015190081
      17        0.000011355769    -0.000022771218    -0.000011498035
      18        0.000006198033     0.000009594146     0.000012993709
      19       -0.000019411735     0.000003956457     0.000004599107
      20       -0.000013334172     0.000016811983     0.000012207151
      21       -0.000000079160     0.000002873813    -0.000009172828
      22        0.000011865256    -0.000015283743    -0.000002213352
      23        0.000007981489    -0.000008611431     0.000005096945
      24       -0.000008488615     0.000011772053    -0.000009554759
      25       -0.000005005083     0.000007155108     0.000008707277

  **** Optimization is complete! (in 9 steps) ****
    Final optimized geometry and variables:
    Molecular point group: c1

    Geometry (in Angstrom), charge = 0, multiplicity = 1:

    H           -3.314314333055     0.709991766674     1.312872912151
    C           -3.345231880670     0.224452647448     0.329460234381
    C           -2.534829402893     0.906246918172    -0.743507162098
    O           -3.990592480274    -0.760363318039     0.169900494599
    C           -1.081729299390     1.154266448940    -0.316147137383
    H           -2.587757291264     0.306826612542    -1.645080892068
    H           -3.015887489624     1.861668554622    -0.948999112482
    C           -0.267566219261    -0.129009238269    -0.144975457093
    H           -0.605621090917     1.785453853183    -1.060678213040
    H           -1.069538269669     1.721765853493     0.613263330551
    C            1.172700348538     0.118749581238     0.328086437932
    H           -0.259668277360    -0.691867097366    -1.075781674526
    H           -0.763363168290    -0.784208958250     0.569417940492
    C            2.137264074210    -0.990728411914    -0.100322908417
    H            1.520751173319     1.066439550356    -0.075920706173
    H            1.188598697088     0.227667461359     1.410369532542
    C            3.554145279157    -0.864515204105     0.470092852694
    H            2.187381069074    -1.014090923330    -1.187464492088
    H            1.726799208157    -1.951545316315     0.204735494113
    C            4.323274357745     0.369420287039    -0.005649181858
    H            4.115845702774    -1.753545888863     0.194382663124
    H            3.504901731561    -0.862579528589     1.557069558625
    H            4.377008910430     0.401636589823    -1.090648058012
    H            3.860668316815     1.291562192077     0.330404616799
    H            5.340241194838     0.359247845530     0.374113978707

  Mulliken Charges: (a.u.)
   Center  Symbol    Alpha    Beta     Spin     Total
       1     H     0.43256  0.43256  0.00000  0.13488
       2     C     2.83082  2.83082  0.00000  0.33835
       3     C     3.20848  3.20848  0.00000 -0.41696
       4     O     4.23780  4.23780  0.00000 -0.47560
       5     C     3.16743  3.16743  0.00000 -0.33486
       6     H     0.39958  0.39958  0.00000  0.20083
       7     H     0.40656  0.40656  0.00000  0.18687
       8     C     3.15669  3.15669  0.00000 -0.31338
       9     H     0.41255  0.41255  0.00000  0.17491
      10     H     0.41927  0.41927  0.00000  0.16145
      11     C     3.15511  3.15511  0.00000 -0.31021
      12     H     0.41690  0.41690  0.00000  0.16620
      13     H     0.41733  0.41733  0.00000  0.16533
      14     C     3.15442  3.15442  0.00000 -0.30883
      15     H     0.42117  0.42117  0.00000  0.15767
      16     H     0.42117  0.42117  0.00000  0.15766
      17     C     3.15296  3.15296  0.00000 -0.30592
      18     H     0.42316  0.42316  0.00000  0.15367
      19     H     0.42032  0.42032  0.00000  0.15936
      20     C     3.24159  3.24159  0.00000 -0.48318
      21     H     0.42004  0.42004  0.00000  0.15992
      22     H     0.42290  0.42290  0.00000  0.15421
      23     H     0.42219  0.42219  0.00000  0.15562
      24     H     0.42045  0.42045  0.00000  0.15910
      25     H     0.41855  0.41855  0.00000  0.16290

   Total alpha = 36.00000, Total beta = 36.00000, Total charge =  0.00000
