                              Psi4 1.0.54 Driver

  ==> Input File <==

--------------------------------------------------------------------------
set {
	reference rhf
	basis cc-pvtz
}

set_num_threads( 4 )
memory 2 gb

molecule MOL {
0 1

H	 -3.162190	 0.493205	 -0.000107
C	 -2.363908	 -0.234727	 0.000005
O	 -1.158738	 0.454634	 -0.000087
H	 -2.464314	 -0.863616	 -0.882153
H	 -2.464327	 -0.863359	 0.882345
C	 -0.541745	 0.537555	 1.246011
C	 0.755514	 1.308991	 1.110372
H	 -0.345444	 -0.462503	 1.633294
H	 -1.201652	 1.034304	 1.957633
C	 1.494165	 1.444024	 2.437214
H	 1.382667	 0.805050	 0.383289
H	 0.533255	 2.289965	 0.705103
H	 1.748037	 0.472915	 2.849018
H	 2.416023	 1.998438	 2.311423
H	 0.893079	 1.968007	 3.172881

	symmetry c1
}
set optking {
	frozen_dihedral = ("
		6 3 2 4
	")
}

ee,wfn = optimize('scf', return_wfn=True)
oeprop( wfn, 'DIPOLE', 'QUADRUPOLE', 'MULLIKEN_CHARGES')
f=open( 'psi4out.xyz', 'w' )
f.write( "15  " )
f.write( str(ee) + "\n" )
f.write( MOL.save_string_xyz() )
f.close()
--------------------------------------------------------------------------

    Molecular point group: c1
  Charge       = 0
  Multiplicity = 1
  Basis Set: CC-PVTZ
  Basis Set:
  @DF-RHF Final Energy:  -232.22468409795565
    Total Energy =                       -232.2246840979557305
    Molecular point group: c1
  Basis Set: CC-PVTZ
  Basis Set:
  Basis Set: CC-PVTZ
  Basis Set:
  @DF-RHF Final Energy:  -232.22536558085406
    Total Energy =                       -232.2253655808539747
  Basis Set: CC-PVTZ
  Basis Set:
  Basis Set: CC-PVTZ
  Basis Set:
  @DF-RHF Final Energy:  -232.22550217596307
    Total Energy =                       -232.2255021759627880
  Basis Set: CC-PVTZ
  Basis Set:
  Charge       = 0
  Multiplicity = 1
  Basis Set: CC-PVTZ
  Basis Set:

    Orbital Energies (a.u.)
    -----------------------

    Doubly Occupied:

       1A    -20.544845     2A    -11.264785     3A    -11.261376
       4A    -11.212342     5A    -11.210522     6A     -1.378053
       7A     -1.058125     8A     -0.956096     9A     -0.877431
      10A     -0.809281    11A     -0.674364    12A     -0.654254
      13A     -0.631291    14A     -0.608940    15A     -0.563586
      16A     -0.545101    17A     -0.503078    18A     -0.488870
      19A     -0.479107    20A     -0.462156    21A     -0.412817

  @DF-RHF Final Energy:  -232.22550263073379

   => Energetics <=

    Nuclear Repulsion Energy =            189.7505591880915290
    One-Electron Energy =                -690.7592804487226203
    Two-Electron Energy =                 268.7832186298970782
    DFT Exchange-Correlation Energy =       0.0000000000000000
    Empirical Dispersion Energy =           0.0000000000000000
    PCM Polarization Energy =               0.0000000000000000
    EFP Energy =                            0.0000000000000000
    Total Energy =                       -232.2255026307340131
    Molecular point group: c1
  Basis Set: CC-PVTZ
  Basis Set:

  -Total Gradient:
     Atom            X                  Y                   Z
    ------   -----------------  -----------------  -----------------
       1       -0.000009314437     0.000000030586    -0.000006550031
       2       -0.000952687266     0.001637146129    -0.001663600611
       3       -0.001276456238     0.002031001012     0.000852679597
       4        0.001126112582    -0.001896409271     0.001204844494
       5        0.000012181709     0.000005937214    -0.000006164864
       6        0.001115409916    -0.001822136638    -0.000386565542
       7       -0.000017347993     0.000007156062     0.000006094367
       8       -0.000003075416     0.000002128527     0.000034106996
       9       -0.000007135593     0.000002374269    -0.000062542244
      10        0.000012526110     0.000026566697     0.000012853310
      11       -0.000023182992    -0.000006422693     0.000006244016
      12        0.000015359026     0.000010298842    -0.000000450745
      13       -0.000001917090     0.000000357054    -0.000007303967
      14        0.000005995638     0.000004087507     0.000011206534
      15        0.000003532043    -0.000002115298     0.000005148692

  **** Optimization is complete! (in 4 steps) ****
    Final optimized geometry and variables:
    Molecular point group: c1

    Geometry (in Angstrom), charge = 0, multiplicity = 1:

    H           -2.833300781546    -0.278222697837    -0.901472683930
    C           -1.983049485401    -0.952737789913    -0.931217827346
    O           -0.782845568734    -0.246173107427    -0.927521955764
    H           -2.031850409169    -1.551640465269    -1.831303563303
    H           -2.053361782139    -1.628087003173    -0.083267838014
    C           -0.138082813454    -0.153146149837     0.304785253793
    C            1.138112649969     0.646477560325     0.136847569833
    H            0.090404400828    -1.149154384958     0.682714957380
    H           -0.786326696540     0.329198394929     1.036651370237
    C            1.912097106665     0.788693088621     1.442820472213
    H            1.753921671663     0.160007441779    -0.611636893058
    H            0.884344026874     1.625156481890    -0.255340306434
    H            2.198551043088    -0.179474153583     1.840064902528
    H            2.817978054614     1.363691232378     1.294599334381
    H            1.321601621510     1.294710577925     2.199425825714

  Mulliken Charges: (a.u.)
   Center  Symbol    Alpha    Beta     Spin     Total
       1     H     0.46243  0.46243  0.00000  0.07514
       2     C     3.02977  3.02977  0.00000 -0.05954
       3     O     4.17554  4.17554  0.00000 -0.35107
       4     H     0.45309  0.45309  0.00000  0.09382
       5     H     0.47434  0.47434  0.00000  0.05132
       6     C     2.95555  2.95555  0.00000  0.08889
       7     C     3.08170  3.08170  0.00000 -0.16341
       8     H     0.47497  0.47497  0.00000  0.05006
       9     H     0.47640  0.47640  0.00000  0.04719
      10     C     3.15587  3.15587  0.00000 -0.31175
      11     H     0.45124  0.45124  0.00000  0.09751
      12     H     0.45104  0.45104  0.00000  0.09792
      13     H     0.45593  0.45593  0.00000  0.08815
      14     H     0.44628  0.44628  0.00000  0.10745
      15     H     0.45584  0.45584  0.00000  0.08832

   Total alpha = 21.00000, Total beta = 21.00000, Total charge =  0.00000

*** Psi4 exiting successfully. Buy a developer a beer!
