                              Psi4 1.0.54 Driver

  ==> Input File <==

--------------------------------------------------------------------------
set {
	reference rhf
	basis cc-pvtz
}

set_num_threads( 4 )
memory 2 gb

molecule MOL {
0 1

H	 1.238921	 -1.617807	 1.476723
O	 0.566211	 -1.052412	 1.145295
C	 1.135873	 0.113391	 0.608264
C	 0.027642	 1.012027	 0.090274
H	 1.803571	 -0.135501	 -0.212711
H	 1.725737	 0.628744	 1.361214
C	 -1.138737	 0.285728	 -0.581921
H	 0.464661	 1.708096	 -0.618252
H	 -0.340737	 1.603071	 0.925246
C	 -1.933983	 -0.631436	 0.343653
H	 -0.763151	 -0.285569	 -1.422081
H	 -1.808359	 1.035291	 -0.992333
H	 -2.789188	 -1.049673	 -0.174718
H	 -1.335629	 -1.461368	 0.700418
H	 -2.305435	 -0.092167	 1.209725

	symmetry c1
}
set optking {
	frozen_dihedral = ("
		2 3 4 8
	")
}

ee,wfn = optimize('scf', return_wfn=True)
oeprop( wfn, 'DIPOLE', 'QUADRUPOLE', 'MULLIKEN_CHARGES')
f=open( 'psi4out.xyz', 'w' )
f.write( "15  " )
f.write( str(ee) + "\n" )
f.write( MOL.save_string_xyz() )
f.close()
--------------------------------------------------------------------------

    Molecular point group: c1
  Charge       = 0
  Multiplicity = 1
  Basis Set: CC-PVTZ
  Basis Set:
  @DF-RHF Final Energy:  -232.22518840484557
    Total Energy =                       -232.2251884048456532
    Molecular point group: c1
  Basis Set: CC-PVTZ
  Basis Set:
  Basis Set: CC-PVTZ
  Basis Set:
  @DF-RHF Final Energy:  -232.23132231573828
    Total Energy =                       -232.2313223157382822
  Basis Set: CC-PVTZ
  Basis Set:
  Basis Set: CC-PVTZ
  Basis Set:
  @DF-RHF Final Energy:  -232.23263649307168
    Total Energy =                       -232.2326364930713680
  Basis Set: CC-PVTZ
  Basis Set:
  Basis Set: CC-PVTZ
  Basis Set:
  @DF-RHF Final Energy:  -232.23301229751323
    Total Energy =                       -232.2330122975133690
  Basis Set: CC-PVTZ
  Basis Set:
  Basis Set: CC-PVTZ
  Basis Set:
  @DF-RHF Final Energy:  -232.23333328954485
    Total Energy =                       -232.2333332895448166
  Basis Set: CC-PVTZ
  Basis Set:
  Basis Set: CC-PVTZ
  Basis Set:
  @DF-RHF Final Energy:  -232.23335857051356
    Total Energy =                       -232.2333585705139853
  Basis Set: CC-PVTZ
  Basis Set:
  Basis Set: CC-PVTZ
  Basis Set:
  @DF-RHF Final Energy:  -232.23336036305051
    Total Energy =                       -232.2333603630503376
  Basis Set: CC-PVTZ
  Basis Set:
  Charge       = 0
  Multiplicity = 1
  Basis Set: CC-PVTZ
  Basis Set:

    Orbital Energies (a.u.)
    -----------------------

    Doubly Occupied:

       1A    -20.547738     2A    -11.267445     3A    -11.212099
       4A    -11.207423     5A    -11.191891     6A     -1.366075
       7A     -1.060869     8A     -0.970973     9A     -0.860316
      10A     -0.778354    11A     -0.708273    12A     -0.647266
      13A     -0.605480    14A     -0.582876    15A     -0.546417
      16A     -0.538603    17A     -0.510873    18A     -0.473239
      19A     -0.461970    20A     -0.447061    21A     -0.433114

  @DF-RHF Final Energy:  -232.23336070019673

   => Energetics <=

    Nuclear Repulsion Energy =            192.8662844274207373
    One-Electron Energy =                -697.3625798935408966
    Two-Electron Energy =                 272.2629347659233758
    DFT Exchange-Correlation Energy =       0.0000000000000000
    Empirical Dispersion Energy =           0.0000000000000000
    PCM Polarization Energy =               0.0000000000000000
    EFP Energy =                            0.0000000000000000
    Total Energy =                       -232.2333607001967835
    Molecular point group: c1
  Basis Set: CC-PVTZ
  Basis Set:

  -Total Gradient:
     Atom            X                  Y                   Z
    ------   -----------------  -----------------  -----------------
       1        0.000003981942     0.000000907665     0.000000060886
       2        0.000272915294    -0.001501353524    -0.003733540103
       3       -0.000510066383     0.001350925576     0.004205473054
       4        0.000860901583     0.003256810116     0.003474129802
       5       -0.000014158001     0.000007833924    -0.000005531076
       6        0.000003288605     0.000015660982    -0.000000622678
       7       -0.000031980208    -0.000017259558    -0.000031016520
       8       -0.000605851832    -0.003097154010    -0.003928978739
       9        0.000006900087    -0.000009719373    -0.000004536644
      10        0.000017354411    -0.000003856624     0.000028240893
      11       -0.000003633225     0.000005904581     0.000013055510
      12        0.000004221604     0.000010190069     0.000003910192
      13       -0.000016322471    -0.000023661513     0.000000077052
      14        0.000005674826     0.000000792214    -0.000002970362
      15        0.000006773768     0.000003979476    -0.000017751266

  **** Optimization is complete! (in 8 steps) ****
    Final optimized geometry and variables:
    Molecular point group: c1

    Geometry (in Angstrom), charge = 0, multiplicity = 1:

    H            1.861808195575    -1.419659593907     0.978423944475
    O            1.079469569477    -0.966384902342     0.724628220536
    C            1.405018206000     0.311010618129     0.242125069851
    C            0.151704012930     1.078106402748    -0.166001866486
    H            2.051556158472     0.211296124032    -0.627332804897
    H            1.951707038170     0.877876758972     0.990889711487
    C           -0.906191812493     0.252768282809    -0.914893039863
    H            0.483594353291     1.864141163673    -0.837141404480
    H           -0.300014202967     1.551795619741     0.699052271931
    C           -1.897007688492    -0.484593790833    -0.017409897779
    H           -0.411787553451    -0.455814834748    -1.572011382957
    H           -1.463896440690     0.926164312339    -1.558472573242
    H           -2.624229895160    -1.024389721837    -0.614620152868
    H           -1.396275188918    -1.190276460279     0.628533171527
    H           -2.442836428145     0.216424539797     0.606688927859

  Mulliken Charges: (a.u.)
   Center  Symbol    Alpha    Beta     Spin     Total
       1     H     0.39776  0.39776  0.00000  0.20447
       2     O     4.19344  4.19344  0.00000 -0.38688
       3     C     2.97129  2.97129  0.00000  0.05743
       4     C     3.09798  3.09798  0.00000 -0.19596
       5     H     0.47361  0.47361  0.00000  0.05279
       6     H     0.46682  0.46682  0.00000  0.06637
       7     C     3.08294  3.08294  0.00000 -0.16588
       8     H     0.45017  0.45017  0.00000  0.09966
       9     H     0.45386  0.45386  0.00000  0.09227
      10     C     3.14700  3.14700  0.00000 -0.29400
      11     H     0.45526  0.45526  0.00000  0.08948
      12     H     0.45128  0.45128  0.00000  0.09744
      13     H     0.45365  0.45365  0.00000  0.09271
      14     H     0.44443  0.44443  0.00000  0.11113
      15     H     0.46051  0.46051  0.00000  0.07898

   Total alpha = 21.00000, Total beta = 21.00000, Total charge = -0.00000

*** Psi4 exiting successfully. Buy a developer a beer!
