                              Psi4 1.0.54 Driver

  ==> Input File <==

--------------------------------------------------------------------------
set {
	reference rhf
	basis cc-pvtz
}

set_num_threads( 4 )
memory 2 gb

molecule MOL {
0 1

H	 -3.436473	 1.252944	 -1.023892
O	 -3.458596	 0.315260	 -0.960865
C	 -3.176635	 -0.080824	 0.355601
C	 -1.763371	 0.265266	 0.799691
H	 -3.321825	 -1.153438	 0.379502
H	 -3.895468	 0.357385	 1.043382
C	 -0.673390	 -0.426948	 -0.013392
H	 -1.631049	 1.344913	 0.747560
H	 -1.664587	 -0.001624	 1.849167
C	 0.737842	 -0.043159	 0.423759
H	 -0.806103	 -0.190518	 -1.063345
H	 -0.797221	 -1.503753	 0.074146
C	 1.824000	 -0.743224	 -0.390623
H	 0.850588	 1.033777	 0.343840
H	 0.868587	 -0.286314	 1.476203
C	 2.233728	 -2.120941	 0.132701
H	 2.702514	 -0.104030	 -0.440543
H	 1.473296	 -0.854226	 -1.413025
C	 2.928734	 -2.106638	 1.492078
H	 2.899299	 -2.579086	 -0.592485
H	 1.356344	 -2.760489	 0.183639
H	 3.807396	 -1.469715	 1.473112
H	 3.251001	 -3.103836	 1.769534
H	 2.276047	 -1.746027	 2.277932

	symmetry c1
}
set optking {
	frozen_dihedral = ("
		17 13 10 7
	")
}

ee,wfn = optimize('scf', return_wfn=True)
oeprop( wfn, 'DIPOLE', 'QUADRUPOLE', 'MULLIKEN_CHARGES')
f=open( 'psi4out.xyz', 'w' )
f.write( "24  " )
f.write( str(ee) + "\n" )
f.write( MOL.save_string_xyz() )
f.close()
--------------------------------------------------------------------------

    Molecular point group: c1
  Charge       = 0
  Multiplicity = 1
  Basis Set: CC-PVTZ
  Basis Set:
  @DF-RHF Final Energy:  -349.37700797076536
    Total Energy =                       -349.3770079707654759
    Molecular point group: c1
  Basis Set: CC-PVTZ
  Basis Set:
  Basis Set: CC-PVTZ
  Basis Set:
  @DF-RHF Final Energy:  -349.37698566152289
    Total Energy =                       -349.3769856615226104
  Basis Set: CC-PVTZ
  Basis Set:
  Basis Set: CC-PVTZ
  Basis Set:
  @DF-RHF Final Energy:  -349.37747480532556
    Total Energy =                       -349.3774748053253916
  Basis Set: CC-PVTZ
  Basis Set:
  Basis Set: CC-PVTZ
  Basis Set:
  @DF-RHF Final Energy:  -349.37748193848489
    Total Energy =                       -349.3774819384848342
  Basis Set: CC-PVTZ
  Basis Set:
  Basis Set: CC-PVTZ
  Basis Set:
  @DF-RHF Final Energy:  -349.37749972022772
    Total Energy =                       -349.3774997202278882
  Basis Set: CC-PVTZ
  Basis Set:
  Charge       = 0
  Multiplicity = 1
  Basis Set: CC-PVTZ
  Basis Set:

    Orbital Energies (a.u.)
    -----------------------

    Doubly Occupied:

       1A    -20.546381     2A    -11.265622     3A    -11.215175
       4A    -11.212037     5A    -11.210290     6A    -11.209411
       7A    -11.208908     8A    -11.205234     9A     -1.364222
      10A     -1.089324    11A     -1.048270    12A     -0.986050
      13A     -0.915830    14A     -0.852511    15A     -0.807651
      16A     -0.769820    17A     -0.682844    18A     -0.652682
      19A     -0.625480    20A     -0.616742    21A     -0.608271
      22A     -0.579510    23A     -0.558267    24A     -0.544276
      25A     -0.521247    26A     -0.507841    27A     -0.496760
      28A     -0.477924    29A     -0.468161    30A     -0.462556
      31A     -0.452044    32A     -0.446161    33A     -0.422403

  @DF-RHF Final Energy:  -349.37750060028196

   => Energetics <=

    Nuclear Repulsion Energy =            387.9768185423344562
    One-Electron Energy =               -1242.6488275748392880
    Two-Electron Energy =                 505.2945084322230400
    DFT Exchange-Correlation Energy =       0.0000000000000000
    Empirical Dispersion Energy =           0.0000000000000000
    PCM Polarization Energy =               0.0000000000000000
    EFP Energy =                            0.0000000000000000
    Total Energy =                       -349.3775006002817349
    Molecular point group: c1
  Basis Set: CC-PVTZ
  Basis Set:

  -Total Gradient:
     Atom            X                  Y                   Z
    ------   -----------------  -----------------  -----------------
       1       -0.000000707578    -0.000010150749    -0.000003058197
       2        0.000007723370     0.000017215000    -0.000009269906
       3       -0.000008005828    -0.000012121846     0.000015875697
       4        0.000007902758    -0.000019643333     0.000029583546
       5       -0.000000652503     0.000004256982     0.000004156712
       6        0.000002809408    -0.000005211928    -0.000000404152
       7        0.000040062841     0.001485905840    -0.001293211860
       8       -0.000004779539    -0.000013001114    -0.000011677965
       9       -0.000004264172     0.000009048636     0.000014020801
      10       -0.000234741040    -0.001765927146     0.001184615546
      11       -0.000000577215     0.000016693949    -0.000014526392
      12       -0.000001214071    -0.000000478519     0.000005378033
      13        0.001082205653    -0.000832104174     0.002295552606
      14       -0.000013756347     0.000020481540    -0.000006517417
      15        0.000010558258    -0.000018244677     0.000016883871
      16        0.000031043288    -0.000020246490    -0.000006115390
      17       -0.000870618707     0.001106882940    -0.002222714100
      18       -0.000021619595     0.000014598589     0.000000332010
      19       -0.000011244224    -0.000027787903     0.000034483893
      20       -0.000000338061    -0.000008596442    -0.000006150262
      21       -0.000014868952     0.000010928446    -0.000012038209
      22        0.000001258268     0.000001395328     0.000008756148
      23       -0.000007003338     0.000054270363    -0.000010232629
      24        0.000010827321    -0.000008163294    -0.000013722392

  **** Optimization is complete! (in 6 steps) ****
    Final optimized geometry and variables:
    Molecular point group: c1

    Geometry (in Angstrom), charge = 0, multiplicity = 1:

    H           -3.205536089845     1.898246128767    -1.240569346650
    O           -3.232737093958     0.959129606013    -1.209074578117
    C           -2.974475098057     0.518487097886     0.098001309155
    C           -1.567248917538     0.842951051347     0.576457176175
    H           -3.124701209647    -0.553614217952     0.083631450796
    H           -3.702902493299     0.936969227376     0.787964085971
    C           -0.466695175652     0.175215966128    -0.242761002786
    H           -1.429951106490     1.923249418187     0.563792092619
    H           -1.486517563494     0.539900152896     1.617591711997
    C            0.938968307636     0.556265206917     0.219252907683
    H           -0.584775946945     0.442749740381    -1.286582877202
    H           -0.594747863092    -0.903077545032    -0.188513705770
    C            2.054745103806    -0.148490886758    -0.565182619054
    H            1.053092189491     1.630730369512     0.105990326468
    H            1.042344178254     0.357907297363     1.281555500402
    C            2.449839205218    -1.532166438289    -0.042676402020
    H            2.934515495380     0.487701070302    -0.598522358878
    H            1.733513643538    -0.246261016541    -1.598458976905
    C            3.237323142898    -1.508244776060     1.265207373043
    H            3.051081810043    -2.028226021920    -0.798288128617
    H            1.560650966264    -2.143706781580     0.081354390272
    H            4.154451887081    -0.938975499606     1.154269095499
    H            3.507602290136    -2.512420619799     1.571473142525
    H            2.670452226029    -1.063575385186     2.074515565566

  Mulliken Charges: (a.u.)
   Center  Symbol    Alpha    Beta     Spin     Total
       1     H     0.39524  0.39524  0.00000  0.20951
       2     O     4.20360  4.20360  0.00000 -0.40719
       3     C     2.97703  2.97703  0.00000  0.04595
       4     C     3.10295  3.10295  0.00000 -0.20589
       5     H     0.45902  0.45902  0.00000  0.08196
       6     H     0.46024  0.46024  0.00000  0.07953
       7     C     3.08675  3.08675  0.00000 -0.17351
       8     H     0.45878  0.45878  0.00000  0.08245
       9     H     0.45297  0.45297  0.00000  0.09406
      10     C     3.09960  3.09960  0.00000 -0.19919
      11     H     0.44565  0.44565  0.00000  0.10871
      12     H     0.45476  0.45476  0.00000  0.09048
      13     C     3.10462  3.10462  0.00000 -0.20925
      14     H     0.44873  0.44873  0.00000  0.10254
      15     H     0.45410  0.45410  0.00000  0.09180
      16     C     3.08891  3.08891  0.00000 -0.17782
      17     H     0.44729  0.44729  0.00000  0.10541
      18     H     0.44960  0.44960  0.00000  0.10079
      19     C     3.14939  3.14939  0.00000 -0.29877
      20     H     0.44829  0.44829  0.00000  0.10342
      21     H     0.45453  0.45453  0.00000  0.09094
      22     H     0.45494  0.45494  0.00000  0.09012
      23     H     0.44784  0.44784  0.00000  0.10432
      24     H     0.45518  0.45518  0.00000  0.08964

   Total alpha = 33.00000, Total beta = 33.00000, Total charge =  0.00000

*** Psi4 exiting successfully. Buy a developer a beer!
