                              Psi4 1.0.54 Driver

  ==> Input File <==

--------------------------------------------------------------------------
set {
	reference rhf
	basis cc-pvtz
}

set_num_threads( 4 )
memory 2 gb

molecule MOL {
0 1

H	 2.387070	 -0.958279	 0.009063
O	 2.063695	 -0.083403	 -0.105237
C	 0.742924	 0.005675	 0.350750
H	 0.731380	 0.039219	 1.440080
C	 -0.064076	 -1.193495	 -0.124425
C	 -0.047832	 1.190568	 -0.194462
H	 0.194729	 -1.376165	 -1.161308
H	 0.163013	 -2.094508	 0.429933
C	 -1.533112	 -0.752002	 0.006102
H	 0.148003	 1.266545	 -1.259275
H	 0.226235	 2.136493	 0.259722
C	 -1.506634	 0.799189	 0.067162
H	 -2.124360	 -1.110499	 -0.826089
H	 -1.983103	 -1.158030	 0.903403
H	 -2.183808	 1.252169	 -0.644677
H	 -1.813926	 1.138698	 1.049457

	symmetry c1
}
set optking {
	frozen_dihedral = ("
		1 2 3 6
	")
}

ee,wfn = optimize('scf', return_wfn=True)
oeprop( wfn, 'DIPOLE', 'QUADRUPOLE', 'MULLIKEN_CHARGES')
f=open( 'psi4out.xyz', 'w' )
f.write( "16  " )
f.write( str(ee) + "\n" )
f.write( MOL.save_string_xyz() )
f.close()
--------------------------------------------------------------------------

    Molecular point group: c1
  Charge       = 0
  Multiplicity = 1
  Basis Set: CC-PVTZ
  Basis Set:
  @DF-RHF Final Energy:  -270.11469226276631
    Total Energy =                       -270.1146922627661979
    Molecular point group: c1
  Basis Set: CC-PVTZ
  Basis Set:
  Basis Set: CC-PVTZ
  Basis Set:
  @DF-RHF Final Energy:  -270.11611716223626
    Total Energy =                       -270.1161171622366055
  Basis Set: CC-PVTZ
  Basis Set:
  Basis Set: CC-PVTZ
  Basis Set:
  @DF-RHF Final Energy:  -270.11630101337204
    Total Energy =                       -270.1163010133719240
  Basis Set: CC-PVTZ
  Basis Set:
  Basis Set: CC-PVTZ
  Basis Set:
  @DF-RHF Final Energy:  -270.11630727821415
    Total Energy =                       -270.1163072782138670
  Basis Set: CC-PVTZ
  Basis Set:
  @DF-RHF Final Energy:  -270.11630904363102
    Total Energy =                       -270.1163090436307925
  @DF-RHF Final Energy:  -270.11631244205853
    Total Energy =                       -270.1163124420585291
  Basis Set: CC-PVTZ
  Basis Set:
  @DF-RHF Final Energy:  -270.11631687098281
    Total Energy =                       -270.1163168709827005
  Basis Set: CC-PVTZ
  Basis Set:
  Basis Set: CC-PVTZ
  Basis Set:
  @DF-RHF Final Energy:  -270.11632058642465
    Total Energy =                       -270.1163205864246493
  Basis Set: CC-PVTZ
  Basis Set:
  Basis Set: CC-PVTZ
  Basis Set:
  @DF-RHF Final Energy:  -270.11632268317214
    Total Energy =                       -270.1163226831720294
  Basis Set: CC-PVTZ
  Basis Set:
  Charge       = 0
  Multiplicity = 1
  Basis Set: CC-PVTZ
  Basis Set:

    Orbital Energies (a.u.)
    -----------------------

    Doubly Occupied:

       1A    -20.545096     2A    -11.267088     3A    -11.216499
       4A    -11.214017     5A    -11.213607     6A    -11.207133
       7A     -1.365324     8A     -1.115956     9A     -0.968130
      10A     -0.949518    11A     -0.793626    12A     -0.779461
      13A     -0.697089    14A     -0.662327    15A     -0.618150
      16A     -0.596049    17A     -0.571438    18A     -0.527591
      19A     -0.503503    20A     -0.483128    21A     -0.472055
      22A     -0.457291    23A     -0.446572    24A     -0.426295

  @DF-RHF Final Energy:  -270.11632289489842

   => Energetics <=

    Nuclear Repulsion Energy =            255.6922744347416483
    One-Electron Energy =                -873.4233060336657672
    Two-Electron Energy =                 347.6147087040255883
    DFT Exchange-Correlation Energy =       0.0000000000000000
    Empirical Dispersion Energy =           0.0000000000000000
    PCM Polarization Energy =               0.0000000000000000
    EFP Energy =                            0.0000000000000000
    Total Energy =                       -270.1163228948985306
    Molecular point group: c1
  Basis Set: CC-PVTZ
  Basis Set:

  -Total Gradient:
     Atom            X                  Y                   Z
    ------   -----------------  -----------------  -----------------
       1       -0.000434408984    -0.000402606525    -0.001528066509
       2        0.000441614042     0.000270423824     0.001573683381
       3        0.000206870372     0.000700093010     0.000771028015
       4       -0.000000798915     0.000006558231     0.000004340281
       5       -0.000014857237     0.000006722618    -0.000010554399
       6       -0.000224349320    -0.000578218027    -0.000813619462
       7        0.000004406329    -0.000002216195    -0.000005617851
       8        0.000001471732    -0.000003064308    -0.000002645614
       9        0.000019918439    -0.000011512872     0.000009501425
      10        0.000003533620    -0.000000752192    -0.000000722193
      11        0.000000979013     0.000004497416    -0.000002937856
      12        0.000012035870     0.000007645202    -0.000003743352
      13        0.000001377134    -0.000005212899     0.000002518572
      14       -0.000009375791    -0.000004279762     0.000003240437
      15       -0.000004277067     0.000009638481    -0.000000010072
      16       -0.000004139232     0.000002283998     0.000003605198

  **** Optimization is complete! (in 10 steps) ****
    Final optimized geometry and variables:
    Molecular point group: c1

    Geometry (in Angstrom), charge = 0, multiplicity = 1:

    H            2.477084883310    -0.756544451128     0.080452881499
    O            2.070992861893     0.084285250245    -0.024118947583
    C            0.730249068721     0.026793319559     0.376027404148
    H            0.672341784436     0.072879625488     1.463362077503
    C           -0.034846257709    -1.198891368934    -0.114552670453
    C           -0.064442845820     1.178272093550    -0.220020777887
    H            0.219740566461    -1.361570760630    -1.157326793483
    H            0.212110213368    -2.103742745500     0.430048605533
    C           -1.510973280975    -0.798424471988     0.028125910555
    H            0.193306278479     1.252259092602    -1.270803192206
    H            0.163989540892     2.130717892634     0.240268815355
    C           -1.529522656098     0.753155998729    -0.041516750081
    H           -2.122472586382    -1.250351819907    -0.741452816083
    H           -1.906231815364    -1.136908591793     0.978058934461
    H           -2.151482333178     1.117283487603    -0.848358921207
    H           -1.936614108354     1.163800854528     0.874392891559

  Mulliken Charges: (a.u.)
   Center  Symbol    Alpha    Beta     Spin     Total
       1     H     0.39361  0.39361  0.00000  0.21279
       2     O     4.20266  4.20266  0.00000 -0.40532
       3     C     2.92263  2.92263  0.00000  0.15473
       4     H     0.46439  0.46439  0.00000  0.07121
       5     C     3.11267  3.11267  0.00000 -0.22534
       6     C     3.09729  3.09729  0.00000 -0.19457
       7     H     0.45262  0.45262  0.00000  0.09476
       8     H     0.44657  0.44657  0.00000  0.10685
       9     C     3.11294  3.11294  0.00000 -0.22587
      10     H     0.45311  0.45311  0.00000  0.09378
      11     H     0.44302  0.44302  0.00000  0.11396
      12     C     3.11207  3.11207  0.00000 -0.22414
      13     H     0.44399  0.44399  0.00000  0.11202
      14     H     0.44888  0.44888  0.00000  0.10224
      15     H     0.44431  0.44431  0.00000  0.11137
      16     H     0.44924  0.44924  0.00000  0.10152

   Total alpha = 24.00000, Total beta = 24.00000, Total charge = -0.00000

*** Psi4 exiting successfully. Buy a developer a beer!
