  ==> Input File <==

--------------------------------------------------------------------------
set {
	reference rhf
	basis cc-pvtz
}

set_num_threads( 4 )
memory 2 gb

molecule MOL {
0 1

H	 2.867672	 -0.456275	 0.875795
C	 2.403497	 -0.020426	 0.000000
N	 0.989899	 -0.304564	 0.000000
H	 2.867672	 -0.456275	 -0.875795
H	 2.620366	 1.051270	 0.000000
C	 0.357164	 0.035172	 1.257693
C	 0.701263	 -1.676734	 -0.362501
H	 0.781600	 -0.539510	 2.086752
H	 0.522864	 1.085437	 1.467966
C	 -1.133556	 -0.232892	 1.179339
H	 1.119440	 -1.882551	 -1.341017
H	 1.151580	 -2.380177	 0.344696
C	 -0.798298	 -1.900812	 -0.399226
H	 -1.599379	 -0.069625	 2.141097
H	 -1.587064	 0.443017	 0.457136
O	 -1.389789	 -1.557853	 0.818831
H	 -1.021785	 -2.943183	 -0.578514
H	 -1.234458	 -1.311214	 -1.203115

	symmetry c1
}
set optking {
	frozen_dihedral = ("
		6 3 2 5
	")
}

ee = optimize('scf')
oeprop('DIPOLE', 'QUADRUPOLE', 'MULLIKEN_CHARGES')
f=open( 'psi4out.xyz', 'w' )
f.write( "18  " )
f.write( str(ee) + "\n" )
f.write( MOL.save_string_xyz() )
f.close()
--------------------------------------------------------------------------

    Molecular point group: c1
  Charge       = 0
  Multiplicity = 1
  Basis Set: CC-PVTZ
  Basis Set:
  @DF-RHF Final Energy:  -325.14451218139175
    Total Energy =                       -325.1445121813914056
    Molecular point group: c1
  Basis Set: CC-PVTZ
  Basis Set:
  Basis Set: CC-PVTZ
  Basis Set:
  @DF-RHF Final Energy:  -325.14521226704773
    Total Energy =                       -325.1452122670480094
  Basis Set: CC-PVTZ
  Basis Set:
  Basis Set: CC-PVTZ
  Basis Set:
  @DF-RHF Final Energy:  -325.14528662217685
    Total Energy =                       -325.1452866221766840
  Basis Set: CC-PVTZ
  Basis Set:
  Charge       = 0
  Multiplicity = 1
  Basis Set: CC-PVTZ
  Basis Set:

    Orbital Energies (a.u.)
    -----------------------

    Doubly Occupied:

       1A    -20.547584     2A    -15.544976     3A    -11.264374
       4A    -11.264344     5A    -11.242570     6A    -11.242458
       7A    -11.239098     8A     -1.386561     9A     -1.234169
      10A     -1.039016    11A     -0.982122    12A     -0.883790
      13A     -0.869638    14A     -0.775045    15A     -0.685162
      16A     -0.646482    17A     -0.645156    18A     -0.634591
      19A     -0.631737    20A     -0.574408    21A     -0.556603
      22A     -0.542155    23A     -0.526654    24A     -0.501602
      25A     -0.484228    26A     -0.453969    27A     -0.410692
      28A     -0.357138

  @DF-RHF Final Energy:  -325.14528729308500

   => Energetics <=

    Nuclear Repulsion Energy =            341.9634304133630280
    One-Electron Energy =               -1119.8847909505493590
    Two-Electron Energy =                 452.7760732441014397
    DFT Exchange-Correlation Energy =       0.0000000000000000
    Empirical Dispersion Energy =           0.0000000000000000
    PCM Polarization Energy =               0.0000000000000000
    EFP Energy =                            0.0000000000000000
    Total Energy =                       -325.1452872930848343
    Molecular point group: c1
  Basis Set: CC-PVTZ
  Basis Set:

  -Total Gradient:
     Atom            X                  Y                   Z
    ------   -----------------  -----------------  -----------------
       1        0.000009664435    -0.000009159597     0.000022356525
       2        0.000052587386    -0.000745984571     0.003598764535
       3       -0.000490284352     0.002502443595    -0.001537574972
       4       -0.000017593817    -0.000005426663    -0.000002238793
       5        0.000001716549     0.000015062604    -0.002674632626
       6        0.000401932819    -0.001813394231     0.000585936000
       7        0.000065252105     0.000040151835    -0.000063950084
       8        0.000002650248    -0.000007885962    -0.000003822921
       9       -0.000009363446     0.000014648029     0.000040144656
      10       -0.000016767543    -0.000005179223    -0.000002171696
      11        0.000010139212    -0.000029098890    -0.000011862284
      12       -0.000005586668     0.000005603024     0.000006815469
      13        0.000005610015     0.000054082072    -0.000000782487
      14       -0.000002816363    -0.000013004120    -0.000002725531
      15        0.000001686382     0.000009039710     0.000002192182
      16       -0.000023450659    -0.000016145903     0.000047531061
      17        0.000015406426     0.000008967574     0.000008797621
      18       -0.000000782731    -0.000004719282    -0.000012776656

  **** Optimization is complete! (in 4 steps) ****
    Final optimized geometry and variables:
    Molecular point group: c1

    Geometry (in Angstrom), charge = 0, multiplicity = 1:

    H            2.757901720169     0.342246878455     0.503381671947
    C            2.244359357747     0.787253928235    -0.351900298694
    N            0.828252846668     0.508562886262    -0.366939109520
    H            2.701217712156     0.399347088694    -1.253748724980
    H            2.413142371065     1.857347737361    -0.343310186688
    C            0.194567752581     0.846112630370     0.891663126656
    C            0.537879879601    -0.867601218170    -0.718335625798
    H            0.616736810246     0.264427562699     1.716626507149
    H            0.366287471567     1.894509364007     1.108796904224
    C           -1.297429391613     0.586077567722     0.812720289152
    H            0.957691733829    -1.083377107137    -1.693816607638
    H            0.982319835565    -1.567105007532    -0.003552436514
    C           -0.962457153675    -1.087130667682    -0.759797559467
    H           -1.762612190550     0.752689157867     1.774305235338
    H           -1.747260941691     1.263830223150     0.089894439689
    O           -1.559437105852    -0.738030407327     0.453727350324
    H           -1.187865426964    -2.129571719847    -0.936665020732
    H           -1.392444646421    -0.499300210992    -1.568419742892

  Mulliken Charges: (a.u.)
   Center  Symbol    Alpha    Beta     Spin     Total
       1     H     0.46853  0.46853  0.00000  0.06294
       2     C     3.09500  3.09500  0.00000 -0.18999
       3     N     3.61774  3.61774  0.00000 -0.23549
       4     H     0.45302  0.45302  0.00000  0.09397
       5     H     0.45014  0.45014  0.00000  0.09972
       6     C     3.04186  3.04186  0.00000 -0.08373
       7     C     3.04027  3.04027  0.00000 -0.08054
       8     H     0.46794  0.46794  0.00000  0.06412
       9     H     0.45407  0.45407  0.00000  0.09186
      10     C     2.98341  2.98341  0.00000  0.03318
      11     H     0.45379  0.45379  0.00000  0.09241
      12     H     0.46939  0.46939  0.00000  0.06123
      13     C     2.98384  2.98384  0.00000  0.03233
      14     H     0.44980  0.44980  0.00000  0.10041
      15     H     0.46744  0.46744  0.00000  0.06511
      16     O     4.18647  4.18647  0.00000 -0.37294
      17     H     0.44974  0.44974  0.00000  0.10052
      18     H     0.46755  0.46755  0.00000  0.06490

   Total alpha = 28.00000, Total beta = 28.00000, Total charge = -0.00000
