  ==> Input File <==

--------------------------------------------------------------------------
set {
	reference rhf
	basis 6-31G*
}

set_num_threads( 1 )
memory 2 gb

molecule MOL {
0 1

H	 3.893188	 0.355400	 -0.101367
N	 3.092854	 -0.246221	 -0.068770
C	 1.865559	 0.531981	 0.018834
H	 3.199514	 -0.826043	 0.741946
C	 0.645745	 -0.382037	 -0.029944
H	 1.841966	 1.207024	 -0.831236
H	 1.815756	 1.155410	 0.915079
C	 -0.679275	 0.379305	 0.025956
H	 0.698998	 -0.976915	 -0.937203
H	 0.693479	 -1.083846	 0.802235
C	 -1.876994	 -0.462046	 -0.418985
H	 -0.612662	 1.266009	 -0.602668
H	 -0.851343	 0.737504	 1.039827
C	 -3.198313	 0.303954	 -0.365418
H	 -1.707916	 -0.819936	 -1.432169
H	 -1.947667	 -1.347572	 0.209111
H	 -3.171354	 1.177701	 -1.010520
H	 -4.027633	 -0.318526	 -0.686902
H	 -3.413039	 0.645734	 0.643279

	symmetry c1
}
set optking {
	frozen_dihedral = ("
		6 3 5 9,
		12 8 11 15,
		1 2 3 6
	")
}

ee = energy('scf')
oeprop('DIPOLE', 'QUADRUPOLE', 'MULLIKEN_CHARGES')
f=open( 'psi4out.xyz', 'w' )
f.write( "19  " )
f.write( str(ee) + "\n" )
f.write( MOL.save_string_xyz() )
f.close()
--------------------------------------------------------------------------

    Molecular point group: c1

    Geometry (in Angstrom), charge = 0, multiplicity = 1:

       Center              X                  Y                   Z               Mass
    ------------   -----------------  -----------------  -----------------  -----------------
           H          3.884309813507     0.330290618779     0.030176260149     1.007825032070
           N          3.083975813507    -0.271330381221     0.062773260149    14.003074004780
           C          1.856680813507     0.506871618779     0.150377260149    12.000000000000
           H          3.190635813507    -0.851152381221     0.873489260149     1.007825032070
           C          0.636866813507    -0.407146381221     0.101599260149    12.000000000000
           H          1.833087813507     1.181914618779    -0.699692739851     1.007825032070
           H          1.806877813507     1.130300618779     1.046622260149     1.007825032070
           C         -0.688153186493     0.354195618779     0.157499260149    12.000000000000
           H          0.690119813507    -1.002024381221    -0.805659739851     1.007825032070
           H          0.684600813507    -1.108955381221     0.933778260149     1.007825032070
           C         -1.885872186493    -0.487155381221    -0.287441739851    12.000000000000
           H         -0.621540186493     1.240899618779    -0.471124739851     1.007825032070
           H         -0.860221186493     0.712394618779     1.171370260149     1.007825032070
           C         -3.207191186493     0.278844618779    -0.233874739851    12.000000000000
           H         -1.716794186493    -0.845045381221    -1.300625739851     1.007825032070
           H         -1.956545186493    -1.372681381221     0.340654260149     1.007825032070
           H         -3.180232186493     1.152591618779    -0.878976739851     1.007825032070
           H         -4.036511186493    -0.343635381221    -0.555358739851     1.007825032070
           H         -3.421917186493     0.620624618779     0.774822260149     1.007825032070

  Charge       = 0
  Multiplicity = 1
  Basis Set: 6-31G*
  Basis Set:

    Orbital Energies (a.u.)
    -----------------------

    Doubly Occupied:

       1A    -15.532469     2A    -11.239839     3A    -11.213814
       4A    -11.212524     5A    -11.209178     6A    -11.207295
       7A     -1.176614     8A     -1.072852     9A     -0.998256
      10A     -0.900049    11A     -0.813330    12A     -0.789046
      13A     -0.663678    14A     -0.641344    15A     -0.618890
      16A     -0.586740    17A     -0.567039    18A     -0.548572
      19A     -0.527408    20A     -0.500272    21A     -0.479686
      22A     -0.465377    23A     -0.459670    24A     -0.450110
      25A     -0.380870

  @DF-RHF Final Energy:  -251.35083716422460

   => Energetics <=

    Nuclear Repulsion Energy =            245.7370830979863570
    One-Electron Energy =                -825.6658819743109916
    Two-Electron Energy =                 328.5779617121000342
    DFT Exchange-Correlation Energy =       0.0000000000000000
    Empirical Dispersion Energy =           0.0000000000000000
    PCM Polarization Energy =               0.0000000000000000
    EFP Energy =                            0.0000000000000000
    Total Energy =                       -251.3508371642246289

  Mulliken Charges: (a.u.)
   Center  Symbol    Alpha    Beta     Spin     Total
       1     H     0.33250  0.33250  0.00000  0.33500
       2     N     3.92188  3.92188  0.00000 -0.84375
       3     C     3.06090  3.06090  0.00000 -0.12180
       4     H     0.33538  0.33538  0.00000  0.32925
       5     C     3.15182  3.15182  0.00000 -0.30364
       6     H     0.42072  0.42072  0.00000  0.15856
       7     H     0.43474  0.43474  0.00000  0.13051
       8     C     3.15512  3.15512  0.00000 -0.31025
       9     H     0.41306  0.41306  0.00000  0.17388
      10     H     0.42689  0.42689  0.00000  0.14621
      11     C     3.15121  3.15121  0.00000 -0.30242
      12     H     0.42430  0.42430  0.00000  0.15140
      13     H     0.42382  0.42382  0.00000  0.15236
      14     C     3.23944  3.23944  0.00000 -0.47888
      15     H     0.42168  0.42168  0.00000  0.15664
      16     H     0.42302  0.42302  0.00000  0.15396
      17     H     0.42187  0.42187  0.00000  0.15626
      18     H     0.41935  0.41935  0.00000  0.16129
      19     H     0.42229  0.42229  0.00000  0.15541

   Total alpha = 25.00000, Total beta = 25.00000, Total charge = -0.00000
