                              Psi4 1.0.54 Driver

  ==> Input File <==

--------------------------------------------------------------------------
set {
	reference rhf
	basis cc-pvtz
}

set_num_threads( 4 )
memory 2 gb

molecule MOL {
0 1

O	 0.075677	 1.258489	 -0.056367
C	 0.029490	 0.077183	 0.000078
C	 -1.232113	 -0.748027	 0.000015
O	 1.105608	 -0.688307	 0.072370
C	 -2.501422	 0.088592	 -0.000052
H	 -1.188777	 -1.400384	 -0.865133
H	 -1.188857	 -1.400312	 0.865225
H	 -2.548170	 0.725504	 -0.873205
H	 -3.371613	 -0.556398	 -0.000040
H	 -2.548215	 0.725571	 0.873047
C	 2.362431	 -0.041804	 0.080919
H	 2.502752	 0.530754	 -0.823914
H	 3.099963	 -0.825340	 0.143716
H	 2.445872	 0.617878	 0.931861

	symmetry c1
}
set optking {
	frozen_dihedral = ("
		4 2 3 6
	")
}

ee,wfn = optimize('scf', return_wfn=True)
oeprop( wfn, 'DIPOLE', 'QUADRUPOLE', 'MULLIKEN_CHARGES')
f=open( 'psi4out.xyz', 'w' )
f.write( "14  " )
f.write( str(ee) + "\n" )
f.write( MOL.save_string_xyz() )
f.close()
--------------------------------------------------------------------------

    Molecular point group: c1
  Charge       = 0
  Multiplicity = 1
  Basis Set: CC-PVTZ
  Basis Set:
  @DF-RHF Final Energy:  -305.98770025346369
    Total Energy =                       -305.9877002534634585
    Molecular point group: c1
  Basis Set: CC-PVTZ
  Basis Set:
  Basis Set: CC-PVTZ
  Basis Set:
  @DF-RHF Final Energy:  -305.98769893066549
    Total Energy =                       -305.9876989306657720
  Basis Set: CC-PVTZ
  Basis Set:
  Basis Set: CC-PVTZ
  Basis Set:
  @DF-RHF Final Energy:  -305.98769569167723
    Total Energy =                       -305.9876956916770041
  Basis Set: CC-PVTZ
  Basis Set:
  Charge       = 0
  Multiplicity = 1
  Basis Set: CC-PVTZ
  Basis Set:

    Orbital Energies (a.u.)
    -----------------------

    Doubly Occupied:

       1A    -20.597200     2A    -20.534992     3A    -11.365220
       4A    -11.279146     5A    -11.237227     6A    -11.214846
       7A     -1.473098     8A     -1.366737     9A     -1.065445
      10A     -0.981249    11A     -0.878873    12A     -0.771038
      13A     -0.702932    14A     -0.686128    15A     -0.675542
      16A     -0.621737    17A     -0.604218    18A     -0.545728
      19A     -0.538550    20A     -0.522993    21A     -0.515974
      22A     -0.497328    23A     -0.461321    24A     -0.442666

  @DF-RHF Final Energy:  -305.98770495323220

   => Energetics <=

    Nuclear Repulsion Energy =            247.5707049476843622
    One-Electron Energy =                -907.9564491825531150
    Two-Electron Energy =                 354.3980392816367271
    DFT Exchange-Correlation Energy =       0.0000000000000000
    Empirical Dispersion Energy =           0.0000000000000000
    PCM Polarization Energy =               0.0000000000000000
    EFP Energy =                            0.0000000000000000
    Total Energy =                       -305.9877049532320257
    Molecular point group: c1
  Basis Set: CC-PVTZ
  Basis Set:

  -Total Gradient:
     Atom            X                  Y                   Z
    ------   -----------------  -----------------  -----------------
       1        0.000000869621     0.000063799196    -0.000050401965
       2       -0.000019645482    -0.000033620061    -0.000087162603
       3        0.000105074799    -0.000145120378     0.000120833163
       4       -0.000007224281    -0.000008110810     0.000106465418
       5        0.000013881077    -0.000010681229    -0.000005815734
       6       -0.000094451973     0.000133684932    -0.000095717667
       7        0.000005949745    -0.000014663673     0.000025728319
       8       -0.000009757599     0.000011488036    -0.000015848425
       9       -0.000013693276    -0.000005092936    -0.000007725750
      10        0.000008758096     0.000001576427     0.000007741471
      11        0.000007182577    -0.000003802651     0.000013582367
      12       -0.000000009099     0.000004814623    -0.000012938590
      13       -0.000000487907    -0.000000949256    -0.000003767916
      14        0.000003553703     0.000006677780     0.000005027912

  **** Optimization is complete! (in 4 steps) ****
    Final optimized geometry and variables:
    Molecular point group: c1

    Geometry (in Angstrom), charge = 0, multiplicity = 1:

    O            0.075257768964     1.258140985112    -0.068420140722
    C            0.029605458478     0.076749146135    -0.012295573869
    C           -1.231623687831    -0.748820488308    -0.015750352177
    O            1.106046364486    -0.688570403170     0.057763348488
    C           -2.500844677309     0.088053093877    -0.022553213080
    H           -1.184425849214    -1.396894845130    -0.884304024101
    H           -1.192829226685    -1.404178333700     0.846835896586
    H           -2.540953068686     0.727483926174    -0.893984977355
    H           -3.371126514335    -0.556781499904    -0.030288850882
    H           -2.553941778810     0.722437014683     0.852281894509
    C            2.362890834407    -0.042011585684     0.058893025006
    H            2.498785371077     0.528734590354    -0.847779620934
    H            3.100584186015    -0.825561467795     0.119503800695
    H            2.450570936765     0.619292136779     0.908113029392

  Mulliken Charges: (a.u.)
   Center  Symbol    Alpha    Beta     Spin     Total
       1     O     4.19634  4.19634  0.00000 -0.39268
       2     C     2.80250  2.80250  0.00000  0.39500
       3     C     3.09440  3.09440  0.00000 -0.18879
       4     O     4.14707  4.14707  0.00000 -0.29414
       5     C     3.13980  3.13980  0.00000 -0.27960
       6     H     0.44170  0.44170  0.00000  0.11660
       7     H     0.44077  0.44077  0.00000  0.11846
       8     H     0.44771  0.44771  0.00000  0.10457
       9     H     0.45035  0.45035  0.00000  0.09930
      10     H     0.44899  0.44899  0.00000  0.10201
      11     C     3.03626  3.03626  0.00000 -0.07252
      12     H     0.45435  0.45435  0.00000  0.09131
      13     H     0.44548  0.44548  0.00000  0.10904
      14     H     0.45428  0.45428  0.00000  0.09144

   Total alpha = 24.00000, Total beta = 24.00000, Total charge = -0.00000

*** Psi4 exiting successfully. Buy a developer a beer!
