  ==> Input File <==

--------------------------------------------------------------------------
set {
	reference rhf
	basis 6-31G*
}

set_num_threads( 4 )
memory 2 gb

molecule MOL {
0 1

O	 1.214711	 1.306902	 -0.000018
C	 1.122059	 0.121804	 -0.000188
C	 -0.170150	 -0.657997	 -0.000612
O	 2.172624	 -0.688929	 0.000216
C	 -1.412532	 0.227344	 -0.000452
H	 -0.153702	 -1.313099	 -0.867402
H	 -0.153924	 -1.313811	 0.865644
C	 -1.152502	 1.593934	 0.635302
H	 -2.213270	 -0.278872	 0.529706
H	 -1.760809	 0.356284	 -1.020541
C	 -2.391763	 2.487928	 0.638471
H	 -0.803025	 1.458946	 1.656928
H	 -0.347639	 2.095704	 0.101921
H	 -3.204287	 2.028738	 1.193993
H	 -2.180556	 3.450008	 1.094618
H	 -2.745269	 2.670546	 -0.372135
C	 3.452279	 -0.082609	 0.000533
H	 3.583069	 0.529321	 -0.880332
H	 4.163299	 -0.894027	 0.001117
H	 3.582335	 0.529955	 0.881077

	symmetry c1
}
set optking {
	frozen_dihedral = ("
		9 5 3 6
	")
}

ee = optimize('scf')
oeprop('DIPOLE', 'QUADRUPOLE', 'MULLIKEN_CHARGES')
f=open( 'psi4out.xyz', 'w' )
f.write( "20  " )
f.write( str(ee) + "\n" )
f.write( MOL.save_string_xyz() )
f.close()
--------------------------------------------------------------------------

    Molecular point group: c1
  Charge       = 0
  Multiplicity = 1
  Basis Set: 6-31G*
  Basis Set:
  @DF-RHF Final Energy:  -383.91184681079585
    Total Energy =                       -383.9118468107958506
    Molecular point group: c1
  Basis Set: 6-31G*
  Basis Set:
  Basis Set: 6-31G*
  Basis Set:
  @DF-RHF Final Energy:  -383.92836942855251
    Total Energy =                       -383.9283694285525144
  Basis Set: 6-31G*
  Basis Set:
  Basis Set: 6-31G*
  Basis Set:
  @DF-RHF Final Energy:  -383.93121105050830
    Total Energy =                       -383.9312110505082956
  Basis Set: 6-31G*
  Basis Set:
  Basis Set: 6-31G*
  Basis Set:
  @DF-RHF Final Energy:  -383.92707426168516
    Total Energy =                       -383.9270742616852203
  Basis Set: 6-31G*
  Basis Set:
  @DF-RHF Final Energy:  -383.93278642282530
    Total Energy =                       -383.9327864228257567
  @DF-RHF Final Energy:  -383.93360330126416
    Total Energy =                       -383.9336033012642702
  @DF-RHF Final Energy:  -383.93403623051859
    Total Energy =                       -383.9340362305187000
  @DF-RHF Final Energy:  -383.93438672151302
    Total Energy =                       -383.9343867215126238
  @DF-RHF Final Energy:  -383.93487607526112
    Total Energy =                       -383.9348760752612861
  @DF-RHF Final Energy:  -383.93503568190573
    Total Energy =                       -383.9350356819056742
  @DF-RHF Final Energy:  -383.93512428879563
    Total Energy =                       -383.9351242887960325
  @DF-RHF Final Energy:  -383.93520866051131
    Total Energy =                       -383.9352086605113072
  @DF-RHF Final Energy:  -383.93532944834857
    Total Energy =                       -383.9353294483485115
  @DF-RHF Final Energy:  -383.93537045471089
    Total Energy =                       -383.9353704547111192
  @DF-RHF Final Energy:  -383.93527751917657
    Total Energy =                       -383.9352775191769069
  Basis Set: 6-31G*
  Basis Set:
  @DF-RHF Final Energy:  -383.93542166916973
    Total Energy =                       -383.9354216691693864
  Basis Set: 6-31G*
  Basis Set:
  Basis Set: 6-31G*
  Basis Set:
  @DF-RHF Final Energy:  -383.93543207870050
    Total Energy =                       -383.9354320787005008
  Basis Set: 6-31G*
  Basis Set:
  Basis Set: 6-31G*
  Basis Set:
  @DF-RHF Final Energy:  -383.93543435158239
    Total Energy =                       -383.9354343515821029
  Basis Set: 6-31G*
  Basis Set:
  Charge       = 0
  Multiplicity = 1
  Basis Set: 6-31G*
  Basis Set:

    Orbital Energies (a.u.)
    -----------------------

    Doubly Occupied:

       1A    -20.605673     2A    -20.541430     3A    -11.370764
       4A    -11.280702     5A    -11.234040     6A    -11.229514
       7A    -11.219983     8A    -11.212333     9A     -1.469119
      10A     -1.360759    11A     -1.089041    12A     -1.021695
      13A     -0.968935    14A     -0.888828    15A     -0.812112
      16A     -0.767220    17A     -0.692249    18A     -0.677554
      19A     -0.672593    20A     -0.642936    21A     -0.596314
      22A     -0.591368    23A     -0.585412    24A     -0.548687
      25A     -0.530162    26A     -0.518891    27A     -0.517179
      28A     -0.481377    29A     -0.474338    30A     -0.466620
      31A     -0.452505    32A     -0.431299

  @DF-RHF Final Energy:  -383.93543501257830

   => Energetics <=

    Nuclear Repulsion Energy =            394.5417110857565604
    One-Electron Energy =               -1305.0510291404807504
    Two-Electron Energy =                 526.5738830421458943
    DFT Exchange-Correlation Energy =       0.0000000000000000
    Empirical Dispersion Energy =           0.0000000000000000
    PCM Polarization Energy =               0.0000000000000000
    EFP Energy =                            0.0000000000000000
    Total Energy =                       -383.9354350125782958
    Molecular point group: c1
  Basis Set: 6-31G*
  Basis Set:

  -Total Gradient:
     Atom            X                  Y                   Z
    ------   -----------------  -----------------  -----------------
       1       -0.000014545303    -0.000002026554     0.000018986002
       2       -0.000001789934     0.000013700230    -0.000076665960
       3       -0.003368818247    -0.004663945333     0.004431835696
       4        0.000031897951    -0.000003261197     0.000050870002
       5       -0.002271362706    -0.000806690657    -0.006658837129
       6        0.003166808481     0.004032661409    -0.002746709536
       7        0.000003786832    -0.000001575988     0.000004186462
       8       -0.000003404147     0.000001766371    -0.000003257571
       9        0.002491456961     0.001452970044     0.004982721412
      10       -0.000005818164     0.000003841542     0.000001124280
      11       -0.000015182402    -0.000005201072     0.000011835365
      12       -0.000005041319     0.000008628784     0.000005867512
      13        0.000013749300    -0.000020343437    -0.000014132415
      14       -0.000008148186     0.000001130616    -0.000003453513
      15        0.000001722056    -0.000007594702     0.000000816704
      16        0.000005726822     0.000004367572    -0.000001184663
      17       -0.000029521978    -0.000013476996    -0.000007445389
      18        0.000005201036     0.000002658007     0.000000619888
      19        0.000000184792    -0.000000331458     0.000002529128
      20        0.000003098148     0.000002722822     0.000000293726

  **** Optimization is complete! (in 19 steps) ****
    Final optimized geometry and variables:
    Molecular point group: c1

    Geometry (in Angstrom), charge = 0, multiplicity = 1:

    O            1.048581582818    -0.000397988177    -1.531644085708
    C            0.705772128182    -0.607670232142    -0.567157658064
    C           -0.657480739222    -1.239273354680    -0.401258941204
    O            1.486962598767    -0.793215620152     0.487425123199
    C           -1.770498629750    -0.193912739480    -0.150441738945
    H           -0.843230734123    -1.738333481761    -1.345021242477
    H           -0.620112740668    -1.967793740924     0.396588096630
    C           -1.345539408974     1.017226695285     0.689321656588
    H           -2.568075357500    -0.692248121319     0.392858327362
    H           -2.171090907998     0.147529641808    -1.098106869006
    C           -2.520899548952     1.944557019686     0.996152000120
    H           -0.900686276107     0.675193069589     1.620843322786
    H           -0.578673701000     1.578387855944     0.163696792545
    H           -3.294120028006     1.428497552956     1.558290895542
    H           -2.200679882996     2.799743686735     1.582741236588
    H           -2.971409897745     2.320717002769     0.082153670979
    C            2.782489966775    -0.223428326866     0.434244166473
    H            3.340565508701    -0.627347879971    -0.397963348084
    H            3.258218285651    -0.484650362006     1.366631326509
    H            2.720791084356     0.850526815638     0.332738072712

  Mulliken Charges: (a.u.)
   Center  Symbol    Alpha    Beta     Spin     Total
       1     O     4.28734  4.28734  0.00000 -0.57468
       2     C     2.61543  2.61543  0.00000  0.76915
       3     C     3.19967  3.19967  0.00000 -0.39934
       4     O     4.30272  4.30272  0.00000 -0.60543
       5     C     3.15338  3.15338  0.00000 -0.30676
       6     H     0.39877  0.39877  0.00000  0.20247
       7     H     0.40154  0.40154  0.00000  0.19692
       8     C     3.16780  3.16780  0.00000 -0.33559
       9     H     0.41653  0.41653  0.00000  0.16694
      10     H     0.41033  0.41033  0.00000  0.17934
      11     C     3.23967  3.23967  0.00000 -0.47935
      12     H     0.41710  0.41710  0.00000  0.16580
      13     H     0.41189  0.41189  0.00000  0.17622
      14     H     0.42173  0.42173  0.00000  0.15654
      15     H     0.41739  0.41739  0.00000  0.16522
      16     H     0.41947  0.41947  0.00000  0.16107
      17     C     3.09329  3.09329  0.00000 -0.18659
      18     H     0.40824  0.40824  0.00000  0.18351
      19     H     0.40863  0.40863  0.00000  0.18273
      20     H     0.40908  0.40908  0.00000  0.18183

   Total alpha = 32.00000, Total beta = 32.00000, Total charge = -0.00000
