  ==> Input File <==

--------------------------------------------------------------------------
set {
	reference rhf
	basis 6-31G*
}

set_num_threads( 1 )
memory 2 gb

molecule MOL {
0 1

H	 -2.698709	 -0.000305	 0.034435
C	 -1.693833	 0.000034	 0.434417
O	 -0.828952	 -0.000968	 -0.659236
H	 -1.574200	 0.882896	 1.055746
H	 -1.574147	 -0.881698	 1.057355
C	 -0.078944	 -1.163540	 -0.924601
C	 0.909979	 -1.489757	 0.192775
C	 -0.959074	 -2.357842	 -1.287883
H	 0.492295	 -0.892585	 -1.804545
H	 1.481785	 -0.607185	 0.458579
H	 1.602590	 -2.257646	 -0.137184
H	 0.414628	 -1.859186	 1.085139
H	 -1.681382	 -2.075946	 -2.046344
H	 -0.347400	 -3.163057	 -1.682784
H	 -1.497126	 -2.747951	 -0.429888

	symmetry c1
}
set optking {
	frozen_dihedral = ("
		9 6 3 2
	")
}

ee = energy('scf')
oeprop('DIPOLE', 'QUADRUPOLE', 'MULLIKEN_CHARGES')
f=open( 'psi4out.xyz', 'w' )
f.write( "15  " )
f.write( str(ee) + "\n" )
f.write( MOL.save_string_xyz() )
f.close()
--------------------------------------------------------------------------

    Molecular point group: c1

    Geometry (in Angstrom), charge = 0, multiplicity = 1:

       Center              X                  Y                   Z               Mass
    ------------   -----------------  -----------------  -----------------  -----------------
           H         -2.151341296656     0.996788176876     0.466389985376     1.007825032070
           C         -1.146465296656     0.997127176876     0.866371985376    12.000000000000
           O         -0.281584296656     0.996125176876    -0.227281014624    15.994914619560
           H         -1.026832296656     1.879989176876     1.487700985376     1.007825032070
           H         -1.026779296656     0.115395176876     1.489309985376     1.007825032070
           C          0.468423703344    -0.166446823124    -0.492646014624    12.000000000000
           C          1.457346703344    -0.492663823124     0.624729985376    12.000000000000
           C         -0.411706296656    -1.360748823124    -0.855928014624    12.000000000000
           H          1.039662703344     0.104508176876    -1.372590014624     1.007825032070
           H          2.029152703344     0.389908176876     0.890533985376     1.007825032070
           H          2.149957703344    -1.260552823124     0.294770985376     1.007825032070
           H          0.961995703344    -0.862092823124     1.517093985376     1.007825032070
           H         -1.134014296656    -1.078852823124    -1.614389014624     1.007825032070
           H          0.199967703344    -2.165963823124    -1.250829014624     1.007825032070
           H         -0.949758296656    -1.750857823124     0.002066985376     1.007825032070

  Charge       = 0
  Multiplicity = 1
  Basis Set: 6-31G*
  Basis Set:

    Orbital Energies (a.u.)
    -----------------------

    Doubly Occupied:

       1A    -20.545632     2A    -11.275201     3A    -11.260861
       4A    -11.210770     5A    -11.210613     6A     -1.369377
       7A     -1.050533     8A     -0.939637     9A     -0.931211
      10A     -0.781532    11A     -0.676448    12A     -0.639405
      13A     -0.632057    14A     -0.571496    15A     -0.562609
      16A     -0.551968    17A     -0.538197    18A     -0.501029
      19A     -0.497334    20A     -0.442438    21A     -0.402213

  @DF-RHF Final Energy:  -232.13438642597626

   => Energetics <=

    Nuclear Repulsion Energy =            198.8289342730366513
    One-Electron Energy =                -708.7454235814255981
    Two-Electron Energy =                 277.7821028824130849
    DFT Exchange-Correlation Energy =       0.0000000000000000
    Empirical Dispersion Energy =           0.0000000000000000
    PCM Polarization Energy =               0.0000000000000000
    EFP Energy =                            0.0000000000000000
    Total Energy =                       -232.1343864259758334

  Mulliken Charges: (a.u.)
   Center  Symbol    Alpha    Beta     Spin     Total
       1     H     0.42210  0.42210  0.00000  0.15581
       2     C     3.07896  3.07896  0.00000 -0.15791
       3     O     4.31451  4.31451  0.00000 -0.62902
       4     H     0.41876  0.41876  0.00000  0.16249
       5     H     0.43048  0.43048  0.00000  0.13903
       6     C     2.91053  2.91053  0.00000  0.17893
       7     C     3.25183  3.25183  0.00000 -0.50366
       8     C     3.25180  3.25180  0.00000 -0.50361
       9     H     0.41522  0.41522  0.00000  0.16956
      10     H     0.41124  0.41124  0.00000  0.17752
      11     H     0.41955  0.41955  0.00000  0.16090
      12     H     0.42189  0.42189  0.00000  0.15622
      13     H     0.41140  0.41140  0.00000  0.17721
      14     H     0.41964  0.41964  0.00000  0.16071
      15     H     0.42209  0.42209  0.00000  0.15581

   Total alpha = 21.00000, Total beta = 21.00000, Total charge = -0.00000
