  ==> Input File <==

--------------------------------------------------------------------------
set {
	reference rhf
	basis 6-31G*
}

set_num_threads( 1 )
memory 2 gb

molecule MOL {
0 1

H	 -3.161837	 0.500524	 -0.000234
C	 -2.367097	 -0.232926	 -0.000000
O	 -1.158440	 0.455814	 -0.000122
H	 -2.468853	 -0.861886	 -0.882833
H	 -2.468942	 -0.861421	 0.883154
C	 -0.029776	 -0.365156	 0.000148
C	 -0.042756	 -1.216760	 -1.257335
H	 -0.027473	 -0.999871	 0.887295
H	 0.875866	 0.241768	 0.037070
C	 1.162521	 -2.152174	 -1.342128
H	 -0.964405	 -1.790263	 -1.275172
H	 -0.067329	 -0.557369	 -2.119483
H	 1.192257	 -2.837805	 -0.499839
H	 1.127936	 -2.747071	 -2.248630
H	 2.095890	 -1.596141	 -1.349438

	symmetry c1
}
set optking {
	frozen_dihedral = ("
		6 3 2 4,
		11 7 6 8
	")
}

ee = energy('scf')
oeprop('DIPOLE', 'QUADRUPOLE', 'MULLIKEN_CHARGES')
f=open( 'psi4out.xyz', 'w' )
f.write( "15  " )
f.write( str(ee) + "\n" )
f.write( MOL.save_string_xyz() )
f.close()
--------------------------------------------------------------------------

    Molecular point group: c1

    Geometry (in Angstrom), charge = 0, multiplicity = 1:

       Center              X                  Y                   Z               Mass
    ------------   -----------------  -----------------  -----------------  -----------------
           H         -2.652184233568     1.201359228385     0.510250965527     1.007825032070
           C         -1.857444233568     0.467909228385     0.510484965527    12.000000000000
           O         -0.648787233568     1.156649228385     0.510362965527    15.994914619560
           H         -1.959200233568    -0.161050771615    -0.372348034473     1.007825032070
           H         -1.959289233568    -0.160585771615     1.393638965527     1.007825032070
           C          0.479876766432     0.335679228385     0.510632965527    12.000000000000
           C          0.466896766432    -0.515924771615    -0.746850034473    12.000000000000
           H          0.482179766432    -0.299035771615     1.397779965527     1.007825032070
           H          1.385518766432     0.942603228385     0.547554965527     1.007825032070
           C          1.672173766432    -1.451338771615    -0.831643034473    12.000000000000
           H         -0.454752233568    -1.089427771615    -0.764687034473     1.007825032070
           H          0.442323766432     0.143466228385    -1.608998034473     1.007825032070
           H          1.701909766432    -2.136969771615     0.010645965527     1.007825032070
           H          1.637588766432    -2.046235771615    -1.738145034473     1.007825032070
           H          2.605542766432    -0.895305771615    -0.838953034473     1.007825032070

  Charge       = 0
  Multiplicity = 1
  Basis Set: 6-31G*
  Basis Set:

    Orbital Energies (a.u.)
    -----------------------

    Doubly Occupied:

       1A    -20.552300     2A    -11.267077     3A    -11.262696
       4A    -11.214867     5A    -11.214165     6A     -1.379187
       7A     -1.056009     8A     -0.959343     9A     -0.888142
      10A     -0.803262    11A     -0.673510    12A     -0.660593
      13A     -0.632489    14A     -0.602546    15A     -0.567004
      16A     -0.529670    17A     -0.527663    18A     -0.500632
      19A     -0.483817    20A     -0.451313    21A     -0.405600

  @DF-RHF Final Energy:  -232.12993887743590

   => Energetics <=

    Nuclear Repulsion Energy =            194.0162346266188251
    One-Electron Energy =                -699.0285815745855871
    Two-Electron Energy =                 272.8824080705311417
    DFT Exchange-Correlation Energy =       0.0000000000000000
    Empirical Dispersion Energy =           0.0000000000000000
    PCM Polarization Energy =               0.0000000000000000
    EFP Energy =                            0.0000000000000000
    Total Energy =                       -232.1299388774356203

  Mulliken Charges: (a.u.)
   Center  Symbol    Alpha    Beta     Spin     Total
       1     H     0.41105  0.41105  0.00000  0.17789
       2     C     3.08502  3.08502  0.00000 -0.17004
       3     O     4.30365  4.30365  0.00000 -0.60730
       4     H     0.42744  0.42744  0.00000  0.14511
       5     H     0.43076  0.43076  0.00000  0.13848
       6     C     2.98691  2.98691  0.00000  0.02617
       7     C     3.17170  3.17170  0.00000 -0.34340
       8     H     0.43227  0.43227  0.00000  0.13547
       9     H     0.41484  0.41484  0.00000  0.17032
      10     C     3.24573  3.24573  0.00000 -0.49145
      11     H     0.41892  0.41892  0.00000  0.16216
      12     H     0.41377  0.41377  0.00000  0.17245
      13     H     0.42106  0.42106  0.00000  0.15789
      14     H     0.41655  0.41655  0.00000  0.16690
      15     H     0.42032  0.42032  0.00000  0.15936

   Total alpha = 21.00000, Total beta = 21.00000, Total charge =  0.00000
