  ==> Input File <==

--------------------------------------------------------------------------
set {
	reference rhf
	basis 6-31G*
}

set_num_threads( 4 )
memory 2 gb

molecule MOL {
0 1

H	 -1.070890	 -1.366565	 0.180696
O	 -1.422729	 -0.573567	 -0.196946
C	 -0.731407	 0.539437	 0.309156
C	 0.680193	 0.672443	 -0.251532
H	 -1.319765	 1.404033	 0.030086
H	 -0.700012	 0.506517	 1.397677
C	 1.516808	 -0.599929	 -0.114249
H	 0.611516	 0.953614	 -1.298372
H	 1.176637	 1.490510	 0.266011
H	 1.086681	 -1.420465	 -0.680735
H	 2.523746	 -0.446449	 -0.487728
H	 1.595281	 -0.911138	 0.924623

	symmetry c1
}
set optking {
	frozen_dihedral = ("
		8 4 3 2
	")
}

ee = optimize('scf')
oeprop('DIPOLE', 'QUADRUPOLE', 'MULLIKEN_CHARGES')
f=open( 'psi4out.xyz', 'w' )
f.write( "12  " )
f.write( str(ee) + "\n" )
f.write( MOL.save_string_xyz() )
f.close()
--------------------------------------------------------------------------

    Molecular point group: c1
  Charge       = 0
  Multiplicity = 1
  Basis Set: 6-31G*
  Basis Set:
  @DF-RHF Final Energy:  -193.10935407602452
    Total Energy =                       -193.1093540760245446
    Molecular point group: c1
  Basis Set: 6-31G*
  Basis Set:
  Basis Set: 6-31G*
  Basis Set:
  @DF-RHF Final Energy:  -193.10941636821201
    Total Energy =                       -193.1094163682120666
  Basis Set: 6-31G*
  Basis Set:
  Basis Set: 6-31G*
  Basis Set:
  @DF-RHF Final Energy:  -193.10945788703731
    Total Energy =                       -193.1094578870373653
  Basis Set: 6-31G*
  Basis Set:
  Basis Set: 6-31G*
  Basis Set:
  @DF-RHF Final Energy:  -193.10945952714991
    Total Energy =                       -193.1094595271498804
  Basis Set: 6-31G*
  Basis Set:
  Charge       = 0
  Multiplicity = 1
  Basis Set: 6-31G*
  Basis Set:

    Orbital Energies (a.u.)
    -----------------------

    Doubly Occupied:

       1A    -20.553038     2A    -11.268239     3A    -11.218940
       4A    -11.217304     5A     -1.360172     6A     -1.050503
       7A     -0.928385     8A     -0.808388     9A     -0.696348
      10A     -0.634886    11A     -0.605956    12A     -0.587540
      13A     -0.535111    14A     -0.511112    15A     -0.494874
      16A     -0.467537    17A     -0.429233

  @DF-RHF Final Energy:  -193.10945977485500

   => Energetics <=

    Nuclear Repulsion Energy =            133.3049812082620633
    One-Electron Energy =                -526.0937495955497525
    Two-Electron Energy =                 199.6793086124327488
    DFT Exchange-Correlation Energy =       0.0000000000000000
    Empirical Dispersion Energy =           0.0000000000000000
    PCM Polarization Energy =               0.0000000000000000
    EFP Energy =                            0.0000000000000000
    Total Energy =                       -193.1094597748549404
    Molecular point group: c1
  Basis Set: 6-31G*
  Basis Set:

  -Total Gradient:
     Atom            X                  Y                   Z
    ------   -----------------  -----------------  -----------------
       1       -0.000007487571    -0.000025422310    -0.000004399741
       2        0.000792519546    -0.001230195738     0.001648154178
       3       -0.001033387773     0.002348472650    -0.002076755588
       4        0.000192780383    -0.003701698746    -0.000280722424
       5       -0.000009359773     0.000008193220     0.000000541119
       6       -0.000010136997    -0.000018640161    -0.000004732037
       7        0.000019682049     0.000015542453    -0.000000032184
       8        0.000045374769     0.002622520631     0.000707916388
       9        0.000012350013    -0.000010289368     0.000017120101
      10       -0.000000160042     0.000006655260    -0.000000025729
      11        0.000002117935    -0.000014235067    -0.000006886539
      12       -0.000004292536    -0.000000902823    -0.000000177544

  **** Optimization is complete! (in 5 steps) ****
    Final optimized geometry and variables:
    Molecular point group: c1

    Geometry (in Angstrom), charge = 0, multiplicity = 1:

    H           -1.064372897830    -1.336161412382     0.233450056952
    O           -1.417036797487    -0.538704535981    -0.133613165963
    C           -0.707187459578     0.564575709066     0.367737844355
    C            0.702373829545     0.690695761158    -0.204799359490
    H           -1.290201327969     1.439348499522     0.111201471864
    H           -0.658841693817     0.515272061753     1.455125390189
    C            1.547233731960    -0.573018909707    -0.052858015998
    H            0.639241117202     0.977821132987    -1.250546921428
    H            1.193489079211     1.516709622095     0.306396147671
    H            1.132301398359    -1.396764202974    -0.624397139649
    H            2.558377400874    -0.408889686640    -0.409692793892
    H            1.614077306417    -0.881168457174     0.988292408596

  Mulliken Charges: (a.u.)
   Center  Symbol    Alpha    Beta     Spin     Total
       1     H     0.27963  0.27963  0.00000  0.44074
       2     O     4.37025  4.37025  0.00000 -0.74051
       3     C     2.99713  2.99713  0.00000  0.00574
       4     C     3.16015  3.16015  0.00000 -0.32029
       5     H     0.41429  0.41429  0.00000  0.17143
       6     H     0.43231  0.43231  0.00000  0.13539
       7     C     3.25237  3.25237  0.00000 -0.50474
       8     H     0.41516  0.41516  0.00000  0.16969
       9     H     0.42354  0.42354  0.00000  0.15293
      10     H     0.41759  0.41759  0.00000  0.16482
      11     H     0.41380  0.41380  0.00000  0.17240
      12     H     0.42380  0.42380  0.00000  0.15240

   Total alpha = 17.00000, Total beta = 17.00000, Total charge =  0.00000
