                              Psi4 1.0.54 Driver

  ==> Input File <==

--------------------------------------------------------------------------
set {
	reference rhf
	basis cc-pvtz
}

set_num_threads( 4 )
memory 2 gb

molecule MOL {
0 1

H	 3.889604	 0.356866	 -0.089510
N	 3.091268	 -0.241216	 -0.065538
C	 1.860978	 0.530248	 0.016256
H	 3.192566	 -0.835836	 0.730398
C	 0.644130	 -0.381765	 -0.031064
H	 1.835721	 1.204666	 -0.833114
H	 1.808789	 1.151975	 0.911067
C	 -0.678115	 0.376691	 0.025731
H	 0.693998	 -0.977147	 -0.936845
H	 0.693309	 -1.082142	 0.800523
C	 -1.388878	 0.252442	 1.370566
H	 -1.335934	 0.011733	 -0.759784
H	 -0.503512	 1.428456	 -0.189157
C	 -2.713324	 1.006736	 1.421156
H	 -1.563819	 -0.797648	 1.587358
H	 -0.735104	 0.620022	 2.156846
H	 -3.402641	 0.638140	 0.668681
H	 -3.191086	 0.897818	 2.388052
H	 -2.567348	 2.066929	 1.242225

	symmetry c1
}
set optking {
	frozen_dihedral = ("
		12 8 5 9
	")
}

ee,wfn = optimize('scf', return_wfn=True)
oeprop( wfn, 'DIPOLE', 'QUADRUPOLE', 'MULLIKEN_CHARGES')
f=open( 'psi4out.xyz', 'w' )
f.write( "19  " )
f.write( str(ee) + "\n" )
f.write( MOL.save_string_xyz() )
f.close()
--------------------------------------------------------------------------

    Molecular point group: c1
  Charge       = 0
  Multiplicity = 1
  Basis Set: CC-PVTZ
  Basis Set:
  @DF-RHF Final Energy:  -251.44341199251141
    Total Energy =                       -251.4434119925114146
    Molecular point group: c1
  Basis Set: CC-PVTZ
  Basis Set:
  Basis Set: CC-PVTZ
  Basis Set:
  @DF-RHF Final Energy:  -251.44366031705499
    Total Energy =                       -251.4436603170551052
  Basis Set: CC-PVTZ
  Basis Set:
  Basis Set: CC-PVTZ
  Basis Set:
  @DF-RHF Final Energy:  -251.44373953808000
    Total Energy =                       -251.4437395380799671
  Basis Set: CC-PVTZ
  Basis Set:
  Basis Set: CC-PVTZ
  Basis Set:
  @DF-RHF Final Energy:  -251.44374102674064
    Total Energy =                       -251.4437410267408382
  Basis Set: CC-PVTZ
  Basis Set:
  Charge       = 0
  Multiplicity = 1
  Basis Set: CC-PVTZ
  Basis Set:

    Orbital Energies (a.u.)
    -----------------------

    Doubly Occupied:

       1A    -15.526524     2A    -11.238569     3A    -11.213159
       4A    -11.210465     5A    -11.207482     6A    -11.206008
       7A     -1.178479     8A     -1.073245     9A     -0.998454
      10A     -0.900944    11A     -0.819910    12A     -0.787379
      13A     -0.662027    14A     -0.638633    15A     -0.620624
      16A     -0.593548    17A     -0.565916    18A     -0.549741
      19A     -0.533199    20A     -0.495978    21A     -0.485672
      22A     -0.465405    23A     -0.456743    24A     -0.449504
      25A     -0.383795

  @DF-RHF Final Energy:  -251.44374140497339

   => Energetics <=

    Nuclear Repulsion Energy =            247.6879199236966258
    One-Electron Energy =                -829.7405177488768686
    Two-Electron Energy =                 330.6088564202067346
    DFT Exchange-Correlation Energy =       0.0000000000000000
    Empirical Dispersion Energy =           0.0000000000000000
    PCM Polarization Energy =               0.0000000000000000
    EFP Energy =                            0.0000000000000000
    Total Energy =                       -251.4437414049734798
    Molecular point group: c1
  Basis Set: CC-PVTZ
  Basis Set:

  -Total Gradient:
     Atom            X                  Y                   Z
    ------   -----------------  -----------------  -----------------
       1        0.000041753682    -0.000008669124     0.000005537691
       2        0.000057864238    -0.000003284027     0.000002526025
       3       -0.000055166772    -0.000013243955    -0.000011424351
       4        0.000012875206    -0.000008120963     0.000006171903
       5        0.001264928594     0.002689888647    -0.001702400243
       6       -0.000022493582    -0.000000650099     0.000004963195
       7       -0.000015571541    -0.000023096441    -0.000023080962
       8       -0.001151949893    -0.002465244197     0.002058178054
       9       -0.000881684433    -0.001789588556     0.001090848434
      10       -0.000000488000    -0.000002552935     0.000008366156
      11        0.000022211495     0.000014012540    -0.000018397973
      12        0.000751772329     0.001604779232    -0.001407712270
      13        0.000003554765     0.000000561786     0.000007019756
      14       -0.000030119248     0.000000780575     0.000001709042
      15        0.000023241296     0.000013090621    -0.000006863797
      16       -0.000005119743    -0.000007463975    -0.000030323207
      17        0.000006769408     0.000010152254     0.000011503766
      18       -0.000020807358     0.000006765514     0.000001575617
      19       -0.000001570445    -0.000018116899     0.000001803165

  **** Optimization is complete! (in 5 steps) ****
    Final optimized geometry and variables:
    Molecular point group: c1

    Geometry (in Angstrom), charge = 0, multiplicity = 1:

    H            3.710567526684     0.181261971853    -0.531324979445
    N            2.927573506113    -0.437149483994    -0.519395085289
    C            1.676107571181     0.300236591406    -0.467668072741
    H            3.028558025683    -1.026087509647     0.280762086847
    C            0.484090190152    -0.643003001987    -0.538371499797
    H            1.649352918544     0.970818972424    -1.319882079879
    H            1.585834917681     0.924142111232     0.423149470048
    C           -0.871364570090     0.079184913686    -0.445982011659
    H            0.550494032946    -1.225607014278    -1.449182666814
    H            0.563254158050    -1.363623425375     0.272720987832
    C           -1.552635907905    -0.050016320878     0.913980727690
    H           -1.537682424544    -0.285739204909    -1.220933125243
    H           -0.730954754014     1.134987860743    -0.666571391156
    C           -2.866579540740     0.718089898168     1.003448655378
    H           -1.733954873017    -1.100673161373     1.122594416119
    H           -0.876197769743     0.300850024355     1.689138685109
    H           -3.574083992433     0.369716401632     0.258243357158
    H           -3.327091344461     0.598333227560     1.977483686430
    H           -2.711902898258     1.779309890843     0.838927866436

  Mulliken Charges: (a.u.)
   Center  Symbol    Alpha    Beta     Spin     Total
       1     H     0.43017  0.43017  0.00000  0.13966
       2     N     3.68979  3.68979  0.00000 -0.37959
       3     C     3.02455  3.02455  0.00000 -0.04911
       4     H     0.43045  0.43045  0.00000  0.13909
       5     C     3.08982  3.08982  0.00000 -0.17963
       6     H     0.45620  0.45620  0.00000  0.08761
       7     H     0.46794  0.46794  0.00000  0.06411
       8     C     3.10340  3.10340  0.00000 -0.20681
       9     H     0.44321  0.44321  0.00000  0.11357
      10     H     0.46081  0.46081  0.00000  0.07837
      11     C     3.08150  3.08150  0.00000 -0.16300
      12     H     0.44665  0.44665  0.00000  0.10670
      13     H     0.45687  0.45687  0.00000  0.08625
      14     C     3.15027  3.15027  0.00000 -0.30054
      15     H     0.45397  0.45397  0.00000  0.09206
      16     H     0.45554  0.45554  0.00000  0.08892
      17     H     0.45481  0.45481  0.00000  0.09037
      18     H     0.44880  0.44880  0.00000  0.10241
      19     H     0.45523  0.45523  0.00000  0.08954

   Total alpha = 25.00000, Total beta = 25.00000, Total charge =  0.00000

*** Psi4 exiting successfully. Buy a developer a beer!
