  ==> Input File <==

--------------------------------------------------------------------------
set {
	reference rhf
	basis 6-31G*
}

set_num_threads( 1 )
memory 2 gb

molecule MOL {
0 1

H	 2.598167	 -0.560780	 -0.467313
O	 1.654024	 -0.625927	 -0.460906
C	 1.135793	 0.118896	 0.612333
C	 0.031547	 1.023609	 0.088541
H	 1.915668	 0.729681	 1.063582
H	 0.754543	 -0.542641	 1.387006
C	 -1.134819	 0.293262	 -0.585751
H	 0.474374	 1.714721	 -0.623187
H	 -0.338529	 1.620940	 0.920081
C	 -1.917817	 -0.639439	 0.339494
H	 -0.758119	 -0.268455	 -1.433105
H	 -1.813832	 1.041889	 -0.986690
H	 -2.777680	 -1.057197	 -0.174994
H	 -1.310268	 -1.471279	 0.680599
H	 -2.283753	 -0.111424	 1.216626

	symmetry c1
}
set optking {
	frozen_dihedral = ("
		8 4 7 11,
		2 3 4 8
	")
}

ee = energy('scf')
oeprop('DIPOLE', 'QUADRUPOLE', 'MULLIKEN_CHARGES')
f=open( 'psi4out.xyz', 'w' )
f.write( "15  " )
f.write( str(ee) + "\n" )
f.write( MOL.save_string_xyz() )
f.close()
--------------------------------------------------------------------------

    Molecular point group: c1

    Geometry (in Angstrom), charge = 0, multiplicity = 1:

       Center              X                  Y                   Z               Mass
    ------------   -----------------  -----------------  -----------------  -----------------
           H          2.594585466614    -0.569532347061    -0.462969197720     1.007825032070
           O          1.650442466614    -0.634679347061    -0.456562197720    15.994914619560
           C          1.132211466614     0.110143652939     0.616676802280    12.000000000000
           C          0.027965466614     1.014856652939     0.092884802280    12.000000000000
           H          1.912086466614     0.720928652939     1.067925802280     1.007825032070
           H          0.750961466614    -0.551393347061     1.391349802280     1.007825032070
           C         -1.138400533386     0.284509652939    -0.581407197720    12.000000000000
           H          0.470792466614     1.705968652939    -0.618843197720     1.007825032070
           H         -0.342110533386     1.612187652939     0.924424802280     1.007825032070
           C         -1.921398533386    -0.648191347061     0.343837802280    12.000000000000
           H         -0.761700533386    -0.277207347061    -1.428761197720     1.007825032070
           H         -1.817413533386     1.033136652939    -0.982346197720     1.007825032070
           H         -2.781261533386    -1.065949347061    -0.170650197720     1.007825032070
           H         -1.313849533386    -1.480031347061     0.684942802280     1.007825032070
           H         -2.287334533386    -0.120176347061     1.220969802280     1.007825032070

  Charge       = 0
  Multiplicity = 1
  Basis Set: 6-31G*
  Basis Set:

    Orbital Energies (a.u.)
    -----------------------

    Doubly Occupied:

       1A    -20.552373     2A    -11.267671     3A    -11.210567
       4A    -11.207868     5A    -11.203004     6A     -1.360005
       7A     -1.062655     8A     -0.968749     9A     -0.868574
      10A     -0.776061    11A     -0.701570    12A     -0.645178
      13A     -0.610936    14A     -0.571619    15A     -0.561408
      16A     -0.531110    17A     -0.507541    18A     -0.479760
      19A     -0.465459    20A     -0.451562    21A     -0.425256

  @DF-RHF Final Energy:  -232.14163809942184

   => Energetics <=

    Nuclear Repulsion Energy =            191.8987806735999868
    One-Electron Energy =                -695.2230304640710301
    Two-Electron Energy =                 271.1826116910494306
    DFT Exchange-Correlation Energy =       0.0000000000000000
    Empirical Dispersion Energy =           0.0000000000000000
    PCM Polarization Energy =               0.0000000000000000
    EFP Energy =                            0.0000000000000000
    Total Energy =                       -232.1416380994216411

  Mulliken Charges: (a.u.)
   Center  Symbol    Alpha    Beta     Spin     Total
       1     H     0.27914  0.27914  0.00000  0.44172
       2     O     4.37073  4.37073  0.00000 -0.74147
       3     C     3.00269  3.00269  0.00000 -0.00538
       4     C     3.15622  3.15622  0.00000 -0.31243
       5     H     0.42979  0.42979  0.00000  0.14041
       6     H     0.42392  0.42392  0.00000  0.15217
       7     C     3.15400  3.15400  0.00000 -0.30800
       8     H     0.41989  0.41989  0.00000  0.16021
       9     H     0.42741  0.42741  0.00000  0.14518
      10     C     3.24379  3.24379  0.00000 -0.48758
      11     H     0.40778  0.40778  0.00000  0.18444
      12     H     0.42307  0.42307  0.00000  0.15385
      13     H     0.41922  0.41922  0.00000  0.16156
      14     H     0.41717  0.41717  0.00000  0.16566
      15     H     0.42518  0.42518  0.00000  0.14964

   Total alpha = 21.00000, Total beta = 21.00000, Total charge =  0.00000
