  ==> Input File <==

--------------------------------------------------------------------------
set {
	reference rhf
	basis cc-pvtz
}

set_num_threads( 4 )
memory 2 gb

molecule MOL {
0 1

H	 -2.123894	 -0.667238	 -0.609809
O	 -2.041679	 -0.058866	 0.103463
C	 -0.959304	 0.780994	 -0.094939
C	 0.354905	 0.037902	 -0.006215
H	 -0.985899	 1.279578	 -1.057596
H	 -0.969809	 1.529522	 0.682889
F	 1.234210	 0.715590	 0.710271
F	 0.181619	 -1.129756	 0.577003
F	 0.890916	 -0.176522	 -1.183792

	symmetry c1
}
set optking {
	frozen_dihedral = ("
		7 4 3 5
	")
}

ee = optimize('scf')
oeprop('DIPOLE', 'QUADRUPOLE', 'MULLIKEN_CHARGES')
f=open( 'psi4out.xyz', 'w' )
f.write( "9  " )
f.write( str(ee) + "\n" )
f.write( MOL.save_string_xyz() )
f.close()
--------------------------------------------------------------------------

    Molecular point group: c1
  Charge       = 0
  Multiplicity = 1
  Basis Set: CC-PVTZ
  Basis Set:
  @DF-RHF Final Energy:  -450.83984750538536
    Total Energy =                       -450.8398475053855918
    Molecular point group: c1
  Basis Set: CC-PVTZ
  Basis Set:
  Basis Set: CC-PVTZ
  Basis Set:
  @DF-RHF Final Energy:  -450.84037273497398
    Total Energy =                       -450.8403727349737551
  Basis Set: CC-PVTZ
  Basis Set:
  Basis Set: CC-PVTZ
  Basis Set:
  @DF-RHF Final Energy:  -450.84077196649861
    Total Energy =                       -450.8407719664988917
  Basis Set: CC-PVTZ
  Basis Set:
  Basis Set: CC-PVTZ
  Basis Set:
  @DF-RHF Final Energy:  -450.84079193648347
    Total Energy =                       -450.8407919364838108
  Basis Set: CC-PVTZ
  Basis Set:
  Basis Set: CC-PVTZ
  Basis Set:
  @DF-RHF Final Energy:  -450.84079411364422
    Total Energy =                       -450.8407941136443924
  Basis Set: CC-PVTZ
  Basis Set:
  Charge       = 0
  Multiplicity = 1
  Basis Set: CC-PVTZ
  Basis Set:

    Orbital Energies (a.u.)
    -----------------------

    Doubly Occupied:

       1A    -26.337238     2A    -26.336559     3A    -26.335317
       4A    -20.582512     5A    -11.494225     6A    -11.310251
       7A     -1.746838     8A     -1.642334     9A     -1.641713
      10A     -1.405362    11A     -1.045160    12A     -0.929369
      13A     -0.836338    14A     -0.833519    15A     -0.810406
      16A     -0.732127    17A     -0.718925    18A     -0.703639
      19A     -0.669658    20A     -0.664547    21A     -0.647062
      22A     -0.631048    23A     -0.613652    24A     -0.531020
      25A     -0.483921

  @DF-RHF Final Energy:  -450.84079426925445

   => Energetics <=

    Nuclear Repulsion Energy =            276.6212730949790171
    One-Electron Energy =               -1175.5586547018551755
    Two-Electron Energy =                 448.0965873376215995
    DFT Exchange-Correlation Energy =       0.0000000000000000
    Empirical Dispersion Energy =           0.0000000000000000
    PCM Polarization Energy =               0.0000000000000000
    EFP Energy =                            0.0000000000000000
    Total Energy =                       -450.8407942692546158
    Molecular point group: c1
  Basis Set: CC-PVTZ
  Basis Set:

  -Total Gradient:
     Atom            X                  Y                   Z
    ------   -----------------  -----------------  -----------------
       1        0.000000966915    -0.000006263801     0.000004624415
       2       -0.000011581785    -0.000003006489     0.000000506757
       3        0.001698256088     0.003344469949     0.002672458249
       4        0.001050025306     0.001272418157    -0.003913704989
       5       -0.001657537207    -0.003152194206    -0.001516598740
       6        0.000004468668    -0.000001574521     0.000004063068
       7       -0.001040596944    -0.001468447277     0.002756721932
       8       -0.000020901456     0.000028253637    -0.000001814467
       9       -0.000023099585    -0.000013655447    -0.000006256222

  **** Optimization is complete! (in 6 steps) ****
    Final optimized geometry and variables:
    Molecular point group: c1

    Geometry (in Angstrom), charge = 0, multiplicity = 1:

    H           -2.169421887999    -0.644500810166    -0.635433770996
    O           -2.075450283120    -0.037275641381     0.076847518834
    C           -0.973041035123     0.781620618581    -0.106325992684
    C            0.360040732193     0.031627140389    -0.007440784720
    H           -0.998084384843     1.263351200561    -1.076271512508
    H           -0.994041814798     1.528899781482     0.669907450960
    F            1.235694243460     0.720581640044     0.695153059204
    F            0.231621623118    -1.140124034673     0.567225255216
    F            0.887975023826    -0.176681859518    -1.199952975490

  Mulliken Charges: (a.u.)
   Center  Symbol    Alpha    Beta     Spin     Total
       1     H     0.38975  0.38975  0.00000  0.22051
       2     O     4.18481  4.18481  0.00000 -0.36962
       3     C     3.00369  3.00369  0.00000 -0.00738
       4     C     2.68260  2.68260  0.00000  0.63481
       5     H     0.46070  0.46070  0.00000  0.07861
       6     H     0.44681  0.44681  0.00000  0.10638
       7     F     4.61141  4.61141  0.00000 -0.22283
       8     F     4.60627  4.60627  0.00000 -0.21253
       9     F     4.61397  4.61397  0.00000 -0.22794

   Total alpha = 25.00000, Total beta = 25.00000, Total charge =  0.00000
