                              Psi4 1.0.54 Driver

  ==> Input File <==

--------------------------------------------------------------------------
set {
	reference rhf
	basis cc-pvtz
}

set_num_threads( 4 )
memory 2 gb

molecule MOL {
0 1

O	 0.623971	 1.347241	 -0.000777
C	 0.485107	 0.171416	 -0.000134
C	 1.606966	 -0.836201	 0.000174
O	 -0.695554	 -0.422406	 0.000602
C	 2.988788	 -0.202529	 -0.000115
H	 1.465110	 -1.474645	 -0.864821
H	 1.465209	 -1.474077	 0.865596
H	 3.131767	 0.419673	 -0.873407
H	 3.750876	 -0.972315	 0.000098
H	 3.131883	 0.420264	 0.872742
C	 -0.757381	 -1.775380	 -0.428265
C	 -2.197143	 -2.223716	 -0.335712
H	 -0.113902	 -2.374688	 0.200314
H	 -0.385178	 -1.842179	 -1.440849
H	 -2.559066	 -2.151521	 0.682214
H	 -2.280119	 -3.255374	 -0.656692
H	 -2.831887	 -1.616043	 -0.968330

	symmetry c1
}
set optking {
	frozen_dihedral = ("
		11 4 2 3
	")
}

ee,wfn = optimize('scf', return_wfn=True)
oeprop( wfn, 'DIPOLE', 'QUADRUPOLE', 'MULLIKEN_CHARGES')
f=open( 'psi4out.xyz', 'w' )
f.write( "17  " )
f.write( str(ee) + "\n" )
f.write( MOL.save_string_xyz() )
f.close()
--------------------------------------------------------------------------

    Molecular point group: c1
  Charge       = 0
  Multiplicity = 1
  Basis Set: CC-PVTZ
  Basis Set:
  @DF-RHF Final Energy:  -345.01637715794351
    Total Energy =                       -345.0163771579431682
    Molecular point group: c1
  Basis Set: CC-PVTZ
  Basis Set:
  Basis Set: CC-PVTZ
  Basis Set:
  @DF-RHF Final Energy:  -345.00371694768165
    Total Energy =                       -345.0037169476817667
  Basis Set: CC-PVTZ
  Basis Set:
  Basis Set: CC-PVTZ
  Basis Set:
  @DF-RHF Final Energy:  -345.02347526769796
    Total Energy =                       -345.0234752676977905
  Basis Set: CC-PVTZ
  Basis Set:
  Basis Set: CC-PVTZ
  Basis Set:
  @DF-RHF Final Energy:  -345.02563524524481
    Total Energy =                       -345.0256352452448709
  Basis Set: CC-PVTZ
  Basis Set:
  @DF-RHF Final Energy:  -345.02227078264980
    Total Energy =                       -345.0222707826498549
  @DF-RHF Final Energy:  -345.02616121145343
    Total Energy =                       -345.0261612114534842
  Basis Set: CC-PVTZ
  Basis Set:
  @DF-RHF Final Energy:  -345.02631136397991
    Total Energy =                       -345.0263113639799144
  Basis Set: CC-PVTZ
  Basis Set:
  Basis Set: CC-PVTZ
  Basis Set:
  @DF-RHF Final Energy:  -345.02632044062318
    Total Energy =                       -345.0263204406231807
  Basis Set: CC-PVTZ
  Basis Set:
  Basis Set: CC-PVTZ
  Basis Set:
  @DF-RHF Final Energy:  -345.02632960547868
    Total Energy =                       -345.0263296054789635
  Basis Set: CC-PVTZ
  Basis Set:
  Charge       = 0
  Multiplicity = 1
  Basis Set: CC-PVTZ
  Basis Set:

    Orbital Energies (a.u.)
    -----------------------

    Doubly Occupied:

       1A    -20.590702     2A    -20.527952     3A    -11.364980
       4A    -11.296971     5A    -11.244971     6A    -11.225372
       7A    -11.217647     8A     -1.463977     9A     -1.366584
      10A     -1.064203    11A     -1.047378    12A     -0.901902
      13A     -0.881477    14A     -0.771752    15A     -0.706613
      16A     -0.697518    17A     -0.658331    18A     -0.635457
      19A     -0.593079    20A     -0.574896    21A     -0.560923
      22A     -0.538495    23A     -0.525788    24A     -0.521485
      25A     -0.508571    26A     -0.498384    27A     -0.448043
      28A     -0.433395

  @DF-RHF Final Energy:  -345.02633001731044

   => Energetics <=

    Nuclear Repulsion Energy =            315.8917832658257794
    One-Electron Energy =               -1096.1025309490589734
    Two-Electron Energy =                 435.1844176659230925
    DFT Exchange-Correlation Energy =       0.0000000000000000
    Empirical Dispersion Energy =           0.0000000000000000
    PCM Polarization Energy =               0.0000000000000000
    EFP Energy =                            0.0000000000000000
    Total Energy =                       -345.0263300173101015
    Molecular point group: c1
  Basis Set: CC-PVTZ
  Basis Set:

  -Total Gradient:
     Atom            X                  Y                   Z
    ------   -----------------  -----------------  -----------------
       1       -0.000024803408     0.000060452095     0.000005369498
       2       -0.000300950470     0.000655037593    -0.002795394933
       3        0.000075764010    -0.000224700016     0.001330015123
       4        0.000522129628    -0.001173384585     0.002797537658
       5       -0.000008145892    -0.000000053112     0.000006980264
       6        0.000000213620    -0.000005475447    -0.000012134065
       7        0.000017772514    -0.000012636069    -0.000000578039
       8       -0.000003605179     0.000012927337    -0.000011497520
       9        0.000010277125    -0.000012775503     0.000003177583
      10        0.000002773883    -0.000000990386     0.000002837432
      11       -0.000297713225     0.000633434615    -0.001365827596
      12       -0.000005939550     0.000035160412     0.000031554315
      13       -0.000000010531     0.000024209081     0.000007142262
      14        0.000016071732     0.000014806519     0.000004599891
      15       -0.000011322306    -0.000002871359     0.000002172411
      16        0.000014216823    -0.000007709757    -0.000003909024
      17       -0.000006728777     0.000004568581    -0.000002045259

  **** Optimization is complete! (in 10 steps) ****
    Final optimized geometry and variables:
    Molecular point group: c1

    Geometry (in Angstrom), charge = 0, multiplicity = 1:

    O            0.293616656760     1.787175787154     0.420627817600
    C            0.244813231091     0.633157173652     0.183404824900
    C            1.477188559385    -0.226665939062    -0.001859165000
    O           -0.941915212057     0.031928790573     0.131203798392
    C            2.770063599630     0.562428694312     0.135386016509
    H            1.428431087015    -0.708251804177    -0.972129650557
    H            1.434823357159    -1.024623215726     0.732295789022
    H            2.823870400313     1.349764385879    -0.603791505553
    H            3.620566274979    -0.095070203017     0.001068252155
    H            2.841406430120     1.023401335315     1.110565276049
    C           -1.149323954194    -1.228054725402    -0.473182006547
    C           -2.626640409372    -1.536671895284    -0.386144865699
    H           -0.574463987601    -1.991345995346     0.035942787676
    H           -0.830728162326    -1.195039686884    -1.508303797241
    H           -2.947432452356    -1.569924719539     0.646943358916
    H           -2.829916624169    -2.498053342741    -0.843261408697
    H           -3.204080035134    -0.779003865854    -0.899090626184

  Mulliken Charges: (a.u.)
   Center  Symbol    Alpha    Beta     Spin     Total
       1     O     4.18125  4.18125  0.00000 -0.36249
       2     C     2.81529  2.81529  0.00000  0.36942
       3     C     3.12248  3.12248  0.00000 -0.24495
       4     O     4.13003  4.13003  0.00000 -0.26006
       5     C     3.13894  3.13894  0.00000 -0.27789
       6     H     0.44209  0.44209  0.00000  0.11582
       7     H     0.43916  0.43916  0.00000  0.12167
       8     H     0.44632  0.44632  0.00000  0.10737
       9     H     0.45158  0.45158  0.00000  0.09684
      10     H     0.44481  0.44481  0.00000  0.11038
      11     C     2.98653  2.98653  0.00000  0.02695
      12     C     3.13235  3.13235  0.00000 -0.26470
      13     H     0.45972  0.45972  0.00000  0.08055
      14     H     0.45895  0.45895  0.00000  0.08210
      15     H     0.44794  0.44794  0.00000  0.10412
      16     H     0.45652  0.45652  0.00000  0.08696
      17     H     0.44604  0.44604  0.00000  0.10791

   Total alpha = 28.00000, Total beta = 28.00000, Total charge = -0.00000

*** Psi4 exiting successfully. Buy a developer a beer!
