  ==> Input File <==

--------------------------------------------------------------------------
set {
	reference rhf
	basis 6-31G*
}

set_num_threads( 1 )
memory 2 gb

molecule MOL {
0 1

H	 2.591676	 2.013956	 0.335017
O	 3.341076	 1.666752	 -0.126416
C	 3.569581	 0.339145	 0.272707
C	 2.539767	 -0.640285	 -0.279495
H	 4.553106	 0.084646	 -0.100901
H	 3.608576	 0.269204	 1.359154
C	 1.115811	 -0.397273	 0.226630
H	 2.556196	 -0.582511	 -1.364741
H	 2.852081	 -1.648031	 -0.010655
C	 0.165100	 -1.550654	 -0.106057
H	 0.735030	 0.523324	 -0.206812
H	 1.135475	 -0.250856	 1.306684
C	 -1.254208	 -1.396819	 0.452728
H	 0.115139	 -1.673100	 -1.186500
H	 0.590385	 -2.473099	 0.283723
C	 -2.063460	 -0.245935	 -0.151470
H	 -1.792035	 -2.326754	 0.280161
H	 -1.203566	 -1.273759	 1.533528
C	 -3.504968	 -0.198148	 0.359614
H	 -2.070979	 -0.343059	 -1.236192
H	 -1.582232	 0.704558	 0.065985
C	 -4.313115	 0.953607	 -0.237062
H	 -3.998725	 -1.140574	 0.132621
H	 -3.499473	 -0.110893	 1.444161
H	 -4.364879	 0.876746	 -1.319484
H	 -5.330109	 0.959310	 0.142840
H	 -3.865058	 1.913593	 0.003843

	symmetry c1
}
set optking {
	frozen_dihedral = ("
		14 10 7 4,
		14 10 13 16,
		8 4 3 2,
		10 13 16 20,
		20 16 19 22,
		4 3 2 1
	")
}

ee = energy('scf')
oeprop('DIPOLE', 'QUADRUPOLE', 'MULLIKEN_CHARGES')
f=open( 'psi4out.xyz', 'w' )
f.write( "27  " )
f.write( str(ee) + "\n" )
f.write( MOL.save_string_xyz() )
f.close()
--------------------------------------------------------------------------

    Molecular point group: c1

    Geometry (in Angstrom), charge = 0, multiplicity = 1:

       Center              X                  Y                   Z               Mass
    ------------   -----------------  -----------------  -----------------  -----------------
           H          2.595865904457     2.132978791720     0.289656660805     1.007825032070
           O          3.345265904457     1.785774791720    -0.171776339195    15.994914619560
           C          3.573770904457     0.458167791720     0.227346660805    12.000000000000
           C          2.543956904457    -0.521262208280    -0.324855339195    12.000000000000
           H          4.557295904457     0.203668791720    -0.146261339195     1.007825032070
           H          3.612765904457     0.388226791720     1.313793660805     1.007825032070
           C          1.120000904457    -0.278250208280     0.181269660805    12.000000000000
           H          2.560385904457    -0.463488208280    -1.410101339195     1.007825032070
           H          2.856270904457    -1.529008208280    -0.056015339195     1.007825032070
           C          0.169289904457    -1.431631208280    -0.151417339195    12.000000000000
           H          0.739219904457     0.642346791720    -0.252172339195     1.007825032070
           H          1.139664904457    -0.131833208280     1.261323660805     1.007825032070
           C         -1.250018095543    -1.277796208280     0.407367660805    12.000000000000
           H          0.119328904457    -1.554077208280    -1.231860339195     1.007825032070
           H          0.594574904457    -2.354076208280     0.238362660805     1.007825032070
           C         -2.059270095543    -0.126912208280    -0.196830339195    12.000000000000
           H         -1.787845095543    -2.207731208280     0.234800660805     1.007825032070
           H         -1.199376095543    -1.154736208280     1.488167660805     1.007825032070
           C         -3.500778095543    -0.079125208280     0.314253660805    12.000000000000
           H         -2.066789095543    -0.224036208280    -1.281552339195     1.007825032070
           H         -1.578042095543     0.823580791720     0.020624660805     1.007825032070
           C         -4.308925095543     1.072629791720    -0.282422339195    12.000000000000
           H         -3.994535095543    -1.021551208280     0.087260660805     1.007825032070
           H         -3.495283095543     0.008129791720     1.398800660805     1.007825032070
           H         -4.360689095543     0.995768791720    -1.364844339195     1.007825032070
           H         -5.325919095543     1.078332791720     0.097479660805     1.007825032070
           H         -3.860868095543     2.032615791720    -0.041517339195     1.007825032070

  Charge       = 0
  Multiplicity = 1
  Basis Set: 6-31G*
  Basis Set:

    Orbital Energies (a.u.)
    -----------------------

    Doubly Occupied:

       1A    -20.552196     2A    -11.266989     3A    -11.219617
       4A    -11.217504     5A    -11.216166     6A    -11.215821
       7A    -11.215001     8A    -11.214381     9A    -11.209427
      10A     -1.358899    11A     -1.095339    12A     -1.061608
      13A     -1.011545    14A     -0.948427    15A     -0.888106
      16A     -0.820103    17A     -0.801621    18A     -0.778329
      19A     -0.694546    20A     -0.650798    21A     -0.636393
      22A     -0.615902    23A     -0.601295    24A     -0.583566
      25A     -0.579312    26A     -0.552416    27A     -0.541660
      28A     -0.530446    29A     -0.505445    30A     -0.494917
      31A     -0.485107    32A     -0.475091    33A     -0.469052
      34A     -0.461283    35A     -0.450998    36A     -0.441992
      37A     -0.422816

  @DF-RHF Final Energy:  -388.28139462494477

   => Energetics <=

    Nuclear Repulsion Energy =            459.2865938640729269
    One-Electron Energy =               -1436.5677473662622106
    Two-Electron Energy =                 588.9997588772446306
    DFT Exchange-Correlation Energy =       0.0000000000000000
    Empirical Dispersion Energy =           0.0000000000000000
    PCM Polarization Energy =               0.0000000000000000
    EFP Energy =                            0.0000000000000000
    Total Energy =                       -388.2813946249445962

  Mulliken Charges: (a.u.)
   Center  Symbol    Alpha    Beta     Spin     Total
       1     H     0.28004  0.28004  0.00000  0.43991
       2     O     4.37105  4.37105  0.00000 -0.74209
       3     C     2.99757  2.99757  0.00000  0.00486
       4     C     3.16079  3.16079  0.00000 -0.32158
       5     H     0.41469  0.41469  0.00000  0.17062
       6     H     0.43195  0.43195  0.00000  0.13609
       7     C     3.16478  3.16478  0.00000 -0.32957
       8     H     0.41454  0.41454  0.00000  0.17092
       9     H     0.42435  0.42435  0.00000  0.15130
      10     C     3.15228  3.15228  0.00000 -0.30456
      11     H     0.41960  0.41960  0.00000  0.16081
      12     H     0.42675  0.42675  0.00000  0.14651
      13     C     3.15354  3.15354  0.00000 -0.30709
      14     H     0.42175  0.42175  0.00000  0.15649
      15     H     0.42154  0.42154  0.00000  0.15693
      16     C     3.15243  3.15243  0.00000 -0.30486
      17     H     0.42124  0.42124  0.00000  0.15751
      18     H     0.42432  0.42432  0.00000  0.15135
      19     C     3.15124  3.15124  0.00000 -0.30248
      20     H     0.42366  0.42366  0.00000  0.15268
      21     H     0.42364  0.42364  0.00000  0.15271
      22     C     3.23917  3.23917  0.00000 -0.47835
      23     H     0.42286  0.42286  0.00000  0.15427
      24     H     0.42333  0.42333  0.00000  0.15333
      25     H     0.42145  0.42145  0.00000  0.15709
      26     H     0.41922  0.41922  0.00000  0.16157
      27     H     0.42220  0.42220  0.00000  0.15561

   Total alpha = 37.00000, Total beta = 37.00000, Total charge = -0.00000
