                              Psi4 1.0.54 Driver

  ==> Input File <==

--------------------------------------------------------------------------
set {
	reference rhf
	basis cc-pvtz
}

set_num_threads( 4 )
memory 2 gb

molecule MOL {
0 1

O	 0.942918	 -1.770150	 -1.900678
C	 0.210301	 -1.499173	 -1.012014
C	 -1.205174	 -1.984688	 -0.884103
O	 0.550743	 -0.719877	 0.000412
H	 -1.318222	 -2.533963	 0.041598
H	 -1.447776	 -2.616023	 -1.723206
H	 -1.877488	 -1.137277	 -0.847713
C	 1.863204	 -0.194033	 0.000410
H	 2.031502	 0.409177	 -0.879273
H	 2.524488	 -1.045142	 0.000793
H	 2.031291	 0.409823	 0.879686

	symmetry c1
}
set optking {
	frozen_dihedral = ("
		2 4 8 9
	")
}

ee,wfn = optimize('scf', return_wfn=True)
oeprop( wfn, 'DIPOLE', 'QUADRUPOLE', 'MULLIKEN_CHARGES')
f=open( 'psi4out.xyz', 'w' )
f.write( "11  " )
f.write( str(ee) + "\n" )
f.write( MOL.save_string_xyz() )
f.close()
--------------------------------------------------------------------------

    Molecular point group: c1
  Charge       = 0
  Multiplicity = 1
  Basis Set: CC-PVTZ
  Basis Set:
  @DF-RHF Final Energy:  -266.93766854997443
    Total Energy =                       -266.9376685499744326
    Molecular point group: c1
  Basis Set: CC-PVTZ
  Basis Set:
  Basis Set: CC-PVTZ
  Basis Set:
  @DF-RHF Final Energy:  -266.93888495505843
    Total Energy =                       -266.9388849550585974
  Basis Set: CC-PVTZ
  Basis Set:
  Basis Set: CC-PVTZ
  Basis Set:
  @DF-RHF Final Energy:  -266.93912606521769
    Total Energy =                       -266.9391260652175788
  Basis Set: CC-PVTZ
  Basis Set:
  Basis Set: CC-PVTZ
  Basis Set:
  @DF-RHF Final Energy:  -266.93862101978436
    Total Energy =                       -266.9386210197846481
  Basis Set: CC-PVTZ
  Basis Set:
  Basis Set: CC-PVTZ
  Basis Set:
  @DF-RHF Final Energy:  -266.93923550116267
    Total Energy =                       -266.9392355011627274
  Basis Set: CC-PVTZ
  Basis Set:
  Basis Set: CC-PVTZ
  Basis Set:
  @DF-RHF Final Energy:  -266.93923900125367
    Total Energy =                       -266.9392390012536680
  Basis Set: CC-PVTZ
  Basis Set:
  Charge       = 0
  Multiplicity = 1
  Basis Set: CC-PVTZ
  Basis Set:

    Orbital Energies (a.u.)
    -----------------------

    Doubly Occupied:

       1A    -20.598820     2A    -20.535295     3A    -11.368824
       4A    -11.279986     5A    -11.233252     6A     -1.474377
       7A     -1.367667     8A     -1.037039     9A     -0.953728
      10A     -0.780233    11A     -0.698202    12A     -0.684658
      13A     -0.681209    14A     -0.595632    15A     -0.593720
      16A     -0.561888    17A     -0.526558    18A     -0.525793
      19A     -0.462399    20A     -0.445998

  @DF-RHF Final Energy:  -266.93923922312530

   => Energetics <=

    Nuclear Repulsion Energy =            183.7188440020640314
    One-Electron Energy =                -728.5056084227937845
    Two-Electron Energy =                 277.8475251976046820
    DFT Exchange-Correlation Energy =       0.0000000000000000
    Empirical Dispersion Energy =           0.0000000000000000
    PCM Polarization Energy =               0.0000000000000000
    EFP Energy =                            0.0000000000000000
    Total Energy =                       -266.9392392231250142
    Molecular point group: c1
  Basis Set: CC-PVTZ
  Basis Set:

  -Total Gradient:
     Atom            X                  Y                   Z
    ------   -----------------  -----------------  -----------------
       1       -0.000018346624     0.000004309662     0.000015151885
       2       -0.000030651006     0.000045091134     0.000020537584
       3        0.000007537771    -0.000005423482    -0.000015956368
       4        0.000020464769    -0.000098635232    -0.000021100214
       5        0.000001043455     0.000007798546    -0.000010745870
       6        0.000000649499     0.000008025334     0.000009756460
       7        0.000006930748    -0.000010037584     0.000000785478
       8       -0.000016574953     0.000095758736     0.000029069513
       9        0.000028500746    -0.000040208874    -0.000010628976
      10       -0.000000606761     0.000007875454     0.000000162620
      11        0.000001052357    -0.000014553696    -0.000017032111

  **** Optimization is complete! (in 7 steps) ****
    Final optimized geometry and variables:
    Molecular point group: c1

    Geometry (in Angstrom), charge = 0, multiplicity = 1:

    O            0.486207993720    -0.574397465117    -1.122416406961
    C           -0.269797500844    -0.288102465697    -0.258471030785
    C           -1.681687088829    -0.788053470498    -0.148902964710
    O            0.037870312688     0.523472866027     0.738930643518
    H           -1.808920722801    -1.313103852664     0.788917366985
    H           -1.897348754533    -1.445286938507    -0.975366565082
    H           -2.364945491169     0.051316248648    -0.151092906925
    C            1.343067727592     1.066788204457     0.753299027510
    H            1.523668013011     1.647670426536    -0.138830585849
    H            2.081423715877     0.281432137502     0.818016065657
    H            1.392935547725     1.697722298098     1.625683886213

  Mulliken Charges: (a.u.)
   Center  Symbol    Alpha    Beta     Spin     Total
       1     O     4.19665  4.19665  0.00000 -0.39331
       2     C     2.80186  2.80186  0.00000  0.39628
       3     C     3.13788  3.13788  0.00000 -0.27577
       4     O     4.14770  4.14770  0.00000 -0.29541
       5     H     0.44542  0.44542  0.00000  0.10915
       6     H     0.43786  0.43786  0.00000  0.12428
       7     H     0.44544  0.44544  0.00000  0.10911
       8     C     3.03351  3.03351  0.00000 -0.06703
       9     H     0.45400  0.45400  0.00000  0.09201
      10     H     0.45417  0.45417  0.00000  0.09166
      11     H     0.44549  0.44549  0.00000  0.10902

   Total alpha = 20.00000, Total beta = 20.00000, Total charge =  0.00000

*** Psi4 exiting successfully. Buy a developer a beer!
