  ==> Input File <==

--------------------------------------------------------------------------
set {
	reference rhf
	basis cc-pvtz
}

set_num_threads( 4 )
memory 2 gb

molecule MOL {
0 1

H	 0.199270	 -2.439761	 -0.584503
C	 -0.650669	 -1.769629	 -0.725836
N	 -0.537714	 -0.645117	 0.000000
O	 -1.552925	 -2.045926	 -1.451310
C	 -1.522613	 0.412524	 0.000000
H	 0.270416	 -0.546333	 0.563162
H	 -2.150256	 0.356137	 -0.880771
H	 -1.005621	 1.357208	 0.000000
H	 -2.150256	 0.356137	 0.880771

	symmetry c1
}
set optking {
	frozen_dihedral = ("
		6 3 5 7
	")
}

ee = optimize('scf')
oeprop('DIPOLE', 'QUADRUPOLE', 'MULLIKEN_CHARGES')
f=open( 'psi4out.xyz', 'w' )
f.write( "9  " )
f.write( str(ee) + "\n" )
f.write( MOL.save_string_xyz() )
f.close()
--------------------------------------------------------------------------

    Molecular point group: c1
  Charge       = 0
  Multiplicity = 1
  Basis Set: CC-PVTZ
  Basis Set:
  @DF-RHF Final Energy:  -208.04326846598249
    Total Energy =                       -208.0432684659824645
    Molecular point group: c1
  Basis Set: CC-PVTZ
  Basis Set:
  Basis Set: CC-PVTZ
  Basis Set:
  @DF-RHF Final Energy:  -208.04354147003480
    Total Energy =                       -208.0435414700348247
  Basis Set: CC-PVTZ
  Basis Set:
  Basis Set: CC-PVTZ
  Basis Set:
  @DF-RHF Final Energy:  -208.04356064478725
    Total Energy =                       -208.0435606447872487
  Basis Set: CC-PVTZ
  Basis Set:
  Basis Set: CC-PVTZ
  Basis Set:
  @DF-RHF Final Energy:  -208.04360754441996
    Total Energy =                       -208.0436075444199560
  Basis Set: CC-PVTZ
  Basis Set:
  Basis Set: CC-PVTZ
  Basis Set:
  @DF-RHF Final Energy:  -208.04362471297617
    Total Energy =                       -208.0436247129760545
  Basis Set: CC-PVTZ
  Basis Set:
  Basis Set: CC-PVTZ
  Basis Set:
  @DF-RHF Final Energy:  -208.04363853931315
    Total Energy =                       -208.0436385393130934
  Basis Set: CC-PVTZ
  Basis Set:
  Charge       = 0
  Multiplicity = 1
  Basis Set: CC-PVTZ
  Basis Set:

    Orbital Energies (a.u.)
    -----------------------

    Doubly Occupied:

       1A    -20.516613     2A    -15.584816     3A    -11.337127
       4A    -11.259616     5A     -1.393984     6A     -1.239734
       7A     -0.970082     8A     -0.808404     9A     -0.748781
      10A     -0.646340    11A     -0.629598    12A     -0.596528
      13A     -0.556762    14A     -0.540413    15A     -0.428585
      16A     -0.396376

  @DF-RHF Final Energy:  -208.04363954616349

   => Energetics <=

    Nuclear Repulsion Energy =            122.7793208919550949
    One-Electron Energy =                -526.3384057890153827
    Two-Electron Energy =                 195.5154453508968686
    DFT Exchange-Correlation Energy =       0.0000000000000000
    Empirical Dispersion Energy =           0.0000000000000000
    PCM Polarization Energy =               0.0000000000000000
    EFP Energy =                            0.0000000000000000
    Total Energy =                       -208.0436395461634334
    Molecular point group: c1
  Basis Set: CC-PVTZ
  Basis Set:

  -Total Gradient:
     Atom            X                  Y                   Z
    ------   -----------------  -----------------  -----------------
       1       -0.000002676085    -0.000009420192    -0.000006391978
       2        0.000056482696     0.000024975211     0.000045261006
       3        0.000084349660     0.000105013591    -0.000094134520
       4       -0.000029549800    -0.000000470326    -0.000018405628
       5        0.000086665491     0.000090666496    -0.000103980624
       6       -0.000075852396    -0.000110827829     0.000103285967
       7       -0.000130215437    -0.000063405603     0.000047977019
       8       -0.000007194551    -0.000030195384     0.000013547813
       9        0.000017990419    -0.000006335963     0.000012840945

  **** Optimization is complete! (in 7 steps) ****
    Final optimized geometry and variables:
    Molecular point group: c1

    Geometry (in Angstrom), charge = 0, multiplicity = 1:

    H            1.264043434674    -1.451616385458    -0.055079789876
    C            0.415537751908    -0.776174724985    -0.180054689857
    N            0.575220164565     0.378395803292     0.487927380978
    O           -0.523353062203    -1.062529593095    -0.853000531212
    C           -0.435237390973     1.411318783200     0.528118099384
    H            1.365259402818     0.458098330479     1.079091761656
    H           -1.014152150282     1.370079416195    -0.380052508544
    H            0.040349450804     2.379694126969     0.600392394120
    H           -1.107257473299     1.286744891331     1.369620255096

  Mulliken Charges: (a.u.)
   Center  Symbol    Alpha    Beta     Spin     Total
       1     H     0.46339  0.46339  0.00000  0.07322
       2     C     2.88083  2.88083  0.00000  0.23834
       3     N     3.60694  3.60694  0.00000 -0.21388
       4     O     4.21424  4.21424  0.00000 -0.42848
       5     C     3.07925  3.07925  0.00000 -0.15850
       6     H     0.41030  0.41030  0.00000  0.17939
       7     H     0.43586  0.43586  0.00000  0.12828
       8     H     0.45374  0.45374  0.00000  0.09252
       9     H     0.45545  0.45545  0.00000  0.08911

   Total alpha = 16.00000, Total beta = 16.00000, Total charge = -0.00000
