                              Psi4 1.0.54 Driver

  ==> Input File <==

--------------------------------------------------------------------------
set {
	reference rhf
	basis cc-pvtz
}

set_num_threads( 4 )
memory 2 gb

molecule MOL {
0 1

H	 2.274717	 -0.758476	 -0.578022
C	 1.948180	 -0.217873	 0.320185
C	 0.692262	 0.592428	 0.156232
O	 2.576101	 -0.296708	 1.318751
C	 -0.554654	 -0.292621	 0.086567
H	 0.791858	 1.203694	 -0.731051
H	 0.617379	 1.254358	 1.016534
C	 -1.846385	 0.513195	 -0.016346
H	 -0.473986	 -0.956115	 -0.769708
H	 -0.597929	 -0.929215	 0.966651
C	 -3.089953	 -0.365049	 -0.098564
H	 -1.798267	 1.154820	 -0.891143
H	 -1.925398	 1.173265	 0.842889
H	 -3.055079	 -1.012299	 -0.968245
H	 -3.988403	 0.236438	 -0.170014
H	 -3.183055	 -0.995885	 0.779079

	symmetry c1
}
set optking {
	frozen_dihedral = ("
		4 2 3 6
	")
}

ee,wfn = optimize('scf', return_wfn=True)
oeprop( wfn, 'DIPOLE', 'QUADRUPOLE', 'MULLIKEN_CHARGES')
f=open( 'psi4out.xyz', 'w' )
f.write( "16  " )
f.write( str(ee) + "\n" )
f.write( MOL.save_string_xyz() )
f.close()
--------------------------------------------------------------------------

    Molecular point group: c1
  Charge       = 0
  Multiplicity = 1
  Basis Set: CC-PVTZ
  Basis Set:
  @DF-RHF Final Energy:  -270.11866557709004
    Total Energy =                       -270.1186655770899279
    Molecular point group: c1
  Basis Set: CC-PVTZ
  Basis Set:
  Basis Set: CC-PVTZ
  Basis Set:
  @DF-RHF Final Energy:  -270.11850496623481
    Total Energy =                       -270.1185049662348092
  Basis Set: CC-PVTZ
  Basis Set:
  Basis Set: CC-PVTZ
  Basis Set:
  @DF-RHF Final Energy:  -270.11855545784556
    Total Energy =                       -270.1185554578454457
  Basis Set: CC-PVTZ
  Basis Set:
  Basis Set: CC-PVTZ
  Basis Set:
  @DF-RHF Final Energy:  -270.11907965237754
    Total Energy =                       -270.1190796523772519
  Basis Set: CC-PVTZ
  Basis Set:
  Basis Set: CC-PVTZ
  Basis Set:
  @DF-RHF Final Energy:  -270.11909135199710
    Total Energy =                       -270.1190913519973265
  Basis Set: CC-PVTZ
  Basis Set:
  Basis Set: CC-PVTZ
  Basis Set:
  @DF-RHF Final Energy:  -270.11909850160663
    Total Energy =                       -270.1190985016065724
  Basis Set: CC-PVTZ
  Basis Set:
  Basis Set: CC-PVTZ
  Basis Set:
  @DF-RHF Final Energy:  -270.11910496320240
    Total Energy =                       -270.1191049632025170
  Basis Set: CC-PVTZ
  Basis Set:
  Charge       = 0
  Multiplicity = 1
  Basis Set: CC-PVTZ
  Basis Set:

    Orbital Energies (a.u.)
    -----------------------

    Doubly Occupied:

       1A    -20.552084     2A    -11.321206     3A    -11.234717
       4A    -11.233811     5A    -11.227245     6A    -11.216398
       7A     -1.406834     8A     -1.097534     9A     -1.019848
      10A     -0.906748    11A     -0.812648    12A     -0.792614
      13A     -0.682968    14A     -0.648261    15A     -0.633582
      16A     -0.604407    17A     -0.580719    18A     -0.553607
      19A     -0.528919    20A     -0.512554    21A     -0.488170
      22A     -0.481482    23A     -0.480100    24A     -0.411321

  @DF-RHF Final Energy:  -270.11910508974694

   => Energetics <=

    Nuclear Repulsion Energy =            229.8094612481776835
    One-Electron Energy =                -821.0015794959122104
    Two-Electron Energy =                 321.0730131579875888
    DFT Exchange-Correlation Energy =       0.0000000000000000
    Empirical Dispersion Energy =           0.0000000000000000
    PCM Polarization Energy =               0.0000000000000000
    EFP Energy =                            0.0000000000000000
    Total Energy =                       -270.1191050897468813
    Molecular point group: c1
  Basis Set: CC-PVTZ
  Basis Set:

  -Total Gradient:
     Atom            X                  Y                   Z
    ------   -----------------  -----------------  -----------------
       1       -0.000003975736     0.000004405453     0.000001333996
       2        0.000495762754     0.000687782697    -0.000396416606
       3        0.000178952822     0.000344614570     0.000537179869
       4       -0.000391943931    -0.000549254075     0.000220564197
       5       -0.000002447976    -0.000000496658    -0.000001536131
       6       -0.000291388913    -0.000483216920    -0.000349488851
       7        0.000007168123     0.000004156913     0.000000688365
       8        0.000010383509    -0.000009239362    -0.000024010625
       9       -0.000001234150     0.000010340734    -0.000004273342
      10       -0.000005476076    -0.000006671647     0.000001167925
      11       -0.000002480881    -0.000001743263     0.000018492569
      12        0.000000193199    -0.000000071892    -0.000006679941
      13        0.000007445273     0.000002529509    -0.000003688363
      14        0.000001150189     0.000005397275    -0.000001290895
      15        0.000001287345    -0.000000269952     0.000006810933
      16       -0.000003395549    -0.000008263380     0.000001146903

  **** Optimization is complete! (in 8 steps) ****
    Final optimized geometry and variables:
    Molecular point group: c1

    Geometry (in Angstrom), charge = 0, multiplicity = 1:

    H            2.233544064407    -0.797929243485    -0.891785793230
    C            1.982319752714    -0.231841904549     0.014747044745
    C            0.743260413338     0.614161133597    -0.081359846098
    O            2.655018263979    -0.334454963419     0.981628341841
    C           -0.513127360815    -0.258249093515    -0.179931179708
    H            0.821624449304     1.229858046022    -0.973861800518
    H            0.698326554765     1.261828203825     0.784183220609
    C           -1.789354095103     0.561744294112    -0.345015909281
    H           -0.415390477361    -0.943130733637    -1.018584882003
    H           -0.588975658333    -0.871842767379     0.712633056827
    C           -3.043544628541    -0.301567524720    -0.424801860997
    H           -1.710736709026     1.170038049272    -1.241664031568
    H           -1.878854921620     1.253700337588     0.487134115025
    H           -2.998117032281    -0.981841816791    -1.268626766582
    H           -3.930969633930     0.309401720825    -0.540236051789
    H           -3.166316559204    -0.897200887981     0.473300051924

  Mulliken Charges: (a.u.)
   Center  Symbol    Alpha    Beta     Spin     Total
       1     H     0.46395  0.46395  0.00000  0.07209
       2     C     2.91035  2.91035  0.00000  0.17931
       3     C     3.07620  3.07620  0.00000 -0.15240
       4     O     4.16536  4.16536  0.00000 -0.33072
       5     C     3.10143  3.10143  0.00000 -0.20286
       6     H     0.45108  0.45108  0.00000  0.09784
       7     H     0.44281  0.44281  0.00000  0.11437
       8     C     3.08476  3.08476  0.00000 -0.16952
       9     H     0.45201  0.45201  0.00000  0.09598
      10     H     0.44442  0.44442  0.00000  0.11116
      11     C     3.14912  3.14912  0.00000 -0.29825
      12     H     0.45340  0.45340  0.00000  0.09320
      13     H     0.45079  0.45079  0.00000  0.09843
      14     H     0.45457  0.45457  0.00000  0.09086
      15     H     0.44675  0.44675  0.00000  0.10650
      16     H     0.45300  0.45300  0.00000  0.09400

   Total alpha = 24.00000, Total beta = 24.00000, Total charge =  0.00000

*** Psi4 exiting successfully. Buy a developer a beer!
