  ==> Input File <==

--------------------------------------------------------------------------
set {
	reference rhf
	basis 6-31G*
}

set_num_threads( 4 )
memory 2 gb

molecule MOL {
0 1

O	 1.442235	 3.586782	 -1.649916
C	 0.655181	 3.600151	 -2.546089
C	 -0.617099	 2.772210	 -2.518630
C	 0.877823	 4.451809	 -3.779080
C	 -0.786743	 1.934669	 -1.254517
H	 -1.459211	 3.451090	 -2.646524
H	 -0.621134	 2.137943	 -3.404119
C	 -2.078456	 1.115421	 -1.262976
H	 -0.770508	 2.589543	 -0.389066
H	 0.068360	 1.274737	 -1.147579
C	 -2.259874	 0.272531	 0.000494
H	 -2.931653	 1.783090	 -1.373974
H	 -2.088922	 0.462112	 -2.134265
C	 -3.549786	 -0.549746	 -0.000374
H	 -2.250276	 0.924664	 0.872073
H	 -1.407964	 -0.395908	 0.112009
C	 -4.809590	 0.315458	 -0.000369
H	 -3.560515	 -1.202009	 -0.871156
H	 -3.561123	 -1.202955	 0.869711
H	 -4.844746	 0.956611	 -0.876632
H	 -5.706986	 -0.295590	 -0.001609
H	 -4.845960	 0.954827	 0.877144
H	 0.059896	 5.154868	 -3.906835
H	 1.808424	 4.993962	 -3.684809
H	 0.909488	 3.829355	 -4.668565

	symmetry c1
}
set optking {
	frozen_dihedral = ("
		15 11 14 18
	")
}

ee = optimize('scf')
oeprop('DIPOLE', 'QUADRUPOLE', 'MULLIKEN_CHARGES')
f=open( 'psi4out.xyz', 'w' )
f.write( "25  " )
f.write( str(ee) + "\n" )
f.write( MOL.save_string_xyz() )
f.close()
--------------------------------------------------------------------------

    Molecular point group: c1
  Charge       = 0
  Multiplicity = 1
  Basis Set: 6-31G*
  Basis Set:
  @DF-RHF Final Energy:  -387.13429708873537
    Total Energy =                       -387.1342970887358206
    Molecular point group: c1
  Basis Set: 6-31G*
  Basis Set:
  Basis Set: 6-31G*
  Basis Set:
  @DF-RHF Final Energy:  -387.13456065054453
    Total Energy =                       -387.1345606505446995
  Basis Set: 6-31G*
  Basis Set:
  Basis Set: 6-31G*
  Basis Set:
  @DF-RHF Final Energy:  -387.13492041823861
    Total Energy =                       -387.1349204182383801
  Basis Set: 6-31G*
  Basis Set:
  Basis Set: 6-31G*
  Basis Set:
  @DF-RHF Final Energy:  -387.13493700621439
    Total Energy =                       -387.1349370062142725
  Basis Set: 6-31G*
  Basis Set:
  Basis Set: 6-31G*
  Basis Set:
  @DF-RHF Final Energy:  -387.13489062279717
    Total Energy =                       -387.1348906227971156
  Basis Set: 6-31G*
  Basis Set:
  Basis Set: 6-31G*
  Basis Set:
  @DF-RHF Final Energy:  -387.13493849798425
    Total Energy =                       -387.1349384979840806
  Basis Set: 6-31G*
  Basis Set:
  Charge       = 0
  Multiplicity = 1
  Basis Set: 6-31G*
  Basis Set:

    Orbital Energies (a.u.)
    -----------------------

    Doubly Occupied:

       1A    -20.550467     2A    -11.326307     3A    -11.231884
       4A    -11.228351     5A    -11.216950     6A    -11.216270
       7A    -11.215753     8A    -11.213805     9A    -11.208902
      10A     -1.395771    11A     -1.093591    12A     -1.055706
      13A     -1.013591    14A     -0.967236    15A     -0.895626
      16A     -0.823149    17A     -0.779294    18A     -0.729560
      19A     -0.658356    20A     -0.652794    21A     -0.625656
      22A     -0.620570    23A     -0.608872    24A     -0.590440
      25A     -0.566731    26A     -0.556719    27A     -0.542137
      28A     -0.521174    29A     -0.513657    30A     -0.493538
      31A     -0.488451    32A     -0.476586    33A     -0.461547
      34A     -0.456118    35A     -0.451045    36A     -0.399484

  @DF-RHF Final Energy:  -387.13493897913656

   => Energetics <=

    Nuclear Repulsion Energy =            442.4352697450307232
    One-Electron Energy =               -1401.4482402716816978
    Two-Electron Energy =                 571.8780315475141833
    DFT Exchange-Correlation Energy =       0.0000000000000000
    Empirical Dispersion Energy =           0.0000000000000000
    PCM Polarization Energy =               0.0000000000000000
    EFP Energy =                            0.0000000000000000
    Total Energy =                       -387.1349389791367912
    Molecular point group: c1
  Basis Set: 6-31G*
  Basis Set:

  -Total Gradient:
     Atom            X                  Y                   Z
    ------   -----------------  -----------------  -----------------
       1        0.000002716997    -0.000002220340     0.000000105312
       2       -0.000005176568     0.000005439375     0.000003522811
       3       -0.000004412215     0.000007142415     0.000004631785
       4        0.000000639891    -0.000001084625    -0.000001056494
       5       -0.000005751015     0.000012273545     0.000000940057
       6       -0.000001665768     0.000001276378    -0.000001858392
       7        0.000000252770    -0.000000991388     0.000003463515
       8        0.000009305575    -0.000011808042    -0.000010642704
       9        0.000005277788    -0.000002534257     0.000003462217
      10       -0.000002268731    -0.000001950516    -0.000007971170
      11        0.000022115694    -0.000033416624     0.000032462194
      12        0.000004980378     0.000001431278    -0.000010021991
      13        0.000002156111    -0.000006831702    -0.000000009476
      14        0.000019808971    -0.000026502020     0.000035042936
      15       -0.000017438542     0.000030653970    -0.000023654583
      16       -0.000005097250    -0.000001636462     0.000001499581
      17       -0.000001252607    -0.000003831022    -0.000000683717
      18       -0.000020605298     0.000040424505    -0.000024614261
      19       -0.000003114421    -0.000006652111    -0.000000961316
      20       -0.000002062516     0.000000181714    -0.000002959073
      21       -0.000002640677     0.000001630646     0.000004466323
      22        0.000003776575    -0.000000003417    -0.000004886136
      23        0.000000180415    -0.000000456594     0.000000121565
      24        0.000000023374    -0.000000526577     0.000000251399
      25        0.000000251066    -0.000000008131    -0.000000650381

  **** Optimization is complete! (in 7 steps) ****
    Final optimized geometry and variables:
    Molecular point group: c1

    Geometry (in Angstrom), charge = 0, multiplicity = 1:

    O            2.723763504350     1.592063235523    -0.219477432249
    C            1.928253333378     1.637975824572    -1.107056073951
    C            0.632590734956     0.847271173733    -1.074729956854
    C            2.163052940226     2.495890909947    -2.333438403635
    C            0.451786011992     0.001231494767     0.182140923504
    H           -0.190433288117     1.551946375961    -1.186380760625
    H            0.600712794154     0.223088156572    -1.966802079177
    C           -0.862828230180    -0.781527781661     0.178205675734
    H            0.494630653046     0.646189835259     1.054185897312
    H            1.289187499485    -0.683161722599     0.273742645645
    C           -1.048568898923    -1.625943296567     1.441763127150
    H           -1.692053176160    -0.086293116942     0.071062761104
    H           -0.895341790873    -1.432699890757    -0.694578447056
    C           -2.309365580994    -2.497857432290     1.449622319839
    H           -1.059373467955    -0.972110242930     2.312228281702
    H           -0.180872283353    -2.271560158212     1.558871762162
    C           -3.623469240083    -1.715206544558     1.481776742833
    H           -2.299786013974    -3.151937187906     0.579970017511
    H           -2.271109345196    -3.149753404096     2.318836273275
    H           -3.764623311734    -1.120178542347     0.585510260487
    H           -4.471288081272    -2.388743280114     1.561134507370
    H           -3.655960351383    -1.042478041421     2.334644361327
    H            1.364929632692     3.224012126038    -2.445056855212
    H            3.110143867849     3.009456649456    -2.243504078439
    H            2.167088201415     1.882381339028    -3.229672841531

  Mulliken Charges: (a.u.)
   Center  Symbol    Alpha    Beta     Spin     Total
       1     O     4.26114  4.26114  0.00000 -0.52229
       2     C     2.73573  2.73573  0.00000  0.52853
       3     C     3.21075  3.21075  0.00000 -0.42150
       4     C     3.28665  3.28665  0.00000 -0.57330
       5     C     3.14779  3.14779  0.00000 -0.29558
       6     H     0.41009  0.41009  0.00000  0.17983
       7     H     0.41003  0.41003  0.00000  0.17994
       8     C     3.15557  3.15557  0.00000 -0.31113
       9     H     0.41214  0.41214  0.00000  0.17573
      10     H     0.41222  0.41222  0.00000  0.17555
      11     C     3.15265  3.15265  0.00000 -0.30529
      12     H     0.42282  0.42282  0.00000  0.15436
      13     H     0.42534  0.42534  0.00000  0.14931
      14     C     3.15257  3.15257  0.00000 -0.30514
      15     H     0.42275  0.42275  0.00000  0.15450
      16     H     0.42065  0.42065  0.00000  0.15871
      17     C     3.24115  3.24115  0.00000 -0.48229
      18     H     0.42373  0.42373  0.00000  0.15254
      19     H     0.42033  0.42033  0.00000  0.15935
      20     H     0.42099  0.42099  0.00000  0.15801
      21     H     0.41914  0.41914  0.00000  0.16172
      22     H     0.42188  0.42188  0.00000  0.15624
      23     H     0.40874  0.40874  0.00000  0.18252
      24     H     0.39645  0.39645  0.00000  0.20709
      25     H     0.40870  0.40870  0.00000  0.18259

   Total alpha = 36.00000, Total beta = 36.00000, Total charge =  0.00000
