  ==> Input File <==

--------------------------------------------------------------------------
set {
	reference rhf
	basis cc-pvtz
}

set_num_threads( 4 )
memory 2 gb

molecule MOL {
0 1

H	 2.512615	 -0.756144	 -0.993428
N	 2.433987	 -0.362316	 -0.080024
C	 1.263552	 0.494993	 0.021953
H	 3.270820	 0.155300	 0.090625
C	 -0.016533	 -0.325589	 -0.026925
H	 1.280915	 1.180773	 -0.818522
H	 1.263064	 1.106893	 0.925038
C	 -1.280353	 0.525521	 0.047747
H	 -0.016686	 -0.912532	 -0.939714
H	 -0.014099	 -1.037598	 0.796369
C	 -2.560681	 -0.301323	 -0.007747
H	 -1.279957	 1.241025	 -0.770189
H	 -1.270445	 1.110526	 0.963468
H	 -2.617064	 -0.872870	 -0.928010
H	 -3.439525	 0.331102	 0.043462
H	 -2.609427	 -1.002736	 0.818585

	symmetry c1
}
set optking {
	frozen_dihedral = ("
		1 2 3 6
	")
}

ee = optimize('scf')
oeprop('DIPOLE', 'QUADRUPOLE', 'MULLIKEN_CHARGES')
f=open( 'psi4out.xyz', 'w' )
f.write( "16  " )
f.write( str(ee) + "\n" )
f.write( MOL.save_string_xyz() )
f.close()
--------------------------------------------------------------------------

    Molecular point group: c1
  Charge       = 0
  Multiplicity = 1
  Basis Set: CC-PVTZ
  Basis Set:
  @DF-RHF Final Energy:  -212.39828197949106
    Total Energy =                       -212.3982819794908892
    Molecular point group: c1
  Basis Set: CC-PVTZ
  Basis Set:
  Basis Set: CC-PVTZ
  Basis Set:
  @DF-RHF Final Energy:  -212.39992664818647
    Total Energy =                       -212.3999266481865789
  Basis Set: CC-PVTZ
  Basis Set:
  Basis Set: CC-PVTZ
  Basis Set:
  @DF-RHF Final Energy:  -212.40016441842883
    Total Energy =                       -212.4001644184288580
  Basis Set: CC-PVTZ
  Basis Set:
  Charge       = 0
  Multiplicity = 1
  Basis Set: CC-PVTZ
  Basis Set:

    Orbital Energies (a.u.)
    -----------------------

    Doubly Occupied:

       1A    -15.527022     2A    -11.238315     3A    -11.212339
       4A    -11.206555     5A    -11.205401     6A     -1.178390
       7A     -1.060329     8A     -0.959565     9A     -0.843769
      10A     -0.791172    11A     -0.668237    12A     -0.634984
      13A     -0.607831    14A     -0.576634    15A     -0.562775
      16A     -0.526887    17A     -0.498508    18A     -0.470135
      19A     -0.465724    20A     -0.462150    21A     -0.384562

  @DF-RHF Final Energy:  -212.40016841805817

   => Energetics <=

    Nuclear Repulsion Energy =            186.4918388017509869
    One-Electron Energy =                -655.6214472377012044
    Two-Electron Energy =                 256.7294400178919886
    DFT Exchange-Correlation Energy =       0.0000000000000000
    Empirical Dispersion Energy =           0.0000000000000000
    PCM Polarization Energy =               0.0000000000000000
    EFP Energy =                            0.0000000000000000
    Total Energy =                       -212.4001684180582288
    Molecular point group: c1
  Basis Set: CC-PVTZ
  Basis Set:

  -Total Gradient:
     Atom            X                  Y                   Z
    ------   -----------------  -----------------  -----------------
       1        0.000645751288     0.000922765402    -0.000334342605
       2       -0.001096980087    -0.001361484089     0.000271914666
       3        0.000818498271     0.001214449330     0.000566009897
       4       -0.000017212335     0.000047730947     0.000017681820
       5        0.000053679209    -0.000100317746     0.000016186237
       6       -0.000472491923    -0.000664752241    -0.000645105841
       7        0.000035258559    -0.000074743721     0.000007497838
       8        0.000025801950     0.000038797039     0.000071572676
       9        0.000069346087    -0.000002993390     0.000001814295
      10       -0.000072718695    -0.000009679251    -0.000002955060
      11        0.000012774001    -0.000017130751     0.000016156508
      12        0.000035479779    -0.000029689330     0.000004958553
      13       -0.000038697710     0.000035591135     0.000010463687
      14        0.000004928790     0.000007548712    -0.000000365597
      15        0.000006561307     0.000002927447     0.000000118399
      16       -0.000009978497    -0.000009019492    -0.000001605473

  **** Optimization is complete! (in 4 steps) ****
    Final optimized geometry and variables:
    Molecular point group: c1

    Geometry (in Angstrom), charge = 0, multiplicity = 1:

    H            2.546349528934    -0.753131805273    -0.954982006687
    N            2.434442101981    -0.368558626026    -0.040041069392
    C            1.263171329300     0.493192658567     0.019942241373
    H            3.265410308314     0.147616794921     0.157685240311
    C           -0.017867050582    -0.327797798809    -0.015376635738
    H            1.236671713946     1.226614629818    -0.786856387755
    H            1.306433421198     1.048968238404     0.950213448758
    C           -1.280972649186     0.524366870285     0.058603121263
    H           -0.034712508337    -0.918646248220    -0.929134051840
    H            0.002199661448    -1.036121000742     0.806370266986
    C           -2.561733342057    -0.302988395604     0.025789630719
    H           -1.289956695769     1.232017045602    -0.766085494778
    H           -1.261234598575     1.118377815671     0.968579436875
    H           -2.629545760070    -0.882207942617    -0.889116526818
    H           -3.440144558494     0.329675613218     0.082250169005
    H           -2.599644571729    -0.997524328947     0.858208625082

  Mulliken Charges: (a.u.)
   Center  Symbol    Alpha    Beta     Spin     Total
       1     H     0.43112  0.43112  0.00000  0.13776
       2     N     3.68888  3.68888  0.00000 -0.37777
       3     C     3.03001  3.03001  0.00000 -0.06002
       4     H     0.42978  0.42978  0.00000  0.14043
       5     C     3.07678  3.07678  0.00000 -0.15357
       6     H     0.46778  0.46778  0.00000  0.06444
       7     H     0.45661  0.45661  0.00000  0.08678
       8     C     3.08874  3.08874  0.00000 -0.17747
       9     H     0.46041  0.46041  0.00000  0.07918
      10     H     0.45018  0.45018  0.00000  0.09964
      11     C     3.14932  3.14932  0.00000 -0.29865
      12     H     0.45668  0.45668  0.00000  0.08664
      13     H     0.45521  0.45521  0.00000  0.08959
      14     H     0.45541  0.45541  0.00000  0.08919
      15     H     0.44889  0.44889  0.00000  0.10221
      16     H     0.45419  0.45419  0.00000  0.09162

   Total alpha = 21.00000, Total beta = 21.00000, Total charge =  0.00000
