  ==> Input File <==

--------------------------------------------------------------------------
set {
	reference rhf
	basis 6-31G*
}

set_num_threads( 4 )
memory 2 gb

molecule MOL {
0 1

H	 3.924946	 -0.867373	 -2.102034
C	 3.343624	 -1.027448	 -1.199709
C	 2.064524	 -0.191585	 -1.213813
H	 3.118525	 -2.088385	 -1.136698
H	 3.973469	 -0.772584	 -0.352014
C	 1.217350	 -0.386724	 0.039429
H	 1.461959	 -0.443034	 -2.081037
H	 2.323727	 0.861368	 -1.311260
N	 0.000003	 0.397874	 -0.023260
H	 0.936594	 -1.433227	 0.122927
H	 1.816794	 -0.155726	 0.926382
C	 -1.217365	 -0.386708	 0.039277
H	 -0.000031	 1.072115	 0.718656
C	 -2.452633	 0.504241	 -0.042481
H	 -1.215291	 -1.074557	 -0.802042
H	 -1.269739	 -1.003477	 0.942735
C	 -3.758029	 -0.289423	 -0.010781
H	 -2.394220	 1.093569	 -0.952170
H	 -2.440793	 1.210787	 0.785871
H	 -3.816659	 -0.981993	 -0.845726
H	 -4.617837	 0.370165	 -0.069296
H	 -3.847478	 -0.867502	 0.904682

	symmetry c1
}
set optking {
	frozen_dihedral = ("
		10 6 9 12
	")
}

ee = optimize('scf')
oeprop('DIPOLE', 'QUADRUPOLE', 'MULLIKEN_CHARGES')
f=open( 'psi4out.xyz', 'w' )
f.write( "22  " )
f.write( str(ee) + "\n" )
f.write( MOL.save_string_xyz() )
f.close()
--------------------------------------------------------------------------

    Molecular point group: c1
  Charge       = 0
  Multiplicity = 1
  Basis Set: 6-31G*
  Basis Set:
  @DF-RHF Final Energy:  -290.37813964431092
    Total Energy =                       -290.3781396443113181
    Molecular point group: c1
  Basis Set: 6-31G*
  Basis Set:
  Basis Set: 6-31G*
  Basis Set:
  @DF-RHF Final Energy:  -290.37866122836994
    Total Energy =                       -290.3786612283702198
  Basis Set: 6-31G*
  Basis Set:
  Basis Set: 6-31G*
  Basis Set:
  @DF-RHF Final Energy:  -290.37882774338374
    Total Energy =                       -290.3788277433833969
  Basis Set: 6-31G*
  Basis Set:
  Basis Set: 6-31G*
  Basis Set:
  @DF-RHF Final Energy:  -290.37882960128888
    Total Energy =                       -290.3788296012888281
  Basis Set: 6-31G*
  Basis Set:
  Basis Set: 6-31G*
  Basis Set:
  @DF-RHF Final Energy:  -290.37883144877185
    Total Energy =                       -290.3788314487719617
  Basis Set: 6-31G*
  Basis Set:
  Charge       = 0
  Multiplicity = 1
  Basis Set: 6-31G*
  Basis Set:

    Orbital Energies (a.u.)
    -----------------------

    Doubly Occupied:

       1A    -15.531312     2A    -11.238978     3A    -11.238391
       4A    -11.213402     5A    -11.209820     6A    -11.206181
       7A    -11.205560     8A     -1.200912     9A     -1.056521
      10A     -1.024365    11A     -0.927535    12A     -0.870369
      13A     -0.804782    14A     -0.793363    15A     -0.668133
      16A     -0.632505    17A     -0.613448    18A     -0.598063
      19A     -0.580247    20A     -0.557970    21A     -0.539756
      22A     -0.520625    23A     -0.506556    24A     -0.488428
      25A     -0.482226    26A     -0.470722    27A     -0.465231
      28A     -0.451714    29A     -0.352826

  @DF-RHF Final Energy:  -290.37883158776964

   => Energetics <=

    Nuclear Repulsion Energy =            313.9719810406356260
    One-Electron Energy =               -1013.8017427113654776
    Two-Electron Energy =                 409.4509300829603262
    DFT Exchange-Correlation Energy =       0.0000000000000000
    Empirical Dispersion Energy =           0.0000000000000000
    PCM Polarization Energy =               0.0000000000000000
    EFP Energy =                            0.0000000000000000
    Total Energy =                       -290.3788315877694686
    Molecular point group: c1
  Basis Set: 6-31G*
  Basis Set:

  -Total Gradient:
     Atom            X                  Y                   Z
    ------   -----------------  -----------------  -----------------
       1        0.000004444648    -0.000000365542     0.000002516276
       2        0.000000307971     0.000012953655     0.000000689495
       3       -0.000017553577    -0.000013103437    -0.000001701824
       4       -0.000004221806     0.000001211892    -0.000003239823
       5       -0.000000961622    -0.000002734229    -0.000000638634
       6        0.000013225942     0.000004148687     0.000262380820
       7        0.000000349524    -0.000000374410     0.000001418623
       8        0.000003023303     0.000000665162    -0.000001223172
       9       -0.000003694338     0.000007246206    -0.000236020609
      10       -0.000009860409    -0.000010405826    -0.000162950418
      11        0.000001878989     0.000004790773     0.000007080229
      12        0.000015540101    -0.000005544881     0.000112007014
      13        0.000004334589     0.000006540164     0.000013500169
      14       -0.000001831799    -0.000000166372     0.000001622330
      15       -0.000005022773    -0.000003664037     0.000003013218
      16       -0.000002219907     0.000003955880    -0.000001735527
      17       -0.000003157907     0.000001617815     0.000000858380
      18        0.000003740099    -0.000004890579     0.000002347193
      19        0.000001227819    -0.000001531762    -0.000000091209
      20        0.000000454307    -0.000000305653    -0.000000566462
      21       -0.000000229387     0.000000035995     0.000000047263
      22        0.000000226227    -0.000000079501     0.000000686670

  **** Optimization is complete! (in 6 steps) ****
    Final optimized geometry and variables:
    Molecular point group: c1

    Geometry (in Angstrom), charge = 0, multiplicity = 1:

    H            4.080391810732    -0.606539414022    -1.760064796565
    C            3.491541630492    -0.791788012326    -0.867310541855
    C            2.197273493287     0.020494358182    -0.879956614586
    H            3.288349239583    -1.858626993813    -0.823163757780
    H            4.108508713845    -0.539450645947    -0.008751871454
    C            1.339050308325    -0.210592055474     0.361966159663
    H            1.608861183782    -0.228273877532    -1.758941690072
    H            2.423855910551     1.080515512567    -0.954912176644
    N            0.106098972531     0.568516151995     0.322945914314
    H            1.105711535243    -1.270068435768     0.443676354600
    H            1.918074268558     0.037265941930     1.250001417073
    C           -1.124295701374    -0.194791168344     0.397734778085
    H            0.113353987050     1.269606566059     1.035343422223
    C           -2.341902223011     0.716971069004     0.289959936821
    H           -1.132666951983    -0.899579472471    -0.429060800376
    H           -1.194967058716    -0.790539831700     1.313635164700
    C           -3.662375872062    -0.050658951873     0.336100536047
    H           -2.268713202564     1.283337527313    -0.633196595443
    H           -2.319030620037     1.442803992053     1.101340754958
    H           -3.731375002081    -0.762544923094    -0.481614265332
    H           -4.509096307404     0.623634397622     0.257678130244
    H           -3.766316552774    -0.603877118808     1.265294042373

  Mulliken Charges: (a.u.)
   Center  Symbol    Alpha    Beta     Spin     Total
       1     H     0.41808  0.41808  0.00000  0.16383
       2     C     3.24643  3.24643  0.00000 -0.49286
       3     C     3.14020  3.14020  0.00000 -0.28040
       4     H     0.42291  0.42291  0.00000  0.15419
       5     H     0.42327  0.42327  0.00000  0.15346
       6     C     3.05715  3.05715  0.00000 -0.11430
       7     H     0.42081  0.42081  0.00000  0.15839
       8     H     0.42132  0.42132  0.00000  0.15736
       9     N     3.86086  3.86086  0.00000 -0.72173
      10     H     0.42470  0.42470  0.00000  0.15059
      11     H     0.42728  0.42728  0.00000  0.14545
      12     C     3.04758  3.04758  0.00000 -0.09516
      13     H     0.33219  0.33219  0.00000  0.33563
      14     C     3.15614  3.15614  0.00000 -0.31228
      15     H     0.42172  0.42172  0.00000  0.15657
      16     H     0.43612  0.43612  0.00000  0.12777
      17     C     3.24327  3.24327  0.00000 -0.48654
      18     H     0.41300  0.41300  0.00000  0.17400
      19     H     0.42682  0.42682  0.00000  0.14635
      20     H     0.42076  0.42076  0.00000  0.15847
      21     H     0.41770  0.41770  0.00000  0.16461
      22     H     0.42170  0.42170  0.00000  0.15660

   Total alpha = 29.00000, Total beta = 29.00000, Total charge =  0.00000
