  ==> Input File <==

--------------------------------------------------------------------------
set {
	reference rhf
	basis cc-pvtz
}

set_num_threads( 4 )
memory 2 gb

molecule MOL {
0 1

O	 -0.247712	 1.201569	 0.736302
C	 -0.423706	 0.083258	 0.392374
C	 -1.758850	 -0.602757	 0.343083
O	 0.550743	 -0.719877	 0.000412
H	 -1.957879	 -0.937437	 -0.666759
H	 -2.527712	 0.079412	 0.667167
H	 -1.741562	 -1.476530	 0.981565
C	 1.863204	 -0.194033	 0.000410
H	 2.031502	 0.409177	 -0.879273
H	 2.524488	 -1.045142	 0.000793
H	 2.031291	 0.409823	 0.879686

	symmetry c1
}
set optking {
	frozen_dihedral = ("
		2 4 8 9
	")
}

ee = optimize('scf')
oeprop('DIPOLE', 'QUADRUPOLE', 'MULLIKEN_CHARGES')
f=open( 'psi4out.xyz', 'w' )
f.write( "11  " )
f.write( str(ee) + "\n" )
f.write( MOL.save_string_xyz() )
f.close()
--------------------------------------------------------------------------

    Molecular point group: c1
  Charge       = 0
  Multiplicity = 1
  Basis Set: CC-PVTZ
  Basis Set:
  @DF-RHF Final Energy:  -266.93862222930284
    Total Energy =                       -266.9386222293028368
    Molecular point group: c1
  Basis Set: CC-PVTZ
  Basis Set:
  Basis Set: CC-PVTZ
  Basis Set:
  @DF-RHF Final Energy:  -266.93866867669931
    Total Energy =                       -266.9386686766996490
  Basis Set: CC-PVTZ
  Basis Set:
  Basis Set: CC-PVTZ
  Basis Set:
  @DF-RHF Final Energy:  -266.93854486106142
    Total Energy =                       -266.9385448610612457
  Basis Set: CC-PVTZ
  Basis Set:
  Basis Set: CC-PVTZ
  Basis Set:
  @DF-RHF Final Energy:  -266.93870482675163
    Total Energy =                       -266.9387048267516320
  Basis Set: CC-PVTZ
  Basis Set:
  Charge       = 0
  Multiplicity = 1
  Basis Set: CC-PVTZ
  Basis Set:

    Orbital Energies (a.u.)
    -----------------------

    Doubly Occupied:

       1A    -20.598542     2A    -20.535075     3A    -11.369115
       4A    -11.279681     5A    -11.233095     6A     -1.473661
       7A     -1.367802     8A     -1.037021     9A     -0.953909
      10A     -0.779854    11A     -0.698459    12A     -0.684066
      13A     -0.681146    14A     -0.596553    15A     -0.593187
      16A     -0.561759    17A     -0.528075    18A     -0.524004
      19A     -0.461686    20A     -0.445790

  @DF-RHF Final Energy:  -266.93871031292133

   => Energetics <=

    Nuclear Repulsion Energy =            183.5831096480896463
    One-Electron Energy =                -728.2386814444862466
    Two-Electron Energy =                 277.7168614834751565
    DFT Exchange-Correlation Energy =       0.0000000000000000
    Empirical Dispersion Energy =           0.0000000000000000
    PCM Polarization Energy =               0.0000000000000000
    EFP Energy =                            0.0000000000000000
    Total Energy =                       -266.9387103129213870
    Molecular point group: c1
  Basis Set: CC-PVTZ
  Basis Set:

  -Total Gradient:
     Atom            X                  Y                   Z
    ------   -----------------  -----------------  -----------------
       1        0.000058023410    -0.000046108169    -0.000041000813
       2        0.000100044212    -0.000379182857     0.001225432918
       3        0.000002536325    -0.000014604749    -0.000004782336
       4       -0.000072892814     0.000330912851    -0.001888607702
       5       -0.000008329393    -0.000003462528    -0.000001619158
       6        0.000009073443     0.000002125416    -0.000002722171
       7       -0.000005229188    -0.000008313824    -0.000005805042
       8       -0.000487499679     0.001277938356     0.001445928397
       9        0.000433008258    -0.001169607930    -0.000737789464
      10       -0.000011935026     0.000013805153    -0.000001936902
      11       -0.000016799551    -0.000003501716     0.000012902273

  **** Optimization is complete! (in 5 steps) ****
    Final optimized geometry and variables:
    Molecular point group: c1

    Geometry (in Angstrom), charge = 0, multiplicity = 1:

    O           -0.277997478825     1.255226271542     0.433381212173
    C           -0.444050045130     0.132939517890     0.097975948022
    C           -1.773643572424    -0.564547494834     0.057325946813
    O            0.533824252512    -0.666744824346    -0.293632402087
    H           -1.972471333231    -0.907234271320    -0.949882222232
    H           -2.547193494622     0.113546036170     0.378789607024
    H           -1.747442897253    -1.434075108514     0.701226016329
    C            1.852051645719    -0.154890064982    -0.280690800752
    H            2.024286376091     0.454065846993    -1.157163562509
    H            2.505659269258    -1.012179138310    -0.305013620267
    H            2.030641850634     0.429580726047     0.607112973963

  Mulliken Charges: (a.u.)
   Center  Symbol    Alpha    Beta     Spin     Total
       1     O     4.19690  4.19690  0.00000 -0.39380
       2     C     2.80080  2.80080  0.00000  0.39840
       3     C     3.13852  3.13852  0.00000 -0.27705
       4     O     4.14825  4.14825  0.00000 -0.29651
       5     H     0.44521  0.44521  0.00000  0.10959
       6     H     0.43789  0.43789  0.00000  0.12423
       7     H     0.44570  0.44570  0.00000  0.10860
       8     C     3.03361  3.03361  0.00000 -0.06721
       9     H     0.45641  0.45641  0.00000  0.08718
      10     H     0.44676  0.44676  0.00000  0.10647
      11     H     0.44995  0.44995  0.00000  0.10010

   Total alpha = 20.00000, Total beta = 20.00000, Total charge = -0.00000
