                              Psi4 1.0.54 Driver

  ==> Input File <==

--------------------------------------------------------------------------
set {
	reference rhf
	basis cc-pvtz
}

set_num_threads( 4 )
memory 2 gb

molecule MOL {
0 1

H	 -0.366580	 2.045936	 -0.305741
C	 0.351829	 1.335402	 0.083179
N	 -0.000018	 0.000080	 -0.334836
H	 1.327156	 1.599860	 -0.305475
H	 0.380566	 1.445403	 1.171445
C	 1.121940	 -0.696683	 -0.916309
C	 -0.611277	 -0.756079	 0.731385
H	 0.806365	 -1.665876	 -1.281235
H	 1.511722	 -0.134536	 -1.755503
H	 1.938866	 -0.852775	 -0.205438
H	 -1.488664	 -0.237518	 1.096717
H	 -0.924795	 -1.725322	 0.364780
H	 0.062946	 -0.916781	 1.577972

	symmetry c1
}
set optking {
	frozen_dihedral = ("
		6 3 2 1
	")
}

ee,wfn = optimize('scf', return_wfn=True)
oeprop( wfn, 'DIPOLE', 'QUADRUPOLE', 'MULLIKEN_CHARGES')
f=open( 'psi4out.xyz', 'w' )
f.write( "13  " )
f.write( str(ee) + "\n" )
f.write( MOL.save_string_xyz() )
f.close()
--------------------------------------------------------------------------

    Molecular point group: c1
  Charge       = 0
  Multiplicity = 1
  Basis Set: CC-PVTZ
  Basis Set:
  @DF-RHF Final Energy:  -173.32784776964067
    Total Energy =                       -173.3278477696407549
    Molecular point group: c1
  Basis Set: CC-PVTZ
  Basis Set:
  Basis Set: CC-PVTZ
  Basis Set:
  @DF-RHF Final Energy:  -173.09814846718643
    Total Energy =                       -173.0981484671863484
  Basis Set: CC-PVTZ
  Basis Set:
  Basis Set: CC-PVTZ
  Basis Set:
  @DF-RHF Final Energy:  -173.21889997602403
    Total Energy =                       -173.2188999760240904
  Basis Set: CC-PVTZ
  Basis Set:
  Basis Set: CC-PVTZ
  Basis Set:
  @DF-RHF Final Energy:  -173.31318726590249
    Total Energy =                       -173.3131872659024850
  Basis Set: CC-PVTZ
  Basis Set:
  @DF-RHF Final Energy:  -173.32356231104256
    Total Energy =                       -173.3235623110425934
  @DF-RHF Final Energy:  -173.32771891745494
    Total Energy =                       -173.3277189174550017
  Basis Set: CC-PVTZ
  Basis Set:
  @DF-RHF Final Energy:  -173.32860689477181
    Total Energy =                       -173.3286068947717808
  Basis Set: CC-PVTZ
  Basis Set:
  Basis Set: CC-PVTZ
  Basis Set:
  @DF-RHF Final Energy:  -173.32867023415150
    Total Energy =                       -173.3286702341514456
  Basis Set: CC-PVTZ
  Basis Set:
  Basis Set: CC-PVTZ
  Basis Set:
  @DF-RHF Final Energy:  -173.32867410875627
    Total Energy =                       -173.3286741087562746
  Basis Set: CC-PVTZ
  Basis Set:
  Charge       = 0
  Multiplicity = 1
  Basis Set: CC-PVTZ
  Basis Set:

    Orbital Energies (a.u.)
    -----------------------

    Doubly Occupied:

       1A    -15.534563     2A    -11.234195     3A    -11.233976
       4A    -11.233793     5A     -1.221724     6A     -0.952655
       7A     -0.952203     8A     -0.805764     9A     -0.639049
      10A     -0.630428    11A     -0.628313    12A     -0.550283
      13A     -0.544861    14A     -0.514610    15A     -0.503025
      16A     -0.501678    17A     -0.339884

  @DF-RHF Final Energy:  -173.32867439901898

   => Energetics <=

    Nuclear Repulsion Energy =            138.9399783310904866
    One-Electron Energy =                -508.4952973474164537
    Two-Electron Energy =                 196.2266446173069880
    DFT Exchange-Correlation Energy =       0.0000000000000000
    Empirical Dispersion Energy =           0.0000000000000000
    PCM Polarization Energy =               0.0000000000000000
    EFP Energy =                            0.0000000000000000
    Total Energy =                       -173.3286743990189507
    Molecular point group: c1
  Basis Set: CC-PVTZ
  Basis Set:

  -Total Gradient:
     Atom            X                  Y                   Z
    ------   -----------------  -----------------  -----------------
       1        0.002117757812    -0.000316664046    -0.003260740811
       2       -0.003019369098     0.000038378359     0.002985447714
       3        0.001713221960     0.001092557787     0.003014513362
       4        0.000010805850     0.000002069304    -0.000005421627
       5        0.000002459849    -0.000002812529     0.000011624280
       6       -0.000824648695    -0.000797068169    -0.002771370348
       7        0.000003347367    -0.000003290828     0.000007813968
       8       -0.000015585073    -0.000008278835     0.000002907804
       9       -0.000004510688     0.000002431665    -0.000002957288
      10        0.000012014953     0.000002333540     0.000005691112
      11        0.000006557598     0.000001702707    -0.000005181050
      12       -0.000003446450    -0.000015874330     0.000004789708
      13        0.000001394613     0.000004515374     0.000012883176

  **** Optimization is complete! (in 10 steps) ****
    Final optimized geometry and variables:
    Molecular point group: c1

    Geometry (in Angstrom), charge = 0, multiplicity = 1:

    H           -1.363117103216     1.295756889188    -1.110413766291
    C           -0.459964973477     1.221855326998    -0.513649097956
    N           -0.161021431455    -0.158884457211    -0.186709832834
    H            0.338566330982     1.649938465679    -1.107136231368
    H           -0.571017753067     1.845979882469     0.370752924114
    C            1.194771172032    -0.556489167889    -0.467716301412
    C           -0.616859797383    -0.546786748247     1.122175010690
    H            1.305620356448    -1.620792597608    -0.300090050897
    H            1.431514042377    -0.360202935098    -1.505342184945
    H            1.937175195530    -0.042606593260     0.151671758065
    H           -1.669903237849    -0.317057734259     1.229996370213
    H           -0.496676975869    -1.614556958127     1.257674318808
    H           -0.079240278608    -0.040766848862     1.930502759215

  Mulliken Charges: (a.u.)
   Center  Symbol    Alpha    Beta     Spin     Total
       1     H     0.45139  0.45139  0.00000  0.09723
       2     C     3.08577  3.08577  0.00000 -0.17154
       3     N     3.59827  3.59827  0.00000 -0.19654
       4     H     0.45899  0.45899  0.00000  0.08201
       5     H     0.46652  0.46652  0.00000  0.06696
       6     C     3.08907  3.08907  0.00000 -0.17813
       7     C     3.09002  3.09002  0.00000 -0.18004
       8     H     0.45372  0.45372  0.00000  0.09257
       9     H     0.45258  0.45258  0.00000  0.09484
      10     H     0.47387  0.47387  0.00000  0.05226
      11     H     0.45234  0.45234  0.00000  0.09531
      12     H     0.45384  0.45384  0.00000  0.09233
      13     H     0.47363  0.47363  0.00000  0.05274

   Total alpha = 17.00000, Total beta = 17.00000, Total charge = -0.00000

*** Psi4 exiting successfully. Buy a developer a beer!
