  ==> Input File <==

--------------------------------------------------------------------------
set {
	reference rhf
	basis 6-31G*
}

set_num_threads( 4 )
memory 2 gb

molecule MOL {
0 1

H	 -2.453823	 1.489712	 2.081964
C	 -2.048332	 0.481050	 2.130127
O	 -0.773905	 0.417866	 1.575887
H	 -1.968026	 0.185224	 3.167035
H	 -2.738923	 -0.192888	 1.624835
C	 -0.719715	 0.768384	 0.229244
C	 0.719720	 0.768376	 -0.229267
H	 -1.286865	 0.055162	 -0.370214
H	 -1.147112	 1.756115	 0.068854
O	 1.392611	 -0.295398	 0.366430
H	 0.750534	 0.687200	 -1.313918
H	 1.185043	 1.714359	 0.050526
C	 2.706965	 -0.449871	 -0.062409
H	 2.756559	 -0.644779	 -1.131878
H	 3.305899	 0.433456	 0.155466
H	 3.125548	 -1.294566	 0.467107

	symmetry c1
}
set optking {
	frozen_dihedral = ("
		3 6 7 11
	")
}

ee = optimize('scf')
oeprop('DIPOLE', 'QUADRUPOLE', 'MULLIKEN_CHARGES')
f=open( 'psi4out.xyz', 'w' )
f.write( "16  " )
f.write( str(ee) + "\n" )
f.write( MOL.save_string_xyz() )
f.close()
--------------------------------------------------------------------------

    Molecular point group: c1
  Charge       = 0
  Multiplicity = 1
  Basis Set: 6-31G*
  Basis Set:
  @DF-RHF Final Energy:  -306.97151737439265
    Total Energy =                       -306.9715173743925334
    Molecular point group: c1
  Basis Set: 6-31G*
  Basis Set:
  Basis Set: 6-31G*
  Basis Set:
  @DF-RHF Final Energy:  -306.97220615195533
    Total Energy =                       -306.9722061519553904
  Basis Set: 6-31G*
  Basis Set:
  Basis Set: 6-31G*
  Basis Set:
  @DF-RHF Final Energy:  -306.97249482640154
    Total Energy =                       -306.9724948264015438
  Basis Set: 6-31G*
  Basis Set:
  Charge       = 0
  Multiplicity = 1
  Basis Set: 6-31G*
  Basis Set:

    Orbital Energies (a.u.)
    -----------------------

    Doubly Occupied:

       1A    -20.552058     2A    -20.550817     3A    -11.270763
       4A    -11.270129     5A    -11.262754     6A    -11.262291
       7A     -1.388754     8A     -1.368067     9A     -1.028321
      10A     -0.933842    11A     -0.895245    12A     -0.820111
      13A     -0.687559    14A     -0.675852    15A     -0.657352
      16A     -0.641103    17A     -0.620518    18A     -0.592692
      19A     -0.566459    20A     -0.524839    21A     -0.507780
      22A     -0.471639    23A     -0.465564    24A     -0.415553
      25A     -0.408912

  @DF-RHF Final Energy:  -306.97249905079093

   => Energetics <=

    Nuclear Repulsion Energy =            259.9874548262596363
    One-Electron Energy =                -934.2419616607573971
    Two-Electron Energy =                 367.2820077837069448
    DFT Exchange-Correlation Energy =       0.0000000000000000
    Empirical Dispersion Energy =           0.0000000000000000
    PCM Polarization Energy =               0.0000000000000000
    EFP Energy =                            0.0000000000000000
    Total Energy =                       -306.9724990507908160
    Molecular point group: c1
  Basis Set: 6-31G*
  Basis Set:

  -Total Gradient:
     Atom            X                  Y                   Z
    ------   -----------------  -----------------  -----------------
       1       -0.000029044946    -0.000017387606     0.000018476690
       2        0.000015214180     0.000056925120     0.000015676949
       3       -0.000676694379    -0.006590754748    -0.001454802993
       4       -0.000032986298    -0.000013164673     0.000011735506
       5       -0.000015745757    -0.000012263723    -0.000001143509
       6        0.000906515711     0.006850303886     0.002015578339
       7       -0.000333571990     0.008104639190    -0.001517575307
       8        0.000024322086     0.000009901461     0.000009050799
       9       -0.000017671091    -0.000001042428     0.000133050232
      10       -0.000113816062     0.000281215173    -0.000069844928
      11        0.000162131976    -0.008552479838     0.000868185315
      12        0.000002380418    -0.000058134689     0.000013710510
      13        0.000074474066    -0.000071133419    -0.000053770122
      14        0.000037249529     0.000003692010    -0.000000316145
      15       -0.000016518674    -0.000008633452     0.000009375984
      16        0.000013761237     0.000018317736     0.000002612681

  **** Optimization is complete! (in 4 steps) ****
    Final optimized geometry and variables:
    Molecular point group: c1

    Geometry (in Angstrom), charge = 0, multiplicity = 1:

    H           -2.763926207949     1.164115604646     1.358400298467
    C           -2.278454555980     0.193837191996     1.453935872545
    O           -0.986560955312     0.212433011588     0.939443977007
    H           -2.207482961527    -0.059735512766     2.502561423794
    H           -2.895623108344    -0.550135952832     0.952983956473
    C           -0.925188187324     0.509231403004    -0.415948961208
    C            0.515746290408     0.480540266174    -0.902070447812
    H           -1.503197618775    -0.226499975979    -0.974362808884
    H           -1.353803696095     1.489529338484    -0.626737396264
    O            1.170150525892    -0.618722059850    -0.351526032574
    H            0.504640427959     0.358675879297    -1.985583500938
    H            1.034420678923     1.401469722133    -0.644702061874
    C            2.495286943729    -0.743853624293    -0.753294354067
    H            2.578497132656    -0.869192158804    -1.832329201263
    H            3.084627743019     0.124071319214    -0.462288482019
    H            2.901516325865    -1.620286499080    -0.267613871392

  Mulliken Charges: (a.u.)
   Center  Symbol    Alpha    Beta     Spin     Total
       1     H     0.43203  0.43203  0.00000  0.13593
       2     C     3.07993  3.07993  0.00000 -0.15985
       3     O     4.29389  4.29389  0.00000 -0.58779
       4     H     0.41052  0.41052  0.00000  0.17896
       5     H     0.42972  0.42972  0.00000  0.14056
       6     C     2.99292  2.99292  0.00000  0.01416
       7     C     2.99435  2.99435  0.00000  0.01131
       8     H     0.42841  0.42841  0.00000  0.14317
       9     H     0.43175  0.43175  0.00000  0.13651
      10     O     4.29523  4.29523  0.00000 -0.59046
      11     H     0.43153  0.43153  0.00000  0.13693
      12     H     0.42673  0.42673  0.00000  0.14653
      13     C     3.07952  3.07952  0.00000 -0.15903
      14     H     0.43274  0.43274  0.00000  0.13452
      15     H     0.43000  0.43000  0.00000  0.13999
      16     H     0.41072  0.41072  0.00000  0.17855

   Total alpha = 25.00000, Total beta = 25.00000, Total charge =  0.00000
