  ==> Input File <==

--------------------------------------------------------------------------
set {
	reference rhf
	basis cc-pvtz
}

set_num_threads( 4 )
memory 2 gb

molecule MOL {
0 1

H	 1.113263	 2.266673	 -2.703310
O	 1.755852	 2.064290	 -2.046925
C	 1.233534	 1.312929	 -1.061419
C	 2.076878	 0.941345	 -0.024203
C	 -0.085483	 0.912285	 -1.055239
H	 3.098968	 1.263666	 -0.048675
C	 1.597828	 0.172654	 1.011642
H	 -0.758003	 1.184283	 -1.842025
C	 -0.532034	 0.141680	 0.000000
H	 2.256888	 -0.109720	 1.808920
C	 0.276783	 -0.242045	 1.040121
N	 -1.937041	 -0.281114	 0.000000
H	 -0.108962	 -0.838855	 1.837454
O	 -2.159542	 -1.446261	 0.000000
O	 -2.764978	 0.565773	 0.000000

	symmetry c1
}
set optking {
	frozen_dihedral = ("
		11 9 12 14
	")
}

ee = optimize('scf')
oeprop('DIPOLE', 'QUADRUPOLE', 'MULLIKEN_CHARGES')
f=open( 'psi4out.xyz', 'w' )
f.write( "15  " )
f.write( str(ee) + "\n" )
f.write( MOL.save_string_xyz() )
f.close()
--------------------------------------------------------------------------

    Molecular point group: c1
  Charge       = 0
  Multiplicity = 1
  Basis Set: CC-PVTZ
  Basis Set:
  @DF-RHF Final Energy:  -509.21233494320211
    Total Energy =                       -509.2123349432018813
    Molecular point group: c1
  Basis Set: CC-PVTZ
  Basis Set:
  Basis Set: CC-PVTZ
  Basis Set:
  @DF-RHF Final Energy:  -509.20623338051644
    Total Energy =                       -509.2062333805165508
  Basis Set: CC-PVTZ
  Basis Set:
  Basis Set: CC-PVTZ
  Basis Set:
  @DF-RHF Final Energy:  -509.21252368638255
    Total Energy =                       -509.2125236863829514
  Basis Set: CC-PVTZ
  Basis Set:
  Basis Set: CC-PVTZ
  Basis Set:
  @DF-RHF Final Energy:  -509.21281898514485
    Total Energy =                       -509.2128189851453044
  Basis Set: CC-PVTZ
  Basis Set:
  Basis Set: CC-PVTZ
  Basis Set:
  @DF-RHF Final Energy:  -509.21282102084206
    Total Energy =                       -509.2128210208417158
  Basis Set: CC-PVTZ
  Basis Set:
  Charge       = 0
  Multiplicity = 1
  Basis Set: CC-PVTZ
  Basis Set:

    Orbital Energies (a.u.)
    -----------------------

    Doubly Occupied:

       1A    -20.610132     2A    -20.599412     3A    -20.598775
       4A    -15.850520     5A    -11.330122     6A    -11.313054
       7A    -11.264864     8A    -11.263916     9A    -11.258476
      10A    -11.252142    11A     -1.646842    12A     -1.443027
      13A     -1.429991    14A     -1.204421    15A     -1.096713
      16A     -1.049774    17A     -0.966944    18A     -0.885946
      19A     -0.833423    20A     -0.794005    21A     -0.766299
      22A     -0.740805    23A     -0.724532    24A     -0.712760
      25A     -0.673824    26A     -0.636300    27A     -0.623385
      28A     -0.596989    29A     -0.564953    30A     -0.549755
      31A     -0.534332    32A     -0.495208    33A     -0.489578
      34A     -0.460283    35A     -0.377244    36A     -0.346558

  @DF-RHF Final Energy:  -509.21282157367989

   => Energetics <=

    Nuclear Repulsion Energy =            504.2429445235261483
    One-Electron Energy =               -1694.9409214011843687
    Two-Electron Energy =                 681.4851553039777627
    DFT Exchange-Correlation Energy =       0.0000000000000000
    Empirical Dispersion Energy =           0.0000000000000000
    PCM Polarization Energy =               0.0000000000000000
    EFP Energy =                            0.0000000000000000
    Total Energy =                       -509.2128215736804577
    Molecular point group: c1
  Basis Set: CC-PVTZ
  Basis Set:

  -Total Gradient:
     Atom            X                  Y                   Z
    ------   -----------------  -----------------  -----------------
       1       -0.000000152778    -0.000002419173    -0.000004480693
       2       -0.000006917654     0.000013815279     0.000001346822
       3        0.000001207112    -0.000043201734     0.000025333958
       4        0.000013136879    -0.000022291013    -0.000024785651
       5       -0.000001532372    -0.000095814709     0.000003378196
       6        0.000000755727    -0.000002136311     0.000000770803
       7       -0.000031643498     0.000060918356     0.000026914463
       8       -0.000015520397     0.000006405618    -0.000024143735
       9        0.001441428214    -0.005324511360    -0.004905125238
      10       -0.000000354767    -0.000007724341    -0.000005135177
      11       -0.001018301648     0.003721297156     0.002058834447
      12       -0.000441484133     0.001934840217     0.007991709977
      13       -0.000006938502    -0.000018524593     0.000016371478
      14        0.000008114700    -0.000220743870    -0.005149420652
      15        0.000058203111     0.000000090480    -0.000011568996

  **** Optimization is complete! (in 6 steps) ****
    Final optimized geometry and variables:
    Molecular point group: c1

    Geometry (in Angstrom), charge = 0, multiplicity = 1:

    H            1.227982280097     1.851849431520    -2.450062480511
    O            1.871997513084     1.644018917351    -1.796857914460
    C            1.352981659480     0.892773195718    -0.811680070042
    C            2.196269669088     0.527925487428     0.228297983400
    C            0.031419205455     0.493934234145    -0.801782936919
    H            3.215615442944     0.858174366509     0.206476608105
    C            1.718357255251    -0.238797610006     1.265652631236
    H           -0.650285301763     0.789695433703    -1.574934725580
    C           -0.398055262764    -0.298217130220     0.239781024814
    H            2.374859732922    -0.506509837482     2.070243766831
    C            0.402146927934    -0.672147188699     1.285928767669
    N           -1.808181228023    -0.692062129732     0.258573781875
    H            0.020593138869    -1.282483810237     2.078186095031
    O           -2.045305905361    -1.851964638261     0.290960940016
    O           -2.612235109704     0.176762890599     0.203752642010

  Mulliken Charges: (a.u.)
   Center  Symbol    Alpha    Beta     Spin     Total
       1     H     0.38451  0.38451  0.00000  0.23098
       2     O     4.16727  4.16727  0.00000 -0.33455
       3     C     2.84266  2.84266  0.00000  0.31468
       4     C     3.10491  3.10491  0.00000 -0.20983
       5     C     3.14070  3.14070  0.00000 -0.28140
       6     H     0.41399  0.41399  0.00000  0.17201
       7     C     3.05094  3.05094  0.00000 -0.10188
       8     H     0.41947  0.41947  0.00000  0.16107
       9     C     2.92581  2.92581  0.00000  0.14838
      10     H     0.41632  0.41632  0.00000  0.16736
      11     C     3.10856  3.10856  0.00000 -0.21712
      12     N     3.28288  3.28288  0.00000  0.43425
      13     H     0.41087  0.41087  0.00000  0.17827
      14     O     4.16434  4.16434  0.00000 -0.32869
      15     O     4.16676  4.16676  0.00000 -0.33352

   Total alpha = 36.00000, Total beta = 36.00000, Total charge =  0.00000
