  ==> Input File <==

--------------------------------------------------------------------------
set {
	reference rhf
	basis 6-31G*
}

set_num_threads( 1 )
memory 2 gb

molecule MOL {
0 1

H	 -4.184302	 0.644434	 -0.237080
O	 -3.517110	 -0.026191	 -0.205115
C	 -2.306886	 0.532354	 0.237577
C	 -1.177863	 -0.397191	 -0.171080
H	 -2.156308	 1.517575	 -0.201710
H	 -2.315015	 0.655684	 1.319734
C	 0.198102	 0.111031	 0.262842
H	 -1.208843	 -0.518759	 -1.250427
H	 -1.368741	 -1.376554	 0.258909
C	 1.331804	 -0.827780	 -0.158768
H	 0.361943	 1.100838	 -0.156218
H	 0.217265	 0.229072	 1.345532
C	 2.723619	 -0.410569	 0.329459
H	 1.342964	 -0.912588	 -1.244120
H	 1.116806	 -1.824343	 0.220779
C	 3.243875	 0.895854	 -0.272975
H	 3.424222	 -1.207124	 0.091250
H	 2.714788	 -0.329854	 1.414619
H	 3.251977	 0.848779	 -1.358681
H	 2.637085	 1.747371	 0.016682
H	 4.259473	 1.094070	 0.055697

	symmetry c1
}
set optking {
	frozen_dihedral = ("
		2 3 4 8,
		8 4 7 10,
		4 7 10 14,
		16 13 10 14
	")
}

ee = energy('scf')
oeprop('DIPOLE', 'QUADRUPOLE', 'MULLIKEN_CHARGES')
f=open( 'psi4out.xyz', 'w' )
f.write( "21  " )
f.write( str(ee) + "\n" )
f.write( MOL.save_string_xyz() )
f.close()
--------------------------------------------------------------------------

    Molecular point group: c1

    Geometry (in Angstrom), charge = 0, multiplicity = 1:

       Center              X                  Y                   Z               Mass
    ------------   -----------------  -----------------  -----------------  -----------------
           H         -4.184816985157     0.643384848550    -0.234347315448     1.007825032070
           O         -3.517624985157    -0.027240151450    -0.202382315448    15.994914619560
           C         -2.307400985157     0.531304848550     0.240309684552    12.000000000000
           C         -1.178377985157    -0.398240151450    -0.168347315448    12.000000000000
           H         -2.156822985157     1.516525848550    -0.198977315448     1.007825032070
           H         -2.315529985157     0.654634848550     1.322466684552     1.007825032070
           C          0.197587014843     0.109981848550     0.265574684552    12.000000000000
           H         -1.209357985157    -0.519808151450    -1.247694315448     1.007825032070
           H         -1.369255985157    -1.377603151450     0.261641684552     1.007825032070
           C          1.331289014843    -0.828829151450    -0.156035315448    12.000000000000
           H          0.361428014843     1.099788848550    -0.153485315448     1.007825032070
           H          0.216750014843     0.228022848550     1.348264684552     1.007825032070
           C          2.723104014843    -0.411618151450     0.332191684552    12.000000000000
           H          1.342449014843    -0.913637151450    -1.241387315448     1.007825032070
           H          1.116291014843    -1.825392151450     0.223511684552     1.007825032070
           C          3.243360014843     0.894804848550    -0.270242315448    12.000000000000
           H          3.423707014843    -1.208173151450     0.093982684552     1.007825032070
           H          2.714273014843    -0.330903151450     1.417351684552     1.007825032070
           H          3.251462014843     0.847729848550    -1.355948315448     1.007825032070
           H          2.636570014843     1.746321848550     0.019414684552     1.007825032070
           H          4.258958014843     1.093020848550     0.058429684552     1.007825032070

  Charge       = 0
  Multiplicity = 1
  Basis Set: 6-31G*
  Basis Set:

    Orbital Energies (a.u.)
    -----------------------

    Doubly Occupied:

       1A    -20.551690     2A    -11.267122     3A    -11.215527
       4A    -11.215115     5A    -11.213543     6A    -11.210319
       7A    -11.208280     8A     -1.358712     9A     -1.086171
      10A     -1.033129    11A     -0.954381    12A     -0.875714
      13A     -0.807347    14A     -0.778965    15A     -0.694235
      16A     -0.659419    17A     -0.622743    18A     -0.605394
      19A     -0.587524    20A     -0.570348    21A     -0.535265
      22A     -0.520362    23A     -0.511408    24A     -0.484125
      25A     -0.481619    26A     -0.460847    27A     -0.456006
      28A     -0.447010    29A     -0.429927

  @DF-RHF Final Energy:  -310.21233854410178

   => Energetics <=

    Nuclear Repulsion Energy =            312.4686194221233677
    One-Electron Energy =               -1039.6774123130326188
    Two-Electron Energy =                 416.9964543468086049
    DFT Exchange-Correlation Energy =       0.0000000000000000
    Empirical Dispersion Energy =           0.0000000000000000
    PCM Polarization Energy =               0.0000000000000000
    EFP Energy =                            0.0000000000000000
    Total Energy =                       -310.2123385441007031

  Mulliken Charges: (a.u.)
   Center  Symbol    Alpha    Beta     Spin     Total
       1     H     0.28088  0.28088  0.00000  0.43825
       2     O     4.37199  4.37199  0.00000 -0.74398
       3     C     2.99019  2.99019  0.00000  0.01962
       4     C     3.15829  3.15829  0.00000 -0.31657
       5     H     0.43373  0.43373  0.00000  0.13255
       6     H     0.43108  0.43108  0.00000  0.13783
       7     C     3.16207  3.16207  0.00000 -0.32413
       8     H     0.41597  0.41597  0.00000  0.16806
       9     H     0.41446  0.41446  0.00000  0.17107
      10     C     3.15172  3.15172  0.00000 -0.30344
      11     H     0.42208  0.42208  0.00000  0.15585
      12     H     0.42375  0.42375  0.00000  0.15250
      13     C     3.15250  3.15250  0.00000 -0.30500
      14     H     0.42320  0.42320  0.00000  0.15359
      15     H     0.42086  0.42086  0.00000  0.15829
      16     C     3.24116  3.24116  0.00000 -0.48231
      17     H     0.42064  0.42064  0.00000  0.15872
      18     H     0.42345  0.42345  0.00000  0.15311
      19     H     0.42209  0.42209  0.00000  0.15582
      20     H     0.42069  0.42069  0.00000  0.15862
      21     H     0.41922  0.41922  0.00000  0.16157

   Total alpha = 29.00000, Total beta = 29.00000, Total charge =  0.00000
