  ==> Input File <==

--------------------------------------------------------------------------
set {
	reference rhf
	basis 6-31G*
}

set_num_threads( 4 )
memory 2 gb

molecule MOL {
0 1

H	 3.232879	 0.229127	 -1.466170
O	 2.304402	 0.057679	 -1.342512
C	 2.077727	 -0.067559	 -0.035091
C	 0.624473	 -0.343591	 0.253101
O	 2.946297	 0.033835	 0.768850
C	 -0.265902	 0.883932	 0.072916
H	 0.324016	 -1.163849	 -0.390541
H	 0.565024	 -0.726111	 1.268924
C	 -1.728698	 0.646073	 0.462102
H	 -0.209144	 1.219470	 -0.958188
H	 0.135059	 1.692851	 0.673903
C	 -2.482460	 -0.343073	 -0.431425
H	 -2.245265	 1.602650	 0.432430
H	 -1.779332	 0.308348	 1.496285
C	 -3.960546	 -0.461025	 -0.060175
H	 -2.395034	 -0.026811	 -1.468912
H	 -2.024850	 -1.327147	 -0.371646
H	 -4.472726	 -1.168004	 -0.705284
H	 -4.465146	 0.496508	 -0.151489
H	 -4.081218	 -0.800940	 0.964585

	symmetry c1
}
set optking {
	frozen_dihedral = ("
		5 3 4 7
	")
}

ee = optimize('scf')
oeprop('DIPOLE', 'QUADRUPOLE', 'MULLIKEN_CHARGES')
f=open( 'psi4out.xyz', 'w' )
f.write( "20  " )
f.write( str(ee) + "\n" )
f.write( MOL.save_string_xyz() )
f.close()
--------------------------------------------------------------------------

    Molecular point group: c1
  Charge       = 0
  Multiplicity = 1
  Basis Set: 6-31G*
  Basis Set:
  @DF-RHF Final Energy:  -383.94691893687974
    Total Energy =                       -383.9469189368799107
    Molecular point group: c1
  Basis Set: 6-31G*
  Basis Set:
  Basis Set: 6-31G*
  Basis Set:
  @DF-RHF Final Energy:  -383.94716902245625
    Total Energy =                       -383.9471690224565918
  Basis Set: 6-31G*
  Basis Set:
  Basis Set: 6-31G*
  Basis Set:
  @DF-RHF Final Energy:  -383.94620822092486
    Total Energy =                       -383.9462082209246319
  Basis Set: 6-31G*
  Basis Set:
  Basis Set: 6-31G*
  Basis Set:
  @DF-RHF Final Energy:  -383.94742049953669
    Total Energy =                       -383.9474204995364062
  Basis Set: 6-31G*
  Basis Set:
  Charge       = 0
  Multiplicity = 1
  Basis Set: 6-31G*
  Basis Set:

    Orbital Energies (a.u.)
    -----------------------

    Doubly Occupied:

       1A    -20.612520     2A    -20.549308     3A    -11.379339
       4A    -11.238333     5A    -11.232872     6A    -11.224394
       7A    -11.222497     8A    -11.214076     9A     -1.473361
      10A     -1.363770    11A     -1.099721    12A     -1.042442
      13A     -0.961069    14A     -0.864710    15A     -0.821647
      16A     -0.790592    17A     -0.700282    18A     -0.685412
      19A     -0.651207    20A     -0.630065    21A     -0.617204
      22A     -0.592687    23A     -0.575807    24A     -0.552595
      25A     -0.550414    26A     -0.515828    27A     -0.503388
      28A     -0.480280    29A     -0.476912    30A     -0.467554
      31A     -0.461406    32A     -0.435034

  @DF-RHF Final Energy:  -383.94742035290932

   => Energetics <=

    Nuclear Repulsion Energy =            376.8882281151424536
    One-Electron Energy =               -1269.6978498253820362
    Two-Electron Energy =                 508.8622013573302070
    DFT Exchange-Correlation Energy =       0.0000000000000000
    Empirical Dispersion Energy =           0.0000000000000000
    PCM Polarization Energy =               0.0000000000000000
    EFP Energy =                            0.0000000000000000
    Total Energy =                       -383.9474203529093188
    Molecular point group: c1
  Basis Set: 6-31G*
  Basis Set:

  -Total Gradient:
     Atom            X                  Y                   Z
    ------   -----------------  -----------------  -----------------
       1        0.000013146608    -0.000035312673    -0.000005924810
       2       -0.000008111129     0.000022576300    -0.000065646073
       3        0.000080499798    -0.000030162952     0.000023343464
       4       -0.000095025828    -0.000066943322     0.000106606762
       5       -0.000096664719     0.000054660965    -0.000032433073
       6        0.000088791259    -0.000011595550     0.000032310782
       7       -0.000070946193     0.000024141179    -0.000051679715
       8        0.000002182762    -0.000014035326    -0.000010293495
       9       -0.000039903609     0.000030768682    -0.000011029866
      10       -0.000001801542     0.000059729919     0.000024340371
      11       -0.000015902631    -0.000009992910     0.000015293005
      12        0.000041171675    -0.000020300692    -0.000020047444
      13        0.000019570668    -0.000001447912    -0.000041984041
      14       -0.000013586702     0.000040083736     0.000012264027
      15        0.000014713523    -0.000014059448     0.000028079252
      16       -0.000013330441     0.000011625738     0.000009452599
      17        0.000089181497    -0.000040672035    -0.000016004142
      18        0.000011551930    -0.000001774668     0.000002101322
      19        0.000002298518     0.000003211564    -0.000004995045
      20       -0.000007835452    -0.000000500594     0.000006246116

  **** Optimization is complete! (in 5 steps) ****
    Final optimized geometry and variables:
    Molecular point group: c1

    Geometry (in Angstrom), charge = 0, multiplicity = 1:

    H            3.248580131523     0.276550889466    -1.381048389042
    O            2.323711298394     0.076494121927    -1.274160562906
    C            2.092100626376    -0.127198401365     0.023090852189
    C            0.643078093774    -0.423909036091     0.303772574077
    O            2.955729397641    -0.057841464002     0.836097722893
    C           -0.235648159385     0.823962049786     0.114466183470
    H            0.325483696775    -1.215781330771    -0.364556298274
    H            0.579861644827    -0.783086791885     1.322845652288
    C           -1.700771292834     0.606464745667     0.506532407260
    H           -0.176764085380     1.151033420467    -0.919000782623
    H            0.170810343988     1.628321818359     0.721833171496
    C           -2.458924462253    -0.395158668193    -0.368629636282
    H           -2.208330571105     1.567056517581     0.456080082047
    H           -1.752800961501     0.290776429348     1.546941222863
    C           -3.937429642314    -0.497635114735     0.005620040626
    H           -2.369712825232    -0.099602091531    -1.411969943427
    H           -2.006279640752    -1.379900700738    -0.289291823634
    H           -4.452933488576    -1.215005374567    -0.625053244405
    H           -4.437424142271     0.460275496977    -0.105122794388
    H           -4.059442383530    -0.816231830599     1.036980726328

  Mulliken Charges: (a.u.)
   Center  Symbol    Alpha    Beta     Spin     Total
       1     H     0.26774  0.26774  0.00000  0.46452
       2     O     4.34765  4.34765  0.00000 -0.69531
       3     C     2.63247  2.63247  0.00000  0.73506
       4     C     3.20035  3.20035  0.00000 -0.40070
       5     O     4.27859  4.27859  0.00000 -0.55718
       6     C     3.16743  3.16743  0.00000 -0.33486
       7     H     0.40078  0.40078  0.00000  0.19845
       8     H     0.39799  0.39799  0.00000  0.20403
       9     C     3.15362  3.15362  0.00000 -0.30725
      10     H     0.40798  0.40798  0.00000  0.18405
      11     H     0.41055  0.41055  0.00000  0.17891
      12     C     3.15526  3.15526  0.00000 -0.31053
      13     H     0.41781  0.41781  0.00000  0.16438
      14     H     0.42063  0.42063  0.00000  0.15874
      15     C     3.23955  3.23955  0.00000 -0.47910
      16     H     0.42093  0.42093  0.00000  0.15814
      17     H     0.42147  0.42147  0.00000  0.15707
      18     H     0.41782  0.41782  0.00000  0.16437
      19     H     0.42071  0.42071  0.00000  0.15858
      20     H     0.42068  0.42068  0.00000  0.15864

   Total alpha = 32.00000, Total beta = 32.00000, Total charge = -0.00000
