                              Psi4 1.0.54 Driver

  ==> Input File <==

--------------------------------------------------------------------------
set {
	reference rhf
	basis cc-pvtz
}

set_num_threads( 4 )
memory 2 gb

molecule MOL {
0 1

O	 1.487870	 -0.142240	 -0.706521
C	 0.576499	 0.134701	 -0.003900
C	 -0.765656	 -0.550508	 -0.002152
O	 0.617982	 1.112264	 0.886393
C	 -1.945526	 0.411052	 0.000603
H	 -0.794329	 -1.203792	 -0.868145
H	 -0.791555	 -1.205429	 0.862701
C	 -3.282915	 -0.321280	 0.002596
H	 -1.880300	 1.059126	 -0.864925
H	 -1.877207	 1.057892	 0.866807
H	 -3.388495	 -0.952755	 -0.873419
H	 -4.107811	 0.380864	 0.004116
H	 -3.385717	 -0.953283	 0.878571
C	 1.821801	 1.845964	 0.988940
H	 2.640438	 1.198224	 1.265202
H	 1.655354	 2.583892	 1.756694
H	 2.054904	 2.328804	 0.051619

	symmetry c1
}
set optking {
	frozen_dihedral = ("
		1 2 3 6
	")
}

ee,wfn = optimize('scf', return_wfn=True)
oeprop( wfn, 'DIPOLE', 'QUADRUPOLE', 'MULLIKEN_CHARGES')
f=open( 'psi4out.xyz', 'w' )
f.write( "17  " )
f.write( str(ee) + "\n" )
f.write( MOL.save_string_xyz() )
f.close()
--------------------------------------------------------------------------

    Molecular point group: c1
  Charge       = 0
  Multiplicity = 1
  Basis Set: CC-PVTZ
  Basis Set:
  @DF-RHF Final Energy:  -345.03335053256882
    Total Energy =                       -345.0333505325691590
    Molecular point group: c1
  Basis Set: CC-PVTZ
  Basis Set:
  Basis Set: CC-PVTZ
  Basis Set:
  @DF-RHF Final Energy:  -345.03163424281144
    Total Energy =                       -345.0316342428115490
  Basis Set: CC-PVTZ
  Basis Set:
  Basis Set: CC-PVTZ
  Basis Set:
  @DF-RHF Final Energy:  -345.03359369397680
    Total Energy =                       -345.0335936939767407
  Basis Set: CC-PVTZ
  Basis Set:
  Basis Set: CC-PVTZ
  Basis Set:
  @DF-RHF Final Energy:  -345.03381595369893
    Total Energy =                       -345.0338159536988769
  Basis Set: CC-PVTZ
  Basis Set:
  Basis Set: CC-PVTZ
  Basis Set:
  @DF-RHF Final Energy:  -345.03382911366725
    Total Energy =                       -345.0338291136671387
  Basis Set: CC-PVTZ
  Basis Set:
  Basis Set: CC-PVTZ
  Basis Set:
  @DF-RHF Final Energy:  -345.03383050197908
    Total Energy =                       -345.0338305019784571
  Basis Set: CC-PVTZ
  Basis Set:
  Charge       = 0
  Multiplicity = 1
  Basis Set: CC-PVTZ
  Basis Set:

    Orbital Energies (a.u.)
    -----------------------

    Doubly Occupied:

       1A    -20.597767     2A    -20.532672     3A    -11.364247
       4A    -11.279155     5A    -11.233753     6A    -11.227681
       7A    -11.216104     8A     -1.472712     9A     -1.364927
      10A     -1.085138    11A     -0.999464    12A     -0.942969
      13A     -0.832103    14A     -0.776603    15A     -0.699154
      16A     -0.684489    17A     -0.676220    18A     -0.639203
      19A     -0.597470    20A     -0.577073    21A     -0.553588
      22A     -0.542822    23A     -0.526514    24A     -0.513087
      25A     -0.490103    26A     -0.482879    27A     -0.459555
      28A     -0.434643

  @DF-RHF Final Energy:  -345.03383063619810

   => Energetics <=

    Nuclear Repulsion Energy =            314.7687133928499179
    One-Electron Energy =               -1094.0008942153558564
    Two-Electron Energy =                 434.1983501863082324
    DFT Exchange-Correlation Energy =       0.0000000000000000
    Empirical Dispersion Energy =           0.0000000000000000
    PCM Polarization Energy =               0.0000000000000000
    EFP Energy =                            0.0000000000000000
    Total Energy =                       -345.0338306361977061
    Molecular point group: c1
  Basis Set: CC-PVTZ
  Basis Set:

  -Total Gradient:
     Atom            X                  Y                   Z
    ------   -----------------  -----------------  -----------------
       1        0.000219257324    -0.000514146021     0.000589000336
       2       -0.000373213287     0.000843744623    -0.000948144081
       3        0.000416583256    -0.000926510981     0.000801078107
       4        0.000024409317     0.000039467554     0.000018550243
       5       -0.000008739006     0.000009333426    -0.000012907744
       6       -0.000263592389     0.000574340079    -0.000456059853
       7        0.000000072694    -0.000004000281     0.000011686250
       8        0.000007270910    -0.000006035696     0.000004368791
       9        0.000001090904     0.000004042567    -0.000011123046
      10        0.000002708201    -0.000003239281     0.000006589934
      11        0.000000312443     0.000001177101    -0.000009367581
      12       -0.000001228295     0.000006732104     0.000001392390
      13       -0.000000817471    -0.000007901358     0.000009678743
      14       -0.000030103336    -0.000022262374    -0.000000554138
      15        0.000007468095    -0.000009402157     0.000003933681
      16       -0.000005193101     0.000007427610     0.000007951668
      17        0.000003713744     0.000007233085    -0.000016073695

  **** Optimization is complete! (in 7 steps) ****
    Final optimized geometry and variables:
    Molecular point group: c1

    Geometry (in Angstrom), charge = 0, multiplicity = 1:

    O            1.660052399248    -0.596888296874    -0.820111075290
    C            0.751759973304    -0.249406186722    -0.144411868553
    C           -0.617507487238    -0.880149430105    -0.167941612750
    O            0.845331649817     0.725090641336     0.744563245985
    C           -1.776939227109     0.114780562003    -0.235251070721
    H           -0.636653601829    -1.549002919151    -1.016561456399
    H           -0.704097841095    -1.483586725147     0.730974668744
    C           -3.127229680674    -0.589273213456    -0.309032098192
    H           -1.652905387853     0.750933376800    -1.106300396707
    H           -1.747569271898     0.764084695436     0.629878102207
    H           -3.193139376206    -1.224341537266    -1.185756925069
    H           -3.936066627594     0.129761449091    -0.359418225816
    H           -3.291835949765    -1.212191482292     0.563851511167
    C            2.097794064314     1.367389533673     0.873231167027
    H            2.858612580422     0.661710076664     1.172041185836
    H            1.969115006558     2.120896894941     1.633259516444
    H            2.388780629647     1.824926939608    -0.060557174378

  Mulliken Charges: (a.u.)
   Center  Symbol    Alpha    Beta     Spin     Total
       1     O     4.19936  4.19936  0.00000 -0.39871
       2     C     2.81119  2.81119  0.00000  0.37761
       3     C     3.07953  3.07953  0.00000 -0.15907
       4     O     4.14793  4.14793  0.00000 -0.29585
       5     C     3.08904  3.08904  0.00000 -0.17809
       6     H     0.43678  0.43678  0.00000  0.12644
       7     H     0.44765  0.44765  0.00000  0.10469
       8     C     3.15159  3.15159  0.00000 -0.30319
       9     H     0.45031  0.45031  0.00000  0.09937
      10     H     0.44343  0.44343  0.00000  0.11315
      11     H     0.45327  0.45327  0.00000  0.09346
      12     H     0.44612  0.44612  0.00000  0.10775
      13     H     0.45457  0.45457  0.00000  0.09087
      14     C     3.03618  3.03618  0.00000 -0.07236
      15     H     0.45317  0.45317  0.00000  0.09366
      16     H     0.44591  0.44591  0.00000  0.10818
      17     H     0.45396  0.45396  0.00000  0.09208

   Total alpha = 28.00000, Total beta = 28.00000, Total charge =  0.00000

*** Psi4 exiting successfully. Buy a developer a beer!
