  ==> Input File <==

--------------------------------------------------------------------------
set {
	reference rhf
	basis 6-31G*
}

set_num_threads( 4 )
memory 2 gb

molecule MOL {
0 1

H	 3.276176	 0.174363	 -0.109463
N	 2.434251	 -0.367735	 -0.081097
C	 1.267428	 0.496480	 0.024474
H	 2.501951	 -0.965776	 0.720575
C	 -0.016086	 -0.325158	 -0.029487
H	 1.288818	 1.183521	 -0.816092
H	 1.267576	 1.109062	 0.929528
C	 -1.282277	 0.529072	 0.046735
H	 -0.012495	 -0.908639	 -0.945788
H	 -0.015903	 -1.041248	 0.791956
C	 -2.561810	 -0.306117	 0.077639
H	 -1.313985	 1.203309	 -0.806721
H	 -1.243208	 1.159913	 0.932438
H	 -2.648116	 -0.922756	 -0.812321
H	 -3.443139	 0.325605	 0.129677
H	 -2.577306	 -0.967362	 0.939460

	symmetry c1
}
set optking {
	frozen_dihedral = ("
		12 8 5 9
	")
}

ee = optimize('scf')
oeprop('DIPOLE', 'QUADRUPOLE', 'MULLIKEN_CHARGES')
f=open( 'psi4out.xyz', 'w' )
f.write( "16  " )
f.write( str(ee) + "\n" )
f.write( MOL.save_string_xyz() )
f.close()
--------------------------------------------------------------------------

    Molecular point group: c1
  Charge       = 0
  Multiplicity = 1
  Basis Set: 6-31G*
  Basis Set:
  @DF-RHF Final Energy:  -212.31697637318067
    Total Energy =                       -212.3169763731805233
    Molecular point group: c1
  Basis Set: 6-31G*
  Basis Set:
  Basis Set: 6-31G*
  Basis Set:
  @DF-RHF Final Energy:  -212.31698078699046
    Total Energy =                       -212.3169807869905981
  Basis Set: 6-31G*
  Basis Set:
  Basis Set: 6-31G*
  Basis Set:
  @DF-RHF Final Energy:  -212.31698452295947
    Total Energy =                       -212.3169845229594443
  Basis Set: 6-31G*
  Basis Set:
  Charge       = 0
  Multiplicity = 1
  Basis Set: 6-31G*
  Basis Set:

    Orbital Energies (a.u.)
    -----------------------

    Doubly Occupied:

       1A    -15.532614     2A    -11.239855     3A    -11.215082
       4A    -11.209669     5A    -11.207906     6A     -1.176717
       7A     -1.059499     8A     -0.958628     9A     -0.843569
      10A     -0.791950    11A     -0.664153    12A     -0.637634
      13A     -0.604779    14A     -0.575990    15A     -0.564644
      16A     -0.524513    17A     -0.500879    18A     -0.469944
      19A     -0.465032    20A     -0.461458    21A     -0.381194

  @DF-RHF Final Energy:  -212.31698466676829

   => Energetics <=

    Nuclear Repulsion Energy =            186.2625397860442149
    One-Electron Energy =                -654.9876292551947472
    Two-Electron Energy =                 256.4081048023821268
    DFT Exchange-Correlation Energy =       0.0000000000000000
    Empirical Dispersion Energy =           0.0000000000000000
    PCM Polarization Energy =               0.0000000000000000
    EFP Energy =                            0.0000000000000000
    Total Energy =                       -212.3169846667684055
    Molecular point group: c1
  Basis Set: 6-31G*
  Basis Set:

  -Total Gradient:
     Atom            X                  Y                   Z
    ------   -----------------  -----------------  -----------------
       1       -0.000002260132     0.000000013593     0.000001618567
       2        0.000003141617     0.000000725022     0.000001604607
       3        0.000001654225    -0.000001367269     0.000012751045
       4        0.000001319708     0.000000733774    -0.000001307271
       5       -0.000473025854    -0.000715987881     0.000271347024
       6       -0.000000995167    -0.000006476099     0.000000933577
       7        0.000008652821     0.000012750358     0.000002382934
       8        0.000481618676     0.000678314867     0.000354809978
       9        0.000302635062     0.000481014120    -0.000313323003
      10        0.000002533820     0.000016413882    -0.000002619158
      11       -0.000001397121    -0.000003212403     0.000007383184
      12       -0.000311394427    -0.000448396942    -0.000338293392
      13       -0.000001713733    -0.000008609584     0.000001995404
      14        0.000004529483    -0.000003296172     0.000003326186
      15       -0.000003152773    -0.000000693701    -0.000006594432
      16       -0.000012146206    -0.000001925564     0.000003984749

  **** Optimization is complete! (in 4 steps) ****
    Final optimized geometry and variables:
    Molecular point group: c1

    Geometry (in Angstrom), charge = 0, multiplicity = 1:

    H            3.274954319978     0.176611638627    -0.138847932137
    N            2.433531658818    -0.366090976856    -0.107102638479
    C            1.266916160201     0.496994481458     0.009543257354
    H            2.506834954131    -0.967197143868     0.691755557193
    C           -0.016651639848    -0.325518165560    -0.037775756912
    H            1.281861343145     1.186710643734    -0.828987502834
    H            1.273240277603     1.106740401500     0.916465236980
    C           -1.282189168181     0.530197361755     0.033901980861
    H           -0.012615412131    -0.910168794469    -0.953187397900
    H           -0.014528126444    -1.037650807133     0.786924894833
    C           -2.562550460786    -0.304562563304     0.055752570313
    H           -1.309942069696     1.202218981829    -0.821245386335
    H           -1.248674810904     1.160356125193     0.920216985102
    H           -2.639218416214    -0.926458986506    -0.831504993593
    H           -3.444186442358     0.327806367218     0.093981169553
    H           -2.588096231424    -0.960706170550     0.921209096816

  Mulliken Charges: (a.u.)
   Center  Symbol    Alpha    Beta     Spin     Total
       1     H     0.33248  0.33248  0.00000  0.33504
       2     N     3.92177  3.92177  0.00000 -0.84353
       3     C     3.06042  3.06042  0.00000 -0.12084
       4     H     0.33535  0.33535  0.00000  0.32931
       5     C     3.15048  3.15048  0.00000 -0.30096
       6     H     0.42092  0.42092  0.00000  0.15816
       7     H     0.43481  0.43481  0.00000  0.13038
       8     C     3.15560  3.15560  0.00000 -0.31120
       9     H     0.41316  0.41316  0.00000  0.17368
      10     H     0.42794  0.42794  0.00000  0.14412
      11     C     3.23872  3.23872  0.00000 -0.47743
      12     H     0.42228  0.42228  0.00000  0.15544
      13     H     0.42381  0.42381  0.00000  0.15237
      14     H     0.42058  0.42058  0.00000  0.15884
      15     H     0.41966  0.41966  0.00000  0.16068
      16     H     0.42203  0.42203  0.00000  0.15594

   Total alpha = 21.00000, Total beta = 21.00000, Total charge = -0.00000
