  ==> Input File <==

--------------------------------------------------------------------------
set {
	reference rhf
	basis cc-pvtz
}

set_num_threads( 4 )
memory 2 gb

molecule MOL {
0 1

H	 -0.289159	 -1.109064	 0.816311
N	 -0.625934	 -0.663929	 -0.000707
C	 -1.978635	 -0.158664	 0.001017
C	 0.209390	 -0.561027	 -1.058170
H	 -2.519057	 -0.493535	 -0.876362
H	 -1.938890	 0.917202	 -0.004137
H	 -2.514266	 -0.485137	 0.884506
C	 1.582421	 -1.156496	 -0.836759
O	 -0.097959	 -0.038373	 -2.088435
H	 1.504532	 -2.214594	 -0.615488
H	 2.171346	 -1.018672	 -1.728521
H	 2.074664	 -0.673627	 -0.000605

	symmetry c1
}
set optking {
	frozen_dihedral = ("
		4 2 3 5
	")
}

ee = optimize('scf')
oeprop('DIPOLE', 'QUADRUPOLE', 'MULLIKEN_CHARGES')
f=open( 'psi4out.xyz', 'w' )
f.write( "12  " )
f.write( str(ee) + "\n" )
f.write( MOL.save_string_xyz() )
f.close()
--------------------------------------------------------------------------

    Molecular point group: c1
  Charge       = 0
  Multiplicity = 1
  Basis Set: CC-PVTZ
  Basis Set:
  @DF-RHF Final Energy:  -247.10046146031695
    Total Energy =                       -247.1004614603168648
    Molecular point group: c1
  Basis Set: CC-PVTZ
  Basis Set:
  Basis Set: CC-PVTZ
  Basis Set:
  @DF-RHF Final Energy:  -247.10113334802156
    Total Energy =                       -247.1011333480213352
  Basis Set: CC-PVTZ
  Basis Set:
  Basis Set: CC-PVTZ
  Basis Set:
  @DF-RHF Final Energy:  -247.10110241794314
    Total Energy =                       -247.1011024179430819
  Basis Set: CC-PVTZ
  Basis Set:
  Basis Set: CC-PVTZ
  Basis Set:
  @DF-RHF Final Energy:  -247.10125206246823
    Total Energy =                       -247.1012520624681201
  Basis Set: CC-PVTZ
  Basis Set:
  @DF-RHF Final Energy:  -247.10125665462922
    Total Energy =                       -247.1012566546291396
  @DF-RHF Final Energy:  -247.10126760329197
    Total Energy =                       -247.1012676032918307
  @DF-RHF Final Energy:  -247.10127973703626
    Total Energy =                       -247.1012797370362932
  @DF-RHF Final Energy:  -247.10128332498911
    Total Energy =                       -247.1012833249890832
  @DF-RHF Final Energy:  -247.10128433768818
    Total Energy =                       -247.1012843376882984
  @DF-RHF Final Energy:  -247.10128603414856
    Total Energy =                       -247.1012860341484725
  Basis Set: CC-PVTZ
  Basis Set:
  @DF-RHF Final Energy:  -247.10129002645755
    Total Energy =                       -247.1012900264574910
  Basis Set: CC-PVTZ
  Basis Set:
  Basis Set: CC-PVTZ
  Basis Set:
  @DF-RHF Final Energy:  -247.10129017923623
    Total Energy =                       -247.1012901792362300
  Basis Set: CC-PVTZ
  Basis Set:
  Basis Set: CC-PVTZ
  Basis Set:
  @DF-RHF Final Energy:  -247.10129154182900
    Total Energy =                       -247.1012915418290277
  Basis Set: CC-PVTZ
  Basis Set:
  Charge       = 0
  Multiplicity = 1
  Basis Set: CC-PVTZ
  Basis Set:

    Orbital Energies (a.u.)
    -----------------------

    Doubly Occupied:

       1A    -20.507416     2A    -15.574328     3A    -11.335274
       4A    -11.253790     5A    -11.228159     6A     -1.389067
       7A     -1.230432     8A     -1.016475     9A     -0.932884
      10A     -0.788906    11A     -0.690566    12A     -0.651046
      13A     -0.636269    14A     -0.584825    15A     -0.582787
      16A     -0.557904    17A     -0.546751    18A     -0.507733
      19A     -0.417728    20A     -0.390530

  @DF-RHF Final Energy:  -247.10129197035468

   => Energetics <=

    Nuclear Repulsion Energy =            181.8589090472187308
    One-Electron Energy =                -696.2746618212839849
    Two-Electron Energy =                 267.3144608037104604
    DFT Exchange-Correlation Energy =       0.0000000000000000
    Empirical Dispersion Energy =           0.0000000000000000
    PCM Polarization Energy =               0.0000000000000000
    EFP Energy =                            0.0000000000000000
    Total Energy =                       -247.1012919703547936
    Molecular point group: c1
  Basis Set: CC-PVTZ
  Basis Set:

  -Total Gradient:
     Atom            X                  Y                   Z
    ------   -----------------  -----------------  -----------------
       1        0.000008182775    -0.000019776112    -0.000011654717
       2        0.000015113531     0.000112721312     0.000061787522
       3       -0.000006250034    -0.000058086721     0.000034651958
       4        0.000008664126     0.000006112054    -0.000072346908
       5        0.000005562215     0.000041908092    -0.000025981293
       6       -0.000004474151    -0.000002247436    -0.000000216503
       7       -0.000009697795    -0.000000672905    -0.000007485206
       8       -0.000006773209    -0.000014870983    -0.000000627808
       9       -0.000018232602    -0.000078933181     0.000012309103
      10        0.000000938398    -0.000003172213    -0.000029666485
      11        0.000015734241     0.000034925844     0.000013780833
      12       -0.000008767496    -0.000017907752     0.000025449502

  **** Optimization is complete! (in 14 steps) ****
    Final optimized geometry and variables:
    Molecular point group: c1

    Geometry (in Angstrom), charge = 0, multiplicity = 1:

    H           -0.090592160406    -0.569209146639     1.629061908142
    N           -0.439340145483    -0.188628732956     0.785636211412
    C           -1.769534315720     0.375076340546     0.774287912240
    C            0.402598106439    -0.052905584685    -0.261520535862
    H           -2.282654017948     0.097946037268    -0.134146445948
    H           -1.750334897871     1.456689885223     0.834568777798
    H           -2.319404157939    -0.013045232368     1.620128487953
    C            1.783659964862    -0.633902455151    -0.055897671713
    O            0.076919333655     0.483828989271    -1.278802171956
    H            1.722264741297    -1.678728195189     0.224259230855
    H            2.344336593536    -0.536909936914    -0.971143813284
    H            2.298105757392    -0.102850952084     0.737016318234

  Mulliken Charges: (a.u.)
   Center  Symbol    Alpha    Beta     Spin     Total
       1     H     0.41203  0.41203  0.00000  0.17593
       2     N     3.61791  3.61791  0.00000 -0.23583
       3     C     3.07743  3.07743  0.00000 -0.15487
       4     C     2.83775  2.83775  0.00000  0.32449
       5     H     0.44277  0.44277  0.00000  0.11445
       6     H     0.45491  0.45491  0.00000  0.09018
       7     H     0.45562  0.45562  0.00000  0.08876
       8     C     3.15364  3.15364  0.00000 -0.30728
       9     O     4.21470  4.21470  0.00000 -0.42940
      10     H     0.44994  0.44994  0.00000  0.10012
      11     H     0.43365  0.43365  0.00000  0.13270
      12     H     0.44963  0.44963  0.00000  0.10074

   Total alpha = 20.00000, Total beta = 20.00000, Total charge = -0.00000
