  ==> Input File <==

--------------------------------------------------------------------------
set {
	reference rhf
	basis 6-31G*
}

set_num_threads( 4 )
memory 2 gb

molecule MOL {
0 1

O	 -2.042549	 -1.228399	 -0.269030
C	 -1.653912	 -0.146171	 0.050137
C	 -0.332303	 0.024011	 0.778412
C	 -2.438579	 1.106236	 -0.272369
C	 0.199795	 1.457390	 0.622948
H	 -0.443958	 -0.216759	 1.831952
H	 0.374719	 -0.674393	 0.344508
C	 1.546872	 1.663978	 1.317020
H	 -0.523324	 2.164123	 1.026321
H	 0.293838	 1.678752	 -0.435965
C	 2.082670	 3.086070	 1.156447
H	 1.447850	 1.431725	 2.375169
H	 2.268850	 0.957525	 0.914232
H	 1.397368	 3.814272	 1.580872
H	 2.222948	 3.335673	 0.108849
H	 3.039398	 3.202458	 1.655598
H	 -3.277823	 0.863061	 -0.908988
H	 -1.806773	 1.843019	 -0.759671
H	 -2.802853	 1.554979	 0.648059

	symmetry c1
}
set optking {
	frozen_dihedral = ("
		5 3 2 4
	")
}

ee = optimize('scf')
oeprop('DIPOLE', 'QUADRUPOLE', 'MULLIKEN_CHARGES')
f=open( 'psi4out.xyz', 'w' )
f.write( "19  " )
f.write( str(ee) + "\n" )
f.write( MOL.save_string_xyz() )
f.close()
--------------------------------------------------------------------------

    Molecular point group: c1
  Charge       = 0
  Multiplicity = 1
  Basis Set: 6-31G*
  Basis Set:
  @DF-RHF Final Energy:  -309.05847042417082
    Total Energy =                       -309.0584704241708778
    Molecular point group: c1
  Basis Set: 6-31G*
  Basis Set:
  Basis Set: 6-31G*
  Basis Set:
  @DF-RHF Final Energy:  -309.06112709726818
    Total Energy =                       -309.0611270972684110
  Basis Set: 6-31G*
  Basis Set:
  Basis Set: 6-31G*
  Basis Set:
  @DF-RHF Final Energy:  -309.06284318008773
    Total Energy =                       -309.0628431800880662
  Basis Set: 6-31G*
  Basis Set:
  Basis Set: 6-31G*
  Basis Set:
  @DF-RHF Final Energy:  -309.06303279009899
    Total Energy =                       -309.0630327900985321
  Basis Set: 6-31G*
  Basis Set:
  @DF-RHF Final Energy:  -309.06257599555363
    Total Energy =                       -309.0625759955538001
  @DF-RHF Final Energy:  -309.06312640252855
    Total Energy =                       -309.0631264025282690
  Basis Set: 6-31G*
  Basis Set:
  @DF-RHF Final Energy:  -309.06294176547601
    Total Energy =                       -309.0629417654756708
  Basis Set: 6-31G*
  Basis Set:
  Basis Set: 6-31G*
  Basis Set:
  @DF-RHF Final Energy:  -309.06313642331787
    Total Energy =                       -309.0631364233179852
  Basis Set: 6-31G*
  Basis Set:
  Basis Set: 6-31G*
  Basis Set:
  @DF-RHF Final Energy:  -309.06314094634240
    Total Energy =                       -309.0631409463423438
  Basis Set: 6-31G*
  Basis Set:
  Charge       = 0
  Multiplicity = 1
  Basis Set: 6-31G*
  Basis Set:

    Orbital Energies (a.u.)
    -----------------------

    Doubly Occupied:

       1A    -20.545714     2A    -11.325846     3A    -11.231639
       4A    -11.230796     5A    -11.227694     6A    -11.226995
       7A    -11.217351     8A     -1.392581     9A     -1.094324
      10A     -1.027801    11A     -0.982639    12A     -0.895549
      13A     -0.810451    14A     -0.731755    15A     -0.662984
      16A     -0.647463    17A     -0.626994    18A     -0.611885
      19A     -0.585573    20A     -0.572790    21A     -0.553037
      22A     -0.530122    23A     -0.523521    24A     -0.491515
      25A     -0.486319    26A     -0.481680    27A     -0.468460
      28A     -0.396724

  @DF-RHF Final Energy:  -309.06314098954851

   => Energetics <=

    Nuclear Repulsion Energy =            300.8138957267534579
    One-Electron Energy =               -1014.5936695920945567
    Two-Electron Energy =                 404.7166328757924134
    DFT Exchange-Correlation Energy =       0.0000000000000000
    Empirical Dispersion Energy =           0.0000000000000000
    PCM Polarization Energy =               0.0000000000000000
    EFP Energy =                            0.0000000000000000
    Total Energy =                       -309.0631409895486854
    Molecular point group: c1
  Basis Set: 6-31G*
  Basis Set:

  -Total Gradient:
     Atom            X                  Y                   Z
    ------   -----------------  -----------------  -----------------
       1        0.000022149930     0.000029811292     0.000010339954
       2       -0.001066891344    -0.000035117271     0.001987143248
       3        0.001110578923    -0.000395073554    -0.001953624769
       4        0.000517149520     0.000109054585    -0.001040353308
       5       -0.000560177941     0.000299654199     0.000969990659
       6        0.000006470159     0.000031325255    -0.000009490474
       7        0.000013758747    -0.000009601043     0.000006654209
       8       -0.000016827273    -0.000009674336     0.000030648731
       9       -0.000036852377    -0.000016186111     0.000016067661
      10        0.000001743021     0.000007528625     0.000018854593
      11        0.000011453480    -0.000010666275    -0.000040677350
      12       -0.000002550574     0.000018965420     0.000008404948
      13       -0.000011744129    -0.000016789701     0.000015022690
      14        0.000001660149    -0.000010406914     0.000006603606
      15       -0.000000771071     0.000015268231    -0.000008242358
      16        0.000003500459    -0.000006923291    -0.000011159735
      17       -0.000007950007     0.000001942777    -0.000000414275
      18        0.000003737676     0.000000423319    -0.000002605077
      19        0.000011562653    -0.000003535203    -0.000003162951

  **** Optimization is complete! (in 10 steps) ****
    Final optimized geometry and variables:
    Molecular point group: c1

    Geometry (in Angstrom), charge = 0, multiplicity = 1:

    O           -1.623666681416    -2.137616092976    -0.698287595214
    C           -1.303548777652    -1.014127783012    -0.453694192954
    C            0.030520135205    -0.743672174959     0.231230823910
    C           -2.215946013248     0.144285640990    -0.795320241102
    C            0.606427857144     0.670392305431     0.130343675964
    H           -0.116391151909    -0.999614606358     1.279832793822
    H            0.730184298744    -1.474887147834    -0.158712818221
    C            1.951437403547     0.797655966836     0.848995688831
    H           -0.089686528626     1.390530833620     0.552416986418
    H            0.736790481511     0.943513322932    -0.914835398553
    C            2.547445960410     2.201031138012     0.749172943833
    H            1.825970660747     0.531329776417     1.896175455189
    H            2.651148371515     0.076919984885     0.432475711438
    H            1.885772071055     2.941078266268     1.190299144443
    H            2.715463361301     2.483335819479    -0.286208268026
    H            3.499869033961     2.259489072996     1.266193836866
    H           -3.132316854695    -0.241625996702    -1.219209363781
    H           -1.739686556156     0.809492157444    -1.508511599646
    H           -2.443791266988     0.730695728071     0.089889537507

  Mulliken Charges: (a.u.)
   Center  Symbol    Alpha    Beta     Spin     Total
       1     O     4.26357  4.26357  0.00000 -0.52714
       2     C     2.73463  2.73463  0.00000  0.53075
       3     C     3.20610  3.20610  0.00000 -0.41220
       4     C     3.29198  3.29198  0.00000 -0.58396
       5     C     3.16121  3.16121  0.00000 -0.32242
       6     H     0.40360  0.40360  0.00000  0.19281
       7     H     0.39862  0.39862  0.00000  0.20276
       8     C     3.15222  3.15222  0.00000 -0.30444
       9     H     0.41979  0.41979  0.00000  0.16043
      10     H     0.41932  0.41932  0.00000  0.16136
      11     C     3.23993  3.23993  0.00000 -0.47987
      12     H     0.42074  0.42074  0.00000  0.15851
      13     H     0.41935  0.41935  0.00000  0.16131
      14     H     0.42103  0.42103  0.00000  0.15794
      15     H     0.42046  0.42046  0.00000  0.15908
      16     H     0.41660  0.41660  0.00000  0.16680
      17     H     0.39554  0.39554  0.00000  0.20893
      18     H     0.40644  0.40644  0.00000  0.18711
      19     H     0.40888  0.40888  0.00000  0.18225

   Total alpha = 28.00000, Total beta = 28.00000, Total charge = -0.00000
