                              Psi4 1.0.54 Driver

  ==> Input File <==

--------------------------------------------------------------------------
set {
	reference rhf
	basis cc-pvtz
}

set_num_threads( 4 )
memory 2 gb

molecule MOL {
0 1

H	 2.309404	 2.269312	 -0.572098
O	 3.077563	 1.875803	 -0.942114
C	 3.404928	 0.701844	 -0.246467
C	 2.455801	 -0.453750	 -0.526548
H	 4.402961	 0.436454	 -0.568149
H	 3.452181	 0.895427	 0.823460
C	 1.028507	 -0.226750	 -0.033443
H	 2.447698	 -0.642656	 -1.595850
H	 2.863139	 -1.343202	 -0.051838
C	 0.113298	 -1.420414	 -0.302504
H	 0.619974	 0.656916	 -0.512233
H	 1.044949	 -0.023957	 1.036085
C	 -1.311023	 -1.277304	 0.237018
H	 0.074450	 -1.606178	 -1.373116
H	 0.561044	 -2.305342	 0.141225
C	 -2.041121	 -0.006551	 -0.194127
H	 -1.888548	 -2.136293	 -0.093331
H	 -1.289731	 -1.328757	 1.323321
C	 -3.489218	 0.042606	 0.286507
H	 -2.022185	 0.066287	 -1.279394
H	 -1.518764	 0.869305	 0.178730
C	 -4.219984	 1.311773	 -0.139038
H	 -4.022855	 -0.824300	 -0.093339
H	 -3.510372	 -0.038577	 1.370031
H	 -4.244251	 1.405725	 -1.219696
H	 -5.244345	 1.313233	 0.215630
H	 -3.732090	 2.196311	 0.257073

	symmetry c1
}
set optking {
	frozen_dihedral = ("
		14 10 13 16
	")
}

ee,wfn = optimize('scf', return_wfn=True)
oeprop( wfn, 'DIPOLE', 'QUADRUPOLE', 'MULLIKEN_CHARGES')
f=open( 'psi4out.xyz', 'w' )
f.write( "27  " )
f.write( str(ee) + "\n" )
f.write( MOL.save_string_xyz() )
f.close()
--------------------------------------------------------------------------

    Molecular point group: c1
  Charge       = 0
  Multiplicity = 1
  Basis Set: CC-PVTZ
  Basis Set:
  @DF-RHF Final Energy:  -388.42701384607022
    Total Energy =                       -388.4270138460699400
    Molecular point group: c1
  Basis Set: CC-PVTZ
  Basis Set:
  Basis Set: CC-PVTZ
  Basis Set:
  @DF-RHF Final Energy:  -388.42663575534016
    Total Energy =                       -388.4266357553394755
  Basis Set: CC-PVTZ
  Basis Set:
  Basis Set: CC-PVTZ
  Basis Set:
  @DF-RHF Final Energy:  -388.42716070987876
    Total Energy =                       -388.4271607098785353
  Basis Set: CC-PVTZ
  Basis Set:
  Basis Set: CC-PVTZ
  Basis Set:
  @DF-RHF Final Energy:  -388.42720002136218
    Total Energy =                       -388.4272000213624096
  Basis Set: CC-PVTZ
  Basis Set:
  Basis Set: CC-PVTZ
  Basis Set:
  @DF-RHF Final Energy:  -388.42720572110824
    Total Energy =                       -388.4272057211082938
  Basis Set: CC-PVTZ
  Basis Set:
  Basis Set: CC-PVTZ
  Basis Set:
  @DF-RHF Final Energy:  -388.42720746646353
    Total Energy =                       -388.4272074664635284
  Basis Set: CC-PVTZ
  Basis Set:
  Charge       = 0
  Multiplicity = 1
  Basis Set: CC-PVTZ
  Basis Set:

    Orbital Energies (a.u.)
    -----------------------

    Doubly Occupied:

       1A    -20.545326     2A    -11.264992     3A    -11.216973
       4A    -11.214721     5A    -11.213973     6A    -11.213367
       7A    -11.213290     8A    -11.212001     9A    -11.207413
      10A     -1.363248    11A     -1.096314    12A     -1.062540
      13A     -1.012436    14A     -0.949216    15A     -0.889881
      16A     -0.820574    17A     -0.804221    18A     -0.775043
      19A     -0.696076    20A     -0.655321    21A     -0.637029
      22A     -0.616093    23A     -0.602003    24A     -0.585036
      25A     -0.579800    26A     -0.553782    27A     -0.539831
      28A     -0.534491    29A     -0.506138    30A     -0.496254
      31A     -0.486078    32A     -0.474366    33A     -0.468516
      34A     -0.459276    35A     -0.453306    36A     -0.442517
      37A     -0.426066

  @DF-RHF Final Energy:  -388.42720758580452

   => Energetics <=

    Nuclear Repulsion Energy =            461.1026990893695370
    One-Electron Energy =               -1440.4847993275873250
    Two-Electron Energy =                 590.9548926524131502
    DFT Exchange-Correlation Energy =       0.0000000000000000
    Empirical Dispersion Energy =           0.0000000000000000
    PCM Polarization Energy =               0.0000000000000000
    EFP Energy =                            0.0000000000000000
    Total Energy =                       -388.4272075858046946
    Molecular point group: c1
  Basis Set: CC-PVTZ
  Basis Set:

  -Total Gradient:
     Atom            X                  Y                   Z
    ------   -----------------  -----------------  -----------------
       1        0.000010410244    -0.000009388984     0.000007113891
       2        0.000017831153    -0.000012073713    -0.000010078743
       3       -0.000016752394     0.000007317387     0.000031958983
       4       -0.000001957221     0.000010403623    -0.000020550369
       5       -0.000005068665     0.000012410152    -0.000006387563
       6        0.000002247263     0.000002249098    -0.000005368574
       7        0.000010616249    -0.000004605146     0.000015875917
       8       -0.000004797879    -0.000001404967     0.000001471022
       9       -0.000003886979     0.000006666428    -0.000005096358
      10        0.000255857932     0.003602148988    -0.000162499324
      11        0.000005787102    -0.000023961866     0.000000056062
      12        0.000001312226     0.000009204518     0.000000123959
      13       -0.000928605090    -0.002144559815    -0.001990871343
      14        0.000009017029    -0.002538182999     0.000647569902
      15        0.000000089989     0.000010626477    -0.000002991588
      16        0.000653179426     0.001070991557     0.001493752676
      17       -0.000006165586    -0.000001512602     0.000007371435
      18        0.000000363989     0.000005348126    -0.000011273573
      19        0.000002270748     0.000005972826     0.000005966505
      20        0.000005458038    -0.000004281310     0.000006462520
      21       -0.000008654421     0.000000547423    -0.000001394967
      22        0.000001124719    -0.000003449179    -0.000001305973
      23        0.000001252634     0.000007527714    -0.000000317865
      24       -0.000003082634     0.000000284487    -0.000004495150
      25        0.000002064556    -0.000000765871     0.000006422718
      26       -0.000000363074    -0.000001047898    -0.000000546596
      27        0.000000450653    -0.000006464455    -0.000000967604

  **** Optimization is complete! (in 7 steps) ****
    Final optimized geometry and variables:
    Molecular point group: c1

    Geometry (in Angstrom), charge = 0, multiplicity = 1:

    H            2.378741117131     2.199898506361    -0.524749985601
    O            3.165509430174     1.788142374409    -0.829731052798
    C            3.483849168216     0.687849280124    -0.019159888691
    C            2.561085554323    -0.504158153820    -0.224479902007
    H            4.496079815205     0.411132392457    -0.281352665418
    H            3.490823323875     0.978570819926     1.029566443094
    C            1.114400895803    -0.257514571716     0.197383672143
    H            2.592937326823    -0.788921584717    -1.271847596845
    H            2.963752670039    -1.340007417187     0.342413907840
    C            0.226868340255    -1.484122864814     0.000140003533
    H            0.711919770312     0.574462007404    -0.370312524459
    H            1.090414277528     0.037840836092     1.245138612503
    C           -1.203340879402    -1.358735364805     0.531286642348
    H            0.198696795923    -1.751973822642    -1.053311544772
    H            0.693396740623    -2.329947932024     0.498745883731
    C           -1.993973336384    -0.158660337360     0.013496265060
    H           -1.739419076529    -2.270542669745     0.284385690950
    H           -1.173655718257    -1.312272635183     1.617754504459
    C           -3.451326733258    -0.165658663252     0.467753906497
    H           -1.959408412501    -0.142447687457    -1.074095787139
    H           -1.527870890430     0.763129038288     0.347002948423
    C           -4.240498857233     1.041432416596    -0.028016543574
    H           -3.931066259972    -1.076449501428     0.120359742633
    H           -3.488050972154    -0.198251076045     1.553414387079
    H           -4.249520149037     1.084697080328    -1.112094610428
    H           -5.269920066110     1.003733335202     0.309449372920
    H           -3.807925074619     1.968115644130     0.334549636601

  Mulliken Charges: (a.u.)
   Center  Symbol    Alpha    Beta     Spin     Total
       1     H     0.39234  0.39234  0.00000  0.21532
       2     O     4.20551  4.20551  0.00000 -0.41101
       3     C     2.98005  2.98005  0.00000  0.03990
       4     C     3.08976  3.08976  0.00000 -0.17953
       5     H     0.44844  0.44844  0.00000  0.10312
       6     H     0.46984  0.46984  0.00000  0.06031
       7     C     3.10437  3.10437  0.00000 -0.20874
       8     H     0.45088  0.45088  0.00000  0.09824
       9     H     0.45486  0.45486  0.00000  0.09028
      10     C     3.09776  3.09776  0.00000 -0.19552
      11     H     0.45441  0.45441  0.00000  0.09118
      12     H     0.45314  0.45314  0.00000  0.09371
      13     C     3.09733  3.09733  0.00000 -0.19467
      14     H     0.45072  0.45072  0.00000  0.09855
      15     H     0.44934  0.44934  0.00000  0.10131
      16     C     3.09013  3.09013  0.00000 -0.18026
      17     H     0.44828  0.44828  0.00000  0.10344
      18     H     0.45352  0.45352  0.00000  0.09296
      19     C     3.08445  3.08445  0.00000 -0.16890
      20     H     0.45361  0.45361  0.00000  0.09277
      21     H     0.45432  0.45432  0.00000  0.09137
      22     C     3.14975  3.14975  0.00000 -0.29951
      23     H     0.45344  0.45344  0.00000  0.09311
      24     H     0.45476  0.45476  0.00000  0.09047
      25     H     0.45485  0.45485  0.00000  0.09030
      26     H     0.44820  0.44820  0.00000  0.10360
      27     H     0.45591  0.45591  0.00000  0.08819

   Total alpha = 37.00000, Total beta = 37.00000, Total charge =  0.00000

*** Psi4 exiting successfully. Buy a developer a beer!
