  ==> Input File <==

--------------------------------------------------------------------------
set {
	reference rhf
	basis cc-pvtz
}

set_num_threads( 4 )
memory 2 gb

molecule MOL {
0 1

H	 2.796317	 -0.308360	 -0.527274
O	 1.958224	 -0.745100	 -0.551651
C	 1.050374	 0.054877	 0.000135
C	 -0.318151	 -0.570512	 0.000144
O	 1.328150	 1.121921	 0.427014
C	 -1.454884	 0.441630	 -0.000560
H	 -0.371613	 -1.223646	 -0.864985
H	 -0.371920	 -1.222758	 0.865929
C	 -2.822577	 -0.232186	 0.000063
H	 -1.359760	 1.084704	 -0.867077
H	 -1.359641	 1.085996	 0.864983
H	 -2.954352	 -0.858985	 -0.875745
H	 -3.615886	 0.505352	 0.000019
H	 -2.953878	 -0.858359	 0.876394

	symmetry c1
}
set optking {
	frozen_dihedral = ("
		2 3 4 7
	")
}

ee = optimize('scf')
oeprop('DIPOLE', 'QUADRUPOLE', 'MULLIKEN_CHARGES')
f=open( 'psi4out.xyz', 'w' )
f.write( "14  " )
f.write( str(ee) + "\n" )
f.write( MOL.save_string_xyz() )
f.close()
--------------------------------------------------------------------------

    Molecular point group: c1
  Charge       = 0
  Multiplicity = 1
  Basis Set: CC-PVTZ
  Basis Set:
  @DF-RHF Final Energy:  -306.00024436590689
    Total Energy =                       -306.0002443659068376
    Molecular point group: c1
  Basis Set: CC-PVTZ
  Basis Set:
  Basis Set: CC-PVTZ
  Basis Set:
  @DF-RHF Final Energy:  -306.00036369775853
    Total Energy =                       -306.0003636977584733
  Basis Set: CC-PVTZ
  Basis Set:
  Basis Set: CC-PVTZ
  Basis Set:
  @DF-RHF Final Energy:  -306.00033963650230
    Total Energy =                       -306.0003396365024741
  Basis Set: CC-PVTZ
  Basis Set:
  Basis Set: CC-PVTZ
  Basis Set:
  @DF-RHF Final Energy:  -306.00045254396298
    Total Energy =                       -306.0004525439628651
  Basis Set: CC-PVTZ
  Basis Set:
  Charge       = 0
  Multiplicity = 1
  Basis Set: CC-PVTZ
  Basis Set:

    Orbital Energies (a.u.)
    -----------------------

    Doubly Occupied:

       1A    -20.605444     2A    -20.539968     3A    -11.374097
       4A    -11.239563     5A    -11.225373     6A    -11.215906
       7A     -1.478364     8A     -1.369307     9A     -1.084640
      10A     -0.980848    11A     -0.858999    12A     -0.795582
      13A     -0.705231    14A     -0.691727    15A     -0.665284
      16A     -0.620980    17A     -0.596743    18A     -0.574557
      19A     -0.547104    20A     -0.508603    21A     -0.493109
      22A     -0.484674    23A     -0.481567    24A     -0.446504

  @DF-RHF Final Energy:  -306.00045301724526

   => Energetics <=

    Nuclear Repulsion Energy =            240.4002343096519780
    One-Electron Energy =                -893.6330239516097436
    Two-Electron Energy =                 347.2323366247122749
    DFT Exchange-Correlation Energy =       0.0000000000000000
    Empirical Dispersion Energy =           0.0000000000000000
    PCM Polarization Energy =               0.0000000000000000
    EFP Energy =                            0.0000000000000000
    Total Energy =                       -306.0004530172454906
    Molecular point group: c1
  Basis Set: CC-PVTZ
  Basis Set:

  -Total Gradient:
     Atom            X                  Y                   Z
    ------   -----------------  -----------------  -----------------
       1       -0.000005725254     0.000005715478     0.000002180759
       2       -0.000123843127     0.000333794941    -0.000914234920
       3        0.000272249313    -0.000604341199     0.001391434850
       4       -0.000560641910     0.001265335884    -0.001117922681
       5       -0.000013295731    -0.000070135276    -0.000028383133
       6        0.000015871330    -0.000017843266     0.000016355955
       7        0.000398392375    -0.000889560095     0.000662893360
       8        0.000009724782    -0.000011079803     0.000014536588
       9       -0.000005880588    -0.000002329560    -0.000020368666
      10       -0.000004951491     0.000003590807    -0.000006797908
      11        0.000016236852    -0.000013580461    -0.000000122486
      12       -0.000007078529    -0.000004255860     0.000001105132
      13        0.000001802301     0.000000338045    -0.000002141023
      14        0.000007139676     0.000004350365     0.000001464176

  **** Optimization is complete! (in 5 steps) ****
    Final optimized geometry and variables:
    Molecular point group: c1

    Geometry (in Angstrom), charge = 0, multiplicity = 1:

    H            2.817485741935    -0.312479149545    -0.434617697537
    O            1.979051623154    -0.742949440615    -0.511390887699
    C            1.051908071489     0.047375136014     0.020249319733
    C           -0.315928989997    -0.580976296038    -0.006217715871
    O            1.313440576559     1.109972562735     0.468832621101
    C           -1.451458740661     0.434578013072     0.017919412663
    H           -0.377644472579    -1.239429130392    -0.863097854415
    H           -0.365939153265    -1.223687452053     0.869445219015
    C           -2.820441030440    -0.235572333117     0.045129405112
    H           -1.375317968176     1.076401376160    -0.853235729497
    H           -1.333399535676     1.077032150621     0.880523700244
    H           -2.970076876734    -0.866032621660    -0.825037170543
    H           -3.611604868551     0.504204101102     0.056681537842
    H           -2.936141488821    -0.856961504874     0.926985194267

  Mulliken Charges: (a.u.)
   Center  Symbol    Alpha    Beta     Spin     Total
       1     H     0.38135  0.38135  0.00000  0.23729
       2     O     4.15906  4.15906  0.00000 -0.31813
       3     C     2.80833  2.80833  0.00000  0.38334
       4     C     3.09956  3.09956  0.00000 -0.19912
       5     O     4.19329  4.19329  0.00000 -0.38658
       6     C     3.08196  3.08196  0.00000 -0.16392
       7     H     0.43673  0.43673  0.00000  0.12654
       8     H     0.44304  0.44304  0.00000  0.11393
       9     C     3.15002  3.15002  0.00000 -0.30004
      10     H     0.44999  0.44999  0.00000  0.10003
      11     H     0.44119  0.44119  0.00000  0.11762
      12     H     0.45544  0.45544  0.00000  0.08913
      13     H     0.44523  0.44523  0.00000  0.10954
      14     H     0.45481  0.45481  0.00000  0.09038

   Total alpha = 24.00000, Total beta = 24.00000, Total charge = -0.00000
