  ==> Input File <==

--------------------------------------------------------------------------
set {
	reference rhf
	basis 6-31G*
}

set_num_threads( 4 )
memory 2 gb

molecule MOL {
0 1

H	 -2.205318	 -0.286622	 -0.644682
O	 -1.422729	 -0.573567	 -0.196946
C	 -0.731407	 0.539437	 0.309156
C	 0.680193	 0.672443	 -0.251532
H	 -1.319765	 1.404033	 0.030086
H	 -0.700012	 0.506517	 1.397677
C	 1.599139	 -0.492137	 0.118598
H	 0.616402	 0.758534	 -1.332349
H	 1.107032	 1.602637	 0.117369
H	 1.239738	 -1.428634	 -0.297334
H	 2.601428	 -0.335055	 -0.265730
H	 1.674954	 -0.608418	 1.197020

	symmetry c1
}
set optking {
	frozen_dihedral = ("
		1 2 3 4
	")
}

ee = optimize('scf')
oeprop('DIPOLE', 'QUADRUPOLE', 'MULLIKEN_CHARGES')
f=open( 'psi4out.xyz', 'w' )
f.write( "12  " )
f.write( str(ee) + "\n" )
f.write( MOL.save_string_xyz() )
f.close()
--------------------------------------------------------------------------

    Molecular point group: c1
  Charge       = 0
  Multiplicity = 1
  Basis Set: 6-31G*
  Basis Set:
  @DF-RHF Final Energy:  -193.10693325131444
    Total Energy =                       -193.1069332513144445
    Molecular point group: c1
  Basis Set: 6-31G*
  Basis Set:
  Basis Set: 6-31G*
  Basis Set:
  @DF-RHF Final Energy:  -193.10808786830776
    Total Energy =                       -193.1080878683076776
  Basis Set: 6-31G*
  Basis Set:
  Basis Set: 6-31G*
  Basis Set:
  @DF-RHF Final Energy:  -193.10848276112799
    Total Energy =                       -193.1084827611279309
  Basis Set: 6-31G*
  Basis Set:
  Basis Set: 6-31G*
  Basis Set:
  @DF-RHF Final Energy:  -193.10848849639845
    Total Energy =                       -193.1084884963984223
  Basis Set: 6-31G*
  Basis Set:
  Basis Set: 6-31G*
  Basis Set:
  @DF-RHF Final Energy:  -193.10849112816663
    Total Energy =                       -193.1084911281666905
  Basis Set: 6-31G*
  Basis Set:
  Charge       = 0
  Multiplicity = 1
  Basis Set: 6-31G*
  Basis Set:

    Orbital Energies (a.u.)
    -----------------------

    Doubly Occupied:

       1A    -20.551827     2A    -11.268560     3A    -11.214056
       4A    -11.202403     5A     -1.358290     6A     -1.045898
       7A     -0.917822     8A     -0.802598     9A     -0.699311
      10A     -0.639869    11A     -0.596817    12A     -0.566533
      13A     -0.535222    14A     -0.506819    15A     -0.479606
      16A     -0.465586    17A     -0.428178

  @DF-RHF Final Energy:  -193.10849142506470

   => Energetics <=

    Nuclear Repulsion Energy =            133.0839212381249013
    One-Electron Energy =                -525.8260331104595480
    Two-Electron Energy =                 199.6336204472699478
    DFT Exchange-Correlation Energy =       0.0000000000000000
    Empirical Dispersion Energy =           0.0000000000000000
    PCM Polarization Energy =               0.0000000000000000
    EFP Energy =                            0.0000000000000000
    Total Energy =                       -193.1084914250646989
    Molecular point group: c1
  Basis Set: 6-31G*
  Basis Set:

  -Total Gradient:
     Atom            X                  Y                   Z
    ------   -----------------  -----------------  -----------------
       1       -0.000108922250    -0.000006634443     0.000182046495
       2        0.000159867859    -0.000003106977    -0.000184421118
       3       -0.000098683409     0.000075657820    -0.000154021853
       4        0.000044941406    -0.000036452546     0.000163745677
       5       -0.000009738141    -0.000027392616    -0.000015234104
       6        0.000031867759     0.000015118361     0.000000758298
       7        0.000001984006     0.000005395358    -0.000010656320
       8       -0.000023912673    -0.000000155660     0.000018158291
       9        0.000013911262     0.000002345224     0.000003084777
      10       -0.000004910301    -0.000019840451    -0.000002792374
      11       -0.000015520165    -0.000013476345    -0.000003399143
      12        0.000009114653     0.000008542276     0.000002731373

  **** Optimization is complete! (in 6 steps) ****
    Final optimized geometry and variables:
    Molecular point group: c1

    Geometry (in Angstrom), charge = 0, multiplicity = 1:

    H           -2.134072697765    -0.381153056795    -0.658795559071
    O           -1.353651076879    -0.615410152519    -0.181418167799
    C           -0.723189849493     0.541323210872     0.319606757124
    C            0.688551180612     0.671014083693    -0.234251955156
    H           -1.299390192848     1.428991376557     0.071674691312
    H           -0.691434228534     0.470863915455     1.403263047208
    C            1.582192626054    -0.513245709603     0.129798184145
    H            0.630620648735     0.769165511375    -1.315278763704
    H            1.123321314423     1.593761421169     0.145258163712
    H            1.163706880689    -1.439992989114    -0.243774104314
    H            2.575251933077    -0.394467501813    -0.292357254728
    H            1.688961405856    -0.604126700566     1.207458008035

  Mulliken Charges: (a.u.)
   Center  Symbol    Alpha    Beta     Spin     Total
       1     H     0.27914  0.27914  0.00000  0.44171
       2     O     4.37226  4.37226  0.00000 -0.74451
       3     C     2.99911  2.99911  0.00000  0.00178
       4     C     3.15547  3.15547  0.00000 -0.31093
       5     H     0.42969  0.42969  0.00000  0.14063
       6     H     0.42369  0.42369  0.00000  0.15263
       7     C     3.24224  3.24224  0.00000 -0.48449
       8     H     0.42174  0.42174  0.00000  0.15652
       9     H     0.42550  0.42550  0.00000  0.14899
      10     H     0.40641  0.40641  0.00000  0.18718
      11     H     0.42119  0.42119  0.00000  0.15762
      12     H     0.42356  0.42356  0.00000  0.15288

   Total alpha = 17.00000, Total beta = 17.00000, Total charge = -0.00000
