  ==> Input File <==

--------------------------------------------------------------------------
set {
	reference rhf
	basis 6-31G*
}

set_num_threads( 4 )
memory 2 gb

molecule MOL {
0 1

H	 2.522670	 -1.109532	 1.094674
N	 1.539869	 -0.922750	 1.118669
C	 0.815145	 -1.918375	 0.350412
C	 1.266569	 0.419777	 0.639462
H	 1.034087	 -2.901550	 0.753152
H	 1.095145	 -1.916411	 -0.705636
C	 -0.677053	 -1.643038	 0.459793
H	 1.812423	 1.129841	 1.251526
H	 1.573910	 0.563356	 -0.399080
C	 -0.225908	 0.693666	 0.748664
H	 -0.992490	 -1.792713	 1.496709
H	 -1.222830	 -2.349488	 -0.157136
N	 -0.975995	 -0.298722	 0.000000
H	 -0.445884	 1.674703	 0.340348
H	 -0.511121	 0.700541	 1.804933
C	 -2.393863	 -0.024976	 0.000000
H	 -2.854032	 -0.467193	 -0.876721
H	 -2.854032	 -0.467193	 0.876721
H	 -2.623281	 1.044943	 0.000000

	symmetry c1
}
set optking {
	frozen_dihedral = ("
		7 13 16 19
	")
}

ee = optimize('scf')
oeprop('DIPOLE', 'QUADRUPOLE', 'MULLIKEN_CHARGES')
f=open( 'psi4out.xyz', 'w' )
f.write( "19  " )
f.write( str(ee) + "\n" )
f.write( MOL.save_string_xyz() )
f.close()
--------------------------------------------------------------------------

    Molecular point group: c1
  Charge       = 0
  Multiplicity = 1
  Basis Set: 6-31G*
  Basis Set:
  @DF-RHF Final Energy:  -305.19674056602889
    Total Energy =                       -305.1967405660288932
    Molecular point group: c1
  Basis Set: 6-31G*
  Basis Set:
  Basis Set: 6-31G*
  Basis Set:
  @DF-RHF Final Energy:  -305.19750102548380
    Total Energy =                       -305.1975010254838594
  Basis Set: 6-31G*
  Basis Set:
  Basis Set: 6-31G*
  Basis Set:
  @DF-RHF Final Energy:  -305.19761591538366
    Total Energy =                       -305.1976159153834374
  Basis Set: 6-31G*
  Basis Set:
  Basis Set: 6-31G*
  Basis Set:
  @DF-RHF Final Energy:  -305.19761800966745
    Total Energy =                       -305.1976180096671669
  Basis Set: 6-31G*
  Basis Set:
  Charge       = 0
  Multiplicity = 1
  Basis Set: 6-31G*
  Basis Set:

    Orbital Energies (a.u.)
    -----------------------

    Doubly Occupied:

       1A    -15.541074     2A    -15.536414     3A    -11.238420
       4A    -11.238370     5A    -11.237270     6A    -11.237010
       7A    -11.234965     8A     -1.246767     9A     -1.185177
      10A     -1.022523    11A     -0.964246    12A     -0.860261
      13A     -0.857548    14A     -0.757871    15A     -0.691061
      16A     -0.632232    17A     -0.625710    18A     -0.607592
      19A     -0.603511    20A     -0.579288    21A     -0.543493
      22A     -0.530837    23A     -0.511911    24A     -0.489658
      25A     -0.465273    26A     -0.456444    27A     -0.363096
      28A     -0.346097

  @DF-RHF Final Energy:  -305.19761845678818

   => Energetics <=

    Nuclear Repulsion Energy =            339.7923383921906861
    One-Electron Energy =               -1086.7716720865728348
    Two-Electron Energy =                 441.7817152375939713
    DFT Exchange-Correlation Energy =       0.0000000000000000
    Empirical Dispersion Energy =           0.0000000000000000
    PCM Polarization Energy =               0.0000000000000000
    EFP Energy =                            0.0000000000000000
    Total Energy =                       -305.1976184567881774
    Molecular point group: c1
  Basis Set: 6-31G*
  Basis Set:

  -Total Gradient:
     Atom            X                  Y                   Z
    ------   -----------------  -----------------  -----------------
       1       -0.000000490490     0.000010062983     0.000001111456
       2       -0.000003756220    -0.000000731854    -0.000001588665
       3        0.000003279218     0.000001760877     0.000012334424
       4        0.000022417831     0.000007493789    -0.000007605864
       5       -0.000000685379    -0.000000723150    -0.000000100932
       6       -0.000002801587     0.000000245626     0.000002421256
       7        0.000213399028     0.001233942317     0.003279937429
       8        0.000001878923     0.000000365364     0.000001563795
       9        0.000000779103     0.000000368851    -0.000001414482
      10       -0.000016765216    -0.000031561789    -0.000019098087
      11        0.000001339228    -0.000001629237     0.000001984227
      12       -0.000007085365     0.000001421186     0.000000371611
      13       -0.000316621978    -0.001649112816    -0.003298160413
      14        0.000005503510    -0.000002216949     0.000002095786
      15       -0.000005457065     0.000001045361     0.000005488702
      16        0.000080330719     0.000399397879    -0.004683832308
      17        0.000012192449    -0.000000638100     0.000010364151
      18       -0.000008491018    -0.000006106652     0.000002657648
      19        0.000021034310     0.000036616315     0.004691470265

  **** Optimization is complete! (in 5 steps) ****
    Final optimized geometry and variables:
    Molecular point group: c1

    Geometry (in Angstrom), charge = 0, multiplicity = 1:

    H            2.628807829752    -0.580668197625     0.613215187866
    N            1.645692632453    -0.396363292906     0.642402766328
    C            0.918847865347    -1.390542699281    -0.125474525289
    C            1.366764511311     0.947352944303     0.170170882720
    H            1.134500848223    -2.374099616331     0.278342315982
    H            1.198632417327    -1.390819971705    -1.181482105553
    C           -0.571883380026    -1.109673954600    -0.015410514124
    H            1.910924511643     1.656508510086     0.784951729490
    H            1.672028229815     1.097231530205    -0.868090675416
    C           -0.126337166886     1.218091306809     0.280510092329
    H           -0.886364838964    -1.246884145516     1.023030771462
    H           -1.121732356057    -1.821590759948    -0.623351253091
    N           -0.873041346936     0.231969647446    -0.484334671106
    H           -0.342811254725     2.203267016418    -0.118342296315
    H           -0.411897273333     1.213923755778     1.336594529675
    C           -2.298993557440     0.488965868887    -0.479624858995
    H           -2.769883292132     0.041070198318    -1.347972876055
    H           -2.789739245321     0.094003638331     0.414126899372
    H           -2.485033309801     1.556245748696    -0.485151812697

  Mulliken Charges: (a.u.)
   Center  Symbol    Alpha    Beta     Spin     Total
       1     H     0.32955  0.32955  0.00000  0.34090
       2     N     3.85428  3.85428  0.00000 -0.70856
       3     C     3.06292  3.06292  0.00000 -0.12585
       4     C     3.06329  3.06329  0.00000 -0.12659
       5     H     0.41766  0.41766  0.00000  0.16467
       6     H     0.42752  0.42752  0.00000  0.14496
       7     C     3.05726  3.05726  0.00000 -0.11452
       8     H     0.41770  0.41770  0.00000  0.16460
       9     H     0.42752  0.42752  0.00000  0.14496
      10     C     3.05702  3.05702  0.00000 -0.11404
      11     H     0.42718  0.42718  0.00000  0.14565
      12     H     0.41833  0.41833  0.00000  0.16334
      13     N     3.78707  3.78707  0.00000 -0.57415
      14     H     0.41825  0.41825  0.00000  0.16351
      15     H     0.42806  0.42806  0.00000  0.14387
      16     C     3.14024  3.14024  0.00000 -0.28048
      17     H     0.41530  0.41530  0.00000  0.16941
      18     H     0.43198  0.43198  0.00000  0.13603
      19     H     0.41885  0.41885  0.00000  0.16229

   Total alpha = 28.00000, Total beta = 28.00000, Total charge =  0.00000
