  ==> Input File <==

--------------------------------------------------------------------------
set {
	reference rhf
	basis 6-31G*
}

set_num_threads( 1 )
memory 2 gb

molecule MOL {
0 1

O	 3.249501	 1.087916	 -0.274155
C	 2.701189	 0.057885	 -0.047330
C	 1.212038	 -0.180139	 -0.114886
O	 3.347903	 -1.046386	 0.304773
C	 0.424359	 1.060898	 -0.529020
H	 1.052848	 -1.009199	 -0.796435
H	 0.896950	 -0.535130	 0.863070
C	 -1.095313	 0.865214	 -0.500780
H	 0.737120	 1.369305	 -1.522088
H	 0.689864	 1.876387	 0.134988
C	 -1.636905	 -0.131407	 -1.529631
H	 -1.562625	 1.831808	 -0.674099
H	 -1.402636	 0.556602	 0.497379
C	 -3.164958	 -0.208965	 -1.535673
H	 -1.287458	 0.152636	 -2.521108
H	 -1.235802	 -1.123883	 -1.337070
C	 -3.717242	 -1.205634	 -2.556341
H	 -3.574487	 0.778613	 -1.741124
H	 -3.515568	 -0.482494	 -0.541714
C	 -5.244000	 -1.274236	 -2.558650
H	 -3.367024	 -0.934360	 -3.550021
H	 -3.312426	 -2.194225	 -2.349961
H	 -5.604952	 -1.988802	 -3.291941
H	 -5.679470	 -0.307813	 -2.796530
H	 -5.624367	 -1.576790	 -1.587024
C	 4.728119	 -1.109107	 -0.004993
H	 4.882018	 -1.033965	 -1.071845
H	 5.068212	 -2.067527	 0.355250
H	 5.265056	 -0.311663	 0.488280

	symmetry c1
}
set optking {
	frozen_dihedral = ("
		21 17 14 11,
		17 14 11 15,
		15 11 8 5,
		6 3 5 9,
		11 8 5 9,
		2 4 26 27,
		6 3 2 1
	")
}

ee = energy('scf')
oeprop('DIPOLE', 'QUADRUPOLE', 'MULLIKEN_CHARGES')
f=open( 'psi4out.xyz', 'w' )
f.write( "29  " )
f.write( str(ee) + "\n" )
f.write( MOL.save_string_xyz() )
f.close()
--------------------------------------------------------------------------

    Molecular point group: c1

    Geometry (in Angstrom), charge = 0, multiplicity = 1:

       Center              X                  Y                   Z               Mass
    ------------   -----------------  -----------------  -----------------  -----------------
           O          3.133773376789     1.289628294982     0.571017443085    15.994914619560
           C          2.585461376789     0.259597294982     0.797842443085    12.000000000000
           C          1.096310376789     0.021573294982     0.730286443085    12.000000000000
           O          3.232175376789    -0.844673705018     1.149945443085    15.994914619560
           C          0.308631376789     1.262610294982     0.316152443085    12.000000000000
           H          0.937120376789    -0.807486705018     0.048737443085     1.007825032070
           H          0.781222376789    -0.333417705018     1.708242443085     1.007825032070
           C         -1.211040623211     1.066926294982     0.344392443085    12.000000000000
           H          0.621392376789     1.571017294982    -0.676915556915     1.007825032070
           H          0.574136376789     2.078099294982     0.980160443085     1.007825032070
           C         -1.752632623211     0.070305294982    -0.684458556915    12.000000000000
           H         -1.678352623211     2.033520294982     0.171073443085     1.007825032070
           H         -1.518363623211     0.758314294982     1.342551443085     1.007825032070
           C         -3.280685623211    -0.007252705018    -0.690500556915    12.000000000000
           H         -1.403185623211     0.354348294982    -1.675935556915     1.007825032070
           H         -1.351529623211    -0.922170705018    -0.491897556915     1.007825032070
           C         -3.832969623211    -1.003921705018    -1.711168556915    12.000000000000
           H         -3.690214623211     0.980325294982    -0.895951556915     1.007825032070
           H         -3.631295623211    -0.280781705018     0.303458443085     1.007825032070
           C         -5.359727623211    -1.072523705018    -1.713477556915    12.000000000000
           H         -3.482751623211    -0.732647705018    -2.704848556915     1.007825032070
           H         -3.428153623211    -1.992512705018    -1.504788556915     1.007825032070
           H         -5.720679623211    -1.787089705018    -2.446768556915     1.007825032070
           H         -5.795197623211    -0.106100705018    -1.951357556915     1.007825032070
           H         -5.740094623211    -1.375077705018    -0.741851556915     1.007825032070
           C          4.612391376789    -0.907394705018     0.840179443085    12.000000000000
           H          4.766290376789    -0.832252705018    -0.226672556915     1.007825032070
           H          4.952484376789    -1.865814705018     1.200422443085     1.007825032070
           H          5.149328376789    -0.109950705018     1.333452443085     1.007825032070

  Charge       = 0
  Multiplicity = 1
  Basis Set: 6-31G*
  Basis Set:

    Orbital Energies (a.u.)
    -----------------------

    Doubly Occupied:

       1A    -20.601180     2A    -20.545969     3A    -11.372209
       4A    -11.281687     5A    -11.234797     6A    -11.219112
       7A    -11.217682     8A    -11.216228     9A    -11.216073
      10A    -11.214646    11A    -11.209229    12A     -1.468391
      13A     -1.362692    14A     -1.098164    15A     -1.066835
      16A     -1.019302    17A     -0.977403    18A     -0.929209
      19A     -0.861986    20A     -0.799494    21A     -0.790695
      22A     -0.763871    23A     -0.700735    24A     -0.681755
      25A     -0.671764    26A     -0.651330    27A     -0.628661
      28A     -0.605304    29A     -0.595745    30A     -0.581668
      31A     -0.567882    32A     -0.548012    33A     -0.534759
      34A     -0.530191    35A     -0.513529    36A     -0.512004
      37A     -0.497774    38A     -0.478088    39A     -0.470237
      40A     -0.462519    41A     -0.460454    42A     -0.453666
      43A     -0.440768    44A     -0.434913

  @DF-RHF Final Energy:  -501.04158927054687

   => Energetics <=

    Nuclear Repulsion Energy =            610.4997865903198999
    One-Electron Energy =               -1892.1055281266483235
    Two-Electron Energy =                 780.5641522657767837
    DFT Exchange-Correlation Energy =       0.0000000000000000
    Empirical Dispersion Energy =           0.0000000000000000
    PCM Polarization Energy =               0.0000000000000000
    EFP Energy =                            0.0000000000000000
    Total Energy =                       -501.0415892705516399

  Mulliken Charges: (a.u.)
   Center  Symbol    Alpha    Beta     Spin     Total
       1     O     4.28366  4.28366  0.00000 -0.56732
       2     C     2.60454  2.60454  0.00000  0.79093
       3     C     3.21031  3.21031  0.00000 -0.42062
       4     O     4.30809  4.30809  0.00000 -0.61619
       5     C     3.15403  3.15403  0.00000 -0.30806
       6     H     0.39996  0.39996  0.00000  0.20008
       7     H     0.40052  0.40052  0.00000  0.19896
       8     C     3.15657  3.15657  0.00000 -0.31314
       9     H     0.41348  0.41348  0.00000  0.17305
      10     H     0.40838  0.40838  0.00000  0.18323
      11     C     3.15507  3.15507  0.00000 -0.31014
      12     H     0.41824  0.41824  0.00000  0.16351
      13     H     0.42368  0.42368  0.00000  0.15265
      14     C     3.15030  3.15030  0.00000 -0.30060
      15     H     0.42280  0.42280  0.00000  0.15441
      16     H     0.42373  0.42373  0.00000  0.15254
      17     C     3.15145  3.15145  0.00000 -0.30290
      18     H     0.42327  0.42327  0.00000  0.15346
      19     H     0.42388  0.42388  0.00000  0.15225
      20     C     3.23935  3.23935  0.00000 -0.47870
      21     H     0.42288  0.42288  0.00000  0.15424
      22     H     0.42349  0.42349  0.00000  0.15302
      23     H     0.41924  0.41924  0.00000  0.16151
      24     H     0.42152  0.42152  0.00000  0.15697
      25     H     0.42178  0.42178  0.00000  0.15645
      26     C     3.09354  3.09354  0.00000 -0.18708
      27     H     0.41346  0.41346  0.00000  0.17308
      28     H     0.40802  0.40802  0.00000  0.18396
      29     H     0.40477  0.40477  0.00000  0.19046

   Total alpha = 44.00000, Total beta = 44.00000, Total charge =  0.00000
