  ==> Input File <==

--------------------------------------------------------------------------
set {
	reference rhf
	basis 6-31G*
}

set_num_threads( 4 )
memory 2 gb

molecule MOL {
0 1

H	 1.064606	 2.242914	 0.975434
O	 1.327608	 1.333265	 1.010392
C	 0.709265	 0.639550	 -0.033818
C	 -0.793441	 0.596080	 0.058728
H	 1.105312	 -0.369114	 -0.003041
H	 0.995716	 1.056749	 -0.998658
C	 -1.530462	 -0.493172	 -0.025500
H	 -1.268471	 1.554324	 0.202247
H	 -1.092586	 -1.461565	 -0.186463
H	 -2.602122	 -0.450675	 0.050101

	symmetry c1
}
set optking {
	frozen_dihedral = ("
		5 3 4 7
	")
}

ee = optimize('scf')
oeprop('DIPOLE', 'QUADRUPOLE', 'MULLIKEN_CHARGES')
f=open( 'psi4out.xyz', 'w' )
f.write( "10  " )
f.write( str(ee) + "\n" )
f.write( MOL.save_string_xyz() )
f.close()
--------------------------------------------------------------------------

    Molecular point group: c1
  Charge       = 0
  Multiplicity = 1
  Basis Set: 6-31G*
  Basis Set:
  @DF-RHF Final Energy:  -191.91447988270841
    Total Energy =                       -191.9144798827084060
    Molecular point group: c1
  Basis Set: 6-31G*
  Basis Set:
  Basis Set: 6-31G*
  Basis Set:
  @DF-RHF Final Energy:  -191.91477521567438
    Total Energy =                       -191.9147752156743536
  Basis Set: 6-31G*
  Basis Set:
  Basis Set: 6-31G*
  Basis Set:
  @DF-RHF Final Energy:  -191.91483317602302
    Total Energy =                       -191.9148331760230803
  Basis Set: 6-31G*
  Basis Set:
  Basis Set: 6-31G*
  Basis Set:
  @DF-RHF Final Energy:  -191.91483734395456
    Total Energy =                       -191.9148373439545594
  Basis Set: 6-31G*
  Basis Set:
  Charge       = 0
  Multiplicity = 1
  Basis Set: 6-31G*
  Basis Set:

    Orbital Energies (a.u.)
    -----------------------

    Doubly Occupied:

       1A    -20.557523     2A    -11.276872     3A    -11.231763
       4A    -11.224303     5A     -1.364363     6A     -1.062795
       7A     -0.920202     8A     -0.779466     9A     -0.688288
      10A     -0.653655    11A     -0.619297    12A     -0.568033
      13A     -0.537607    14A     -0.494911    15A     -0.441485
      16A     -0.370082

  @DF-RHF Final Energy:  -191.91483818551944

   => Energetics <=

    Nuclear Repulsion Energy =            117.2122259806147753
    One-Electron Energy =                -492.6728382088280114
    Two-Electron Energy =                 183.5457740426936653
    DFT Exchange-Correlation Energy =       0.0000000000000000
    Empirical Dispersion Energy =           0.0000000000000000
    PCM Polarization Energy =               0.0000000000000000
    EFP Energy =                            0.0000000000000000
    Total Energy =                       -191.9148381855195566
    Molecular point group: c1
  Basis Set: 6-31G*
  Basis Set:

  -Total Gradient:
     Atom            X                  Y                   Z
    ------   -----------------  -----------------  -----------------
       1       -0.000026989379     0.000010806360    -0.000005076727
       2        0.000089239789     0.000044110642     0.000057013467
       3       -0.000135031411    -0.000096214418    -0.000869479793
       4        0.000081748006    -0.000037343017     0.000736624042
       5        0.000015953016     0.000024743109     0.000457674338
       6        0.000005237053     0.000018993385     0.000051895981
       7       -0.000013388749     0.000082433760    -0.000445208972
       8       -0.000005669472    -0.000020411621    -0.000004917274
       9       -0.000014948219    -0.000006673610     0.000009229902
      10        0.000003849368    -0.000020444589     0.000012245039

  **** Optimization is complete! (in 5 steps) ****
    Final optimized geometry and variables:
    Molecular point group: c1

    Geometry (in Angstrom), charge = 0, multiplicity = 1:

    H            1.101383085260     1.678371186420     0.690813647738
    O            1.313407503755     0.756902867759     0.742859149308
    C            0.709949824550     0.072360698129    -0.325875068944
    C           -0.790527020447     0.037889863310    -0.220657034256
    H            1.108713467427    -0.932466898302    -0.303566851037
    H            1.003810101110     0.521995742085    -1.273296427544
    C           -1.524030587287    -1.053262005468    -0.304646529992
    H           -1.274932098125     0.994316251263    -0.089177229857
    H           -1.080549068982    -2.026342847433    -0.431230475284
    H           -2.597365708725    -1.020195505429    -0.248418278504

  Mulliken Charges: (a.u.)
   Center  Symbol    Alpha    Beta     Spin     Total
       1     H     0.28259  0.28259  0.00000  0.43483
       2     O     4.36594  4.36594  0.00000 -0.73189
       3     C     3.01290  3.01290  0.00000 -0.02580
       4     C     3.07236  3.07236  0.00000 -0.14471
       5     H     0.40934  0.40934  0.00000  0.18131
       6     H     0.42466  0.42466  0.00000  0.15069
       7     C     3.19732  3.19732  0.00000 -0.39463
       8     H     0.41343  0.41343  0.00000  0.17313
       9     H     0.41170  0.41170  0.00000  0.17660
      10     H     0.40976  0.40976  0.00000  0.18047

   Total alpha = 16.00000, Total beta = 16.00000, Total charge = -0.00000
