  ==> Input File <==

--------------------------------------------------------------------------
set {
	reference rhf
	basis 6-31G*
}

set_num_threads( 4 )
memory 2 gb

molecule MOL {
0 1

H	 3.449859	 -0.025435	 -0.821321
C	 2.738537	 -0.241289	 -0.032426
C	 1.322923	 0.120767	 -0.479465
H	 2.820262	 -1.296730	 0.207865
H	 3.033508	 0.327130	 0.844207
C	 0.306652	 -0.176050	 0.621399
H	 1.055465	 -0.445190	 -1.365798
H	 1.265943	 1.172573	 -0.733864
N	 -1.068537	 -0.011044	 0.085269
H	 0.372515	 -1.192590	 0.973735
H	 0.391664	 0.520566	 1.441230
O	 -1.656956	 -0.997225	 -0.235017
O	 -1.478635	 1.104830	 -0.018026

	symmetry c1
}
set optking {
	frozen_dihedral = ("
		7 3 6 9
	")
}

ee = optimize('scf')
oeprop('DIPOLE', 'QUADRUPOLE', 'MULLIKEN_CHARGES')
f=open( 'psi4out.xyz', 'w' )
f.write( "13  " )
f.write( str(ee) + "\n" )
f.write( MOL.save_string_xyz() )
f.close()
--------------------------------------------------------------------------

    Molecular point group: c1
  Charge       = 0
  Multiplicity = 1
  Basis Set: 6-31G*
  Basis Set:
  @DF-RHF Final Energy:  -321.73531308573592
    Total Energy =                       -321.7353130857359815
    Molecular point group: c1
  Basis Set: 6-31G*
  Basis Set:
  Basis Set: 6-31G*
  Basis Set:
  @DF-RHF Final Energy:  -321.72604941896293
    Total Energy =                       -321.7260494189629298
  Basis Set: 6-31G*
  Basis Set:
  Basis Set: 6-31G*
  Basis Set:
  @DF-RHF Final Energy:  -321.73511325421157
    Total Energy =                       -321.7351132542114556
  Basis Set: 6-31G*
  Basis Set:
  Basis Set: 6-31G*
  Basis Set:
  @DF-RHF Final Energy:  -321.73530058128847
    Total Energy =                       -321.7353005812884703
  Basis Set: 6-31G*
  Basis Set:
  Basis Set: 6-31G*
  Basis Set:
  @DF-RHF Final Energy:  -321.73533215351370
    Total Energy =                       -321.7353321535136956
  Basis Set: 6-31G*
  Basis Set:
  Basis Set: 6-31G*
  Basis Set:
  @DF-RHF Final Energy:  -321.73534300442020
    Total Energy =                       -321.7353430044203151
  Basis Set: 6-31G*
  Basis Set:
  Charge       = 0
  Multiplicity = 1
  Basis Set: 6-31G*
  Basis Set:

    Orbital Energies (a.u.)
    -----------------------

    Doubly Occupied:

       1A    -20.601852     2A    -20.599262     3A    -15.846916
       4A    -11.299210     5A    -11.257100     6A    -11.240029
       7A     -1.630544     8A     -1.416004     9A     -1.135371
      10A     -1.028585    11A     -0.884299    12A     -0.833191
      13A     -0.758489    14A     -0.734935    15A     -0.723069
      16A     -0.670739    17A     -0.604876    18A     -0.589743
      19A     -0.550462    20A     -0.522098    21A     -0.514161
      22A     -0.483520    23A     -0.473708    24A     -0.447943

  @DF-RHF Final Energy:  -321.73534385922324

   => Energetics <=

    Nuclear Repulsion Energy =            247.4431061101930993
    One-Electron Energy =                -928.6646859047989437
    Two-Electron Energy =                 359.4862359353826378
    DFT Exchange-Correlation Energy =       0.0000000000000000
    Empirical Dispersion Energy =           0.0000000000000000
    PCM Polarization Energy =               0.0000000000000000
    EFP Energy =                            0.0000000000000000
    Total Energy =                       -321.7353438592232351
    Molecular point group: c1
  Basis Set: 6-31G*
  Basis Set:

  -Total Gradient:
     Atom            X                  Y                   Z
    ------   -----------------  -----------------  -----------------
       1       -0.000001511236     0.000002749119     0.000000952262
       2       -0.000006371993     0.000003115109    -0.000001109212
       3        0.001184971396    -0.001991453511     0.000570919550
       4        0.000014021005    -0.000007178691    -0.000009647506
       5       -0.000016689413    -0.000007377108    -0.000001336024
       6       -0.000170716545     0.001849656491     0.000281871101
       7       -0.000965436175     0.001294156842    -0.000531805768
       8        0.000002879205     0.000005841362     0.000002878858
       9       -0.000018140547    -0.001154439891    -0.000234705266
      10        0.000023896315     0.000009690724     0.000014580569
      11       -0.000011609952     0.000011664463    -0.000005706437
      12       -0.000015725507     0.000015905813    -0.000043327274
      13       -0.000019566548    -0.000032330723    -0.000043564854

  **** Optimization is complete! (in 7 steps) ****
    Final optimized geometry and variables:
    Molecular point group: c1

    Geometry (in Angstrom), charge = 0, multiplicity = 1:

    H            3.455268718723     0.030505513255    -0.803385724721
    C            2.742888851842    -0.205979584427    -0.021404789390
    C            1.325889424536     0.147683411488    -0.468373319063
    H            2.834627957421    -1.263927115844     0.203042841812
    H            3.028175051931     0.351893036810     0.865352854753
    C            0.307926993059    -0.149214876314     0.631830829072
    H            1.056800260841    -0.413763135383    -1.357318207229
    H            1.262884837706     1.198236487080    -0.726586525871
    N           -1.066468602160     0.023125719552     0.096638740159
    H            0.366642495548    -1.169064572575     0.975835810950
    H            0.397638045963     0.538740057141     1.458574610122
    O           -1.677793474677    -0.961512167435    -0.182360179793
    O           -1.453558543948     1.142780589113    -0.047600670557

  Mulliken Charges: (a.u.)
   Center  Symbol    Alpha    Beta     Spin     Total
       1     H     0.40732  0.40732  0.00000  0.18535
       2     C     3.24811  3.24811  0.00000 -0.49623
       3     C     3.17259  3.17259  0.00000 -0.34518
       4     H     0.41401  0.41401  0.00000  0.17198
       5     H     0.41511  0.41511  0.00000  0.16978
       6     C     3.08331  3.08331  0.00000 -0.16661
       7     H     0.40107  0.40107  0.00000  0.19786
       8     H     0.39749  0.39749  0.00000  0.20501
       9     N     3.22382  3.22382  0.00000  0.55236
      10     H     0.38792  0.38792  0.00000  0.22416
      11     H     0.38857  0.38857  0.00000  0.22286
      12     O     4.22929  4.22929  0.00000 -0.45858
      13     O     4.23139  4.23139  0.00000 -0.46278

   Total alpha = 24.00000, Total beta = 24.00000, Total charge = -0.00000
