  ==> Input File <==

--------------------------------------------------------------------------
set {
	reference rhf
	basis 6-31G*
}

set_num_threads( 4 )
memory 2 gb

molecule MOL {
0 1

O	 -2.923604	 1.101063	 -0.637619
C	 -2.668563	 0.129746	 -0.000350
C	 -3.658295	 -0.571609	 0.893966
O	 -1.481751	 -0.454642	 0.000584
H	 -4.510289	 -0.876602	 0.298192
H	 -3.222917	 -1.432290	 1.379880
H	 -4.013546	 0.131112	 1.638184
C	 -0.334255	 0.388708	 0.000906
C	 0.891947	 -0.504646	 0.000751
H	 -0.365390	 1.025305	 -0.873475
H	 -0.365484	 1.024911	 0.875569
C	 2.191998	 0.301789	 0.000897
H	 0.855148	 -1.151283	 -0.871571
H	 0.855132	 -1.151660	 0.872805
C	 3.441114	 -0.581407	 0.000108
H	 2.215074	 0.954890	 -0.869742
H	 2.215465	 0.953923	 0.872248
C	 4.739576	 0.224112	 -0.001102
H	 3.419457	 -1.233487	 -0.870178
H	 3.420834	 -1.233096	 0.870717
H	 4.804918	 0.861552	 -0.878265
H	 5.606527	 -0.429058	 -0.001824
H	 4.806469	 0.861674	 0.875853

	symmetry c1
}
set optking {
	frozen_dihedral = ("
		1 2 4 8
	")
}

ee = optimize('scf')
oeprop('DIPOLE', 'QUADRUPOLE', 'MULLIKEN_CHARGES')
f=open( 'psi4out.xyz', 'w' )
f.write( "23  " )
f.write( str(ee) + "\n" )
f.write( MOL.save_string_xyz() )
f.close()
--------------------------------------------------------------------------

    Molecular point group: c1
  Charge       = 0
  Multiplicity = 1
  Basis Set: 6-31G*
  Basis Set:
  @DF-RHF Final Energy:  -422.97042036122900
    Total Energy =                       -422.9704203612292304
    Molecular point group: c1
  Basis Set: 6-31G*
  Basis Set:
  Basis Set: 6-31G*
  Basis Set:
  @DF-RHF Final Energy:  -422.96774490258093
    Total Energy =                       -422.9677449025813303
  Basis Set: 6-31G*
  Basis Set:
  Basis Set: 6-31G*
  Basis Set:
  @DF-RHF Final Energy:  -422.97109700889018
    Total Energy =                       -422.9710970088901831
  Basis Set: 6-31G*
  Basis Set:
  Basis Set: 6-31G*
  Basis Set:
  @DF-RHF Final Energy:  -422.97115803574383
    Total Energy =                       -422.9711580357441107
  Basis Set: 6-31G*
  Basis Set:
  @DF-RHF Final Energy:  -422.97118860692865
    Total Energy =                       -422.9711886069286493
  @DF-RHF Final Energy:  -422.97110834379760
    Total Energy =                       -422.9711083437972547
  @DF-RHF Final Energy:  -422.94889745477070
    Total Energy =                       -422.9488974547712132
  @DF-RHF Final Energy:  -422.96817298206491
    Total Energy =                       -422.9681729820649707
  @DF-RHF Final Energy:  -422.97123947873820
    Total Energy =                       -422.9712394787379708
  @DF-RHF Final Energy:  -422.97149876380502
    Total Energy =                       -422.9714987638043340
  @DF-RHF Final Energy:  -422.95681248707251
    Total Energy =                       -422.9568124870721704
  @DF-RHF Final Energy:  -422.97078838004450
    Total Energy =                       -422.9707883800447235
  @DF-RHF Final Energy:  -422.97225083886502
    Total Energy =                       -422.9722508388647384
  @DF-RHF Final Energy:  -422.97246326015932
    Total Energy =                       -422.9724632601597705
  @DF-RHF Final Energy:  -422.97254477773333
    Total Energy =                       -422.9725447777332192
  @DF-RHF Final Energy:  -422.97257467034319
    Total Energy =                       -422.9725746703437608
  @DF-RHF Final Energy:  -422.97257577460545
    Total Energy =                       -422.9725757746052750
  @DF-RHF Final Energy:  -422.97256484861509
    Total Energy =                       -422.9725648486156615
  @DF-RHF Final Energy:  -422.97257969244481
    Total Energy =                       -422.9725796924444694
  @DF-RHF Final Energy:  -422.97252261852179
    Total Energy =                       -422.9725226185221345
  @DF-RHF Final Energy:  -422.97259226562301
    Total Energy =                       -422.9725922656227795
  @DF-RHF Final Energy:  -422.97259232561464
    Total Energy =                       -422.9725923256153237
  @DF-RHF Final Energy:  -422.97259209825063
    Total Energy =                       -422.9725920982508569
  @DF-RHF Final Energy:  -422.97229122998726
    Total Energy =                       -422.9722912299870359
  @DF-RHF Final Energy:  -422.97221488871730
    Total Energy =                       -422.9722148887169624
  @DF-RHF Final Energy:  -422.97257817024752
    Total Energy =                       -422.9725781702472887
  @DF-RHF Final Energy:  -422.97258713866029
    Total Energy =                       -422.9725871386601739
  @DF-RHF Final Energy:  -422.97259111082553
    Total Energy =                       -422.9725911108253058
  @DF-RHF Final Energy:  -422.97259184557555
    Total Energy =                       -422.9725918455757210
  @DF-RHF Final Energy:  -422.97258960592438
    Total Energy =                       -422.9725896059244405
  @DF-RHF Final Energy:  -422.97258807389670
    Total Energy =                       -422.9725880738971000
  @DF-RHF Final Energy:  -422.97254448528344
    Total Energy =                       -422.9725444852840610
  @DF-RHF Final Energy:  -422.97258964048990
    Total Energy =                       -422.9725896404901277
  @DF-RHF Final Energy:  -422.97258852096525
    Total Energy =                       -422.9725885209661556
  @DF-RHF Final Energy:  -422.97258884954681
    Total Energy =                       -422.9725888495469235
  @DF-RHF Final Energy:  -422.97258989664738
    Total Energy =                       -422.9725898966476052
  Basis Set: 6-31G*
  Basis Set:
  @DF-RHF Final Energy:  -422.97259019784218
    Total Energy =                       -422.9725901978428055
  Basis Set: 6-31G*
  Basis Set:
  Basis Set: 6-31G*
  Basis Set:
  @DF-RHF Final Energy:  -422.97258881646928
    Total Energy =                       -422.9725888164688286
  Basis Set: 6-31G*
  Basis Set:
  Basis Set: 6-31G*
  Basis Set:
  @DF-RHF Final Energy:  -422.97258753645986
    Total Energy =                       -422.9725875364603098
  Basis Set: 6-31G*
  Basis Set:
  Charge       = 0
  Multiplicity = 1
  Basis Set: 6-31G*
  Basis Set:

    Orbital Energies (a.u.)
    -----------------------

    Doubly Occupied:

       1A    -20.593194     2A    -20.547787     3A    -11.375090
       4A    -11.284939     5A    -11.233385     6A    -11.225207
       7A    -11.224615     8A    -11.222295     9A    -11.213530
      10A     -1.462449    11A     -1.363158    12A     -1.094573
      13A     -1.041344    14A     -1.004667    15A     -0.931253
      16A     -0.841523    17A     -0.803382    18A     -0.773838
      19A     -0.694892    20A     -0.683886    21A     -0.662988
      22A     -0.647380    23A     -0.609948    24A     -0.589077
      25A     -0.583701    26A     -0.568095    27A     -0.557820
      28A     -0.543880    29A     -0.518038    30A     -0.504325
      31A     -0.494068    32A     -0.478658    33A     -0.472059
      34A     -0.468602    35A     -0.449414    36A     -0.434357

  @DF-RHF Final Energy:  -422.97259014324368

   => Energetics <=

    Nuclear Repulsion Energy =            449.1138317264004627
    One-Electron Energy =               -1465.7780060810164287
    Two-Electron Energy =                 593.6915842113726285
    DFT Exchange-Correlation Energy =       0.0000000000000000
    Empirical Dispersion Energy =           0.0000000000000000
    PCM Polarization Energy =               0.0000000000000000
    EFP Energy =                            0.0000000000000000
    Total Energy =                       -422.9725901432433375
    Molecular point group: c1
  Basis Set: 6-31G*
  Basis Set:

  -Total Gradient:
     Atom            X                  Y                   Z
    ------   -----------------  -----------------  -----------------
       1       -0.002887758558    -0.004750175498    -0.005988092216
       2        0.004091914543     0.007244248468     0.010723095927
       3        0.000782251832     0.000089485682     0.000565874629
       4       -0.001132377277    -0.002686653759    -0.013640640466
       5        0.000022882841    -0.000083926328     0.000091569692
       6       -0.000355885284    -0.000003712380     0.000052989573
       7       -0.000140755960     0.000181384652     0.000508043936
       8       -0.000328834439    -0.000011902978     0.007645797520
       9       -0.000101192186     0.000031011612     0.000015949570
      10        0.000032822510    -0.000031238415     0.000019410595
      11        0.000020138204    -0.000031073962     0.000023569921
      12        0.000106270083    -0.000109364596     0.000022580887
      13       -0.000042695815     0.000016372212    -0.000017240296
      14        0.000018540268     0.000017250726    -0.000013334656
      15       -0.000102856940     0.000087013723     0.000036144992
      16       -0.000007011358    -0.000041134012     0.000011880850
      17        0.000050129778     0.000049059316    -0.000031115028
      18        0.000019995348     0.000025612354     0.000064257433
      19        0.000017237999     0.000081126538    -0.000017221199
      20       -0.000045442383    -0.000052784145    -0.000001807322
      21        0.000006625755     0.000002059091    -0.000037273203
      22       -0.000000886690    -0.000003220740    -0.000002838295
      23       -0.000023112253    -0.000019437564    -0.000031602844

    Molecular point group: c1

    Geometry (in Angstrom), charge = 0, multiplicity = 1:

    O           -2.953989634935     1.050549858719    -0.715096267723
    C           -2.683295908627     0.116807532403    -0.035587269216
    C           -3.652607490400    -0.598115602536     0.866797588691
    O           -1.482572159734    -0.467016601010    -0.029798255931
    H           -4.645372612364    -0.193989653072     0.735248232884
    H           -3.648584420031    -1.659896580402     0.650755048718
    H           -3.339706557740    -0.473117014817     1.898978217089
    C           -0.338411174956     0.376486919054    -0.096634121755
    C            0.892410238514    -0.504294501106     0.000979678215
    H           -0.354499682668     0.933885431860    -1.023003644260
    H           -0.379560729134     1.084237187488     0.724362091009
    C            2.189140207280     0.305788341085    -0.050433816130
    H            0.868618397759    -1.223482007053    -0.812814604230
    H            0.844407409177    -1.073349417313     0.925071134153
    C            3.441400968722    -0.567702285350     0.045387480516
    H            2.223128859467     0.879424096934    -0.974810893310
    H            2.197763723645     1.032509965364     0.760374059756
    C            4.736472331462     0.242417858415     0.005131924541
    H            3.439920708972    -1.287168107199    -0.770160426452
    H            3.405212858778    -1.147743992059     0.964873591680
    H            4.817460513846     0.806879164021    -0.919500751740
    H            5.605738061086    -0.403849194379     0.074944246350
    H            4.782819277196     0.949336134485     0.828543450651

  Mulliken Charges: (a.u.)
   Center  Symbol    Alpha    Beta     Spin     Total
       1     O     4.27292  4.27292  0.00000 -0.54584
       2     C     2.61844  2.61844  0.00000  0.76313
       3     C     3.28341  3.28341  0.00000 -0.56682
       4     O     4.31657  4.31657  0.00000 -0.63315
       5     H     0.39785  0.39785  0.00000  0.20429
       6     H     0.39901  0.39901  0.00000  0.20198
       7     H     0.40365  0.40365  0.00000  0.19270
       8     C     2.99529  2.99529  0.00000  0.00942
       9     C     3.16443  3.16443  0.00000 -0.32887
      10     H     0.40591  0.40591  0.00000  0.18817
      11     H     0.42001  0.42001  0.00000  0.15998
      12     C     3.16036  3.16036  0.00000 -0.32073
      13     H     0.41195  0.41195  0.00000  0.17610
      14     H     0.41495  0.41495  0.00000  0.17009
      15     C     3.15147  3.15147  0.00000 -0.30293
      16     H     0.42002  0.42002  0.00000  0.15995
      17     H     0.42193  0.42193  0.00000  0.15614
      18     C     3.23991  3.23991  0.00000 -0.47981
      19     H     0.42077  0.42077  0.00000  0.15846
      20     H     0.42156  0.42156  0.00000  0.15687
      21     H     0.42059  0.42059  0.00000  0.15883
      22     H     0.41782  0.41782  0.00000  0.16436
      23     H     0.42116  0.42116  0.00000  0.15768

   Total alpha = 36.00000, Total beta = 36.00000, Total charge = -0.00000
