  ==> Input File <==

--------------------------------------------------------------------------
set {
	reference rhf
	basis 6-31G*
}

set_num_threads( 1 )
memory 2 gb

molecule MOL {
0 1

H	 1.948703	 -1.807183	 2.741472
O	 1.759917	 -1.683838	 1.816323
C	 0.975921	 -0.612993	 1.693623
C	 0.624473	 -0.343591	 0.253101
O	 0.622114	 0.021498	 2.633441
C	 -0.265902	 0.883932	 0.072916
H	 1.559674	 -0.252756	 -0.289597
H	 0.142691	 -1.238258	 -0.133174
C	 -1.728698	 0.646073	 0.462102
H	 -0.209144	 1.219470	 -0.958188
H	 0.135059	 1.692851	 0.673903
C	 -2.482460	 -0.343073	 -0.431425
H	 -2.245265	 1.602650	 0.432430
H	 -1.779332	 0.308348	 1.496285
C	 -3.960546	 -0.461025	 -0.060175
H	 -2.395034	 -0.026811	 -1.468912
H	 -2.024850	 -1.327147	 -0.371646
H	 -4.472726	 -1.168004	 -0.705284
H	 -4.465146	 0.496508	 -0.151489
H	 -4.081218	 -0.800940	 0.964585

	symmetry c1
}
set optking {
	frozen_dihedral = ("
		16 12 9 6,
		12 9 6 10,
		5 3 4 7,
		1 2 3 5
	")
}

ee = energy('scf')
oeprop('DIPOLE', 'QUADRUPOLE', 'MULLIKEN_CHARGES')
f=open( 'psi4out.xyz', 'w' )
f.write( "20  " )
f.write( str(ee) + "\n" )
f.write( MOL.save_string_xyz() )
f.close()
--------------------------------------------------------------------------

    Molecular point group: c1

    Geometry (in Angstrom), charge = 0, multiplicity = 1:

       Center              X                  Y                   Z               Mass
    ------------   -----------------  -----------------  -----------------  -----------------
           H          2.482565177407    -1.542989516872     1.903256882287     1.007825032070
           O          2.293779177407    -1.419644516872     0.978107882287    15.994914619560
           C          1.509783177407    -0.348799516872     0.855407882287    12.000000000000
           C          1.158335177407    -0.079397516872    -0.585114117713    12.000000000000
           O          1.155976177407     0.285691483128     1.795225882287    15.994914619560
           C          0.267960177407     1.148125483128    -0.765299117713    12.000000000000
           H          2.093536177407     0.011437483128    -1.127812117713     1.007825032070
           H          0.676553177407    -0.974064516872    -0.971389117713     1.007825032070
           C         -1.194835822593     0.910266483128    -0.376113117713    12.000000000000
           H          0.324718177407     1.483663483128    -1.796403117713     1.007825032070
           H          0.668921177407     1.957044483128    -0.164312117713     1.007825032070
           C         -1.948597822593    -0.078879516872    -1.269640117713    12.000000000000
           H         -1.711402822593     1.866843483128    -0.405785117713     1.007825032070
           H         -1.245469822593     0.572541483128     0.658069882287     1.007825032070
           C         -3.426683822593    -0.196831516872    -0.898390117713    12.000000000000
           H         -1.861171822593     0.237382483128    -2.307127117713     1.007825032070
           H         -1.490987822593    -1.062953516872    -1.209861117713     1.007825032070
           H         -3.938863822593    -0.903810516872    -1.543499117713     1.007825032070
           H         -3.931283822593     0.760701483128    -0.989704117713     1.007825032070
           H         -3.547355822593    -0.536746516872     0.126369882287     1.007825032070

  Charge       = 0
  Multiplicity = 1
  Basis Set: 6-31G*
  Basis Set:

    Orbital Energies (a.u.)
    -----------------------

    Doubly Occupied:

       1A    -20.613497     2A    -20.552773     3A    -11.381941
       4A    -11.239732     5A    -11.222553     6A    -11.217164
       7A    -11.213012     8A    -11.209474     9A     -1.475685
      10A     -1.366971    11A     -1.094326    12A     -1.038418
      13A     -0.957696    14A     -0.869747    15A     -0.815509
      16A     -0.773237    17A     -0.702070    18A     -0.689057
      19A     -0.662523    20A     -0.633621    21A     -0.600712
      22A     -0.593167    23A     -0.574568    24A     -0.554817
      25A     -0.532672    26A     -0.511347    27A     -0.501494
      28A     -0.482568    29A     -0.466165    30A     -0.462308
      31A     -0.453566    32A     -0.441330

  @DF-RHF Final Energy:  -383.94742180547155

   => Energetics <=

    Nuclear Repulsion Energy =            385.3086089215628363
    One-Electron Energy =               -1286.7047191775870942
    Two-Electron Energy =                 517.4486884505533908
    DFT Exchange-Correlation Energy =       0.0000000000000000
    Empirical Dispersion Energy =           0.0000000000000000
    PCM Polarization Energy =               0.0000000000000000
    EFP Energy =                            0.0000000000000000
    Total Energy =                       -383.9474218054708672

  Mulliken Charges: (a.u.)
   Center  Symbol    Alpha    Beta     Spin     Total
       1     H     0.26786  0.26786  0.00000  0.46428
       2     O     4.35095  4.35095  0.00000 -0.70190
       3     C     2.62392  2.62392  0.00000  0.75215
       4     C     3.21386  3.21386  0.00000 -0.42772
       5     O     4.27945  4.27945  0.00000 -0.55890
       6     C     3.15811  3.15811  0.00000 -0.31621
       7     H     0.39554  0.39554  0.00000  0.20891
       8     H     0.39650  0.39650  0.00000  0.20699
       9     C     3.15922  3.15922  0.00000 -0.31843
      10     H     0.41804  0.41804  0.00000  0.16391
      11     H     0.40536  0.40536  0.00000  0.18928
      12     C     3.15446  3.15446  0.00000 -0.30893
      13     H     0.42013  0.42013  0.00000  0.15973
      14     H     0.40838  0.40838  0.00000  0.18323
      15     C     3.23875  3.23875  0.00000 -0.47750
      16     H     0.42391  0.42391  0.00000  0.15217
      17     H     0.42502  0.42502  0.00000  0.14995
      18     H     0.41942  0.41942  0.00000  0.16117
      19     H     0.42089  0.42089  0.00000  0.15821
      20     H     0.42021  0.42021  0.00000  0.15957

   Total alpha = 32.00000, Total beta = 32.00000, Total charge =  0.00000
