  ==> Input File <==

--------------------------------------------------------------------------
set {
	reference rhf
	basis 6-31G*
}

set_num_threads( 4 )
memory 2 gb

molecule MOL {
0 1

O	 2.376407	 2.110361	 0.131363
C	 1.303100	 2.551799	 0.406865
C	 0.048606	 1.696794	 0.394706
C	 1.122794	 4.006505	 0.789588
C	 0.291004	 0.242674	 0.000989
H	 -0.405546	 1.757494	 1.382861
H	 -0.666828	 2.164350	 -0.280533
C	 -0.994322	 -0.586602	 0.000262
H	 1.012507	 -0.195139	 0.683544
H	 0.750714	 0.212096	 -0.981803
C	 -2.259874	 0.272531	 0.000494
H	 -1.004862	 -1.240012	 -0.870939
H	 -1.005220	 -1.241071	 0.870675
C	 -3.549786	 -0.549746	 -0.000374
H	 -2.250389	 0.926680	 -0.869574
H	 -2.250838	 0.925513	 0.871430
C	 -4.809590	 0.315458	 -0.000369
H	 -3.560515	 -1.202009	 -0.871156
H	 -3.561123	 -1.202955	 0.869711
H	 -4.844746	 0.956611	 -0.876632
H	 -5.706986	 -0.295590	 -0.001609
H	 -4.845960	 0.954827	 0.877144
H	 0.695975	 4.086394	 1.785109
H	 2.078491	 4.511355	 0.765015
H	 0.436589	 4.496004	 0.104644

	symmetry c1
}
set optking {
	frozen_dihedral = ("
		9 5 8 12
	")
}

ee = optimize('scf')
oeprop('DIPOLE', 'QUADRUPOLE', 'MULLIKEN_CHARGES')
f=open( 'psi4out.xyz', 'w' )
f.write( "25  " )
f.write( str(ee) + "\n" )
f.write( MOL.save_string_xyz() )
f.close()
--------------------------------------------------------------------------

    Molecular point group: c1
  Charge       = 0
  Multiplicity = 1
  Basis Set: 6-31G*
  Basis Set:
  @DF-RHF Final Energy:  -387.12337326761661
    Total Energy =                       -387.1233732676163299
    Molecular point group: c1
  Basis Set: 6-31G*
  Basis Set:
  Basis Set: 6-31G*
  Basis Set:
  @DF-RHF Final Energy:  -387.12335183554961
    Total Energy =                       -387.1233518355493288
  Basis Set: 6-31G*
  Basis Set:
  Basis Set: 6-31G*
  Basis Set:
  @DF-RHF Final Energy:  -387.12721660023971
    Total Energy =                       -387.1272166002399899
  Basis Set: 6-31G*
  Basis Set:
  Basis Set: 6-31G*
  Basis Set:
  @DF-RHF Final Energy:  -387.12775225975571
    Total Energy =                       -387.1277522597551979
  Basis Set: 6-31G*
  Basis Set:
  Basis Set: 6-31G*
  Basis Set:
  @DF-RHF Final Energy:  -387.12674282657468
    Total Energy =                       -387.1267428265748549
  Basis Set: 6-31G*
  Basis Set:
  Basis Set: 6-31G*
  Basis Set:
  @DF-RHF Final Energy:  -387.12752077163282
    Total Energy =                       -387.1275207716328168
  Basis Set: 6-31G*
  Basis Set:
  Basis Set: 6-31G*
  Basis Set:
  @DF-RHF Final Energy:  -387.12783507362485
    Total Energy =                       -387.1278350736254197
  Basis Set: 6-31G*
  Basis Set:
  Charge       = 0
  Multiplicity = 1
  Basis Set: 6-31G*
  Basis Set:

    Orbital Energies (a.u.)
    -----------------------

    Doubly Occupied:

       1A    -20.550140     2A    -11.325885     3A    -11.230981
       4A    -11.228004     5A    -11.217883     6A    -11.217546
       7A    -11.217190     8A    -11.216840     9A    -11.211219
      10A     -1.395483    11A     -1.092766    12A     -1.055240
      13A     -1.013178    14A     -0.967584    15A     -0.899517
      16A     -0.817564    17A     -0.786105    18A     -0.726723
      19A     -0.661462    20A     -0.654207    21A     -0.632806
      22A     -0.620977    23A     -0.596350    24A     -0.583386
      25A     -0.567945    26A     -0.561611    27A     -0.542798
      28A     -0.525774    29A     -0.522589    30A     -0.493355
      31A     -0.489834    32A     -0.477592    33A     -0.459375
      34A     -0.454304    35A     -0.446306    36A     -0.400576

  @DF-RHF Final Energy:  -387.12783490998214

   => Energetics <=

    Nuclear Repulsion Energy =            446.0449067016238018
    One-Electron Energy =               -1408.6232934447295975
    Two-Electron Energy =                 575.4505518331234271
    DFT Exchange-Correlation Energy =       0.0000000000000000
    Empirical Dispersion Energy =           0.0000000000000000
    PCM Polarization Energy =               0.0000000000000000
    EFP Energy =                            0.0000000000000000
    Total Energy =                       -387.1278349099823117
    Molecular point group: c1
  Basis Set: 6-31G*
  Basis Set:

  -Total Gradient:
     Atom            X                  Y                   Z
    ------   -----------------  -----------------  -----------------
       1        0.000004383798     0.000007107599     0.000006287645
       2        0.000009308377    -0.000004420980    -0.000015212753
       3       -0.000000956256    -0.000030637223     0.000020349378
       4       -0.000011946699    -0.000007031977    -0.000010707774
       5        0.001717318710    -0.002903559851    -0.005422681038
       6        0.000010397684     0.000007858451    -0.000003954542
       7       -0.000041586350    -0.000004396871    -0.000027892934
       8        0.002558131569    -0.003802231576     0.004299226737
       9       -0.001834761344     0.003039263857     0.003922959556
      10        0.000013698466     0.000003150372    -0.000002801099
      11        0.000023957925     0.000005292527     0.000059332041
      12       -0.002474744538     0.003713569993    -0.002768280178
      13        0.000010756559    -0.000004176779     0.000015234242
      14       -0.000002440511    -0.000014390260    -0.000068016164
      15        0.000056383160     0.000033987790    -0.000011469212
      16       -0.000042344476    -0.000021780759    -0.000016089897
      17        0.000006363293     0.000003680053     0.000037071506
      18       -0.000013090899     0.000003268388    -0.000015788896
      19        0.000007935214    -0.000006658989    -0.000015152673
      20        0.000001390374    -0.000016543098    -0.000001381603
      21        0.000002262686    -0.000001525537     0.000016934437
      22       -0.000002153475     0.000017025210    -0.000002636352
      23        0.000004700088    -0.000007194140     0.000001913827
      24        0.000001870971    -0.000011487187     0.000000222563
      25       -0.000004834318     0.000001830985     0.000002533183

  **** Optimization is complete! (in 8 steps) ****
    Final optimized geometry and variables:
    Molecular point group: c1

    Geometry (in Angstrom), charge = 0, multiplicity = 1:

    O            3.173946041718     0.917309428872    -0.099843031604
    C            2.146236390188     1.436359677237     0.212110228597
    C            0.826049729959     0.685141104136     0.231465368862
    C            2.091907232506     2.896729221080     0.612856048554
    C            0.960594384903    -0.781343007910    -0.185037121410
    H            0.416896621297     0.771403840933     1.236508414472
    H            0.134896706361     1.225686715620    -0.410431646549
    C           -0.344554624411    -1.617010902450    -0.144589065270
    H            1.681618916127    -1.223814578769     0.492341486585
    H            1.399485192943    -0.817386313767    -1.174559155209
    C           -1.668720655539    -0.842423266180    -0.182599925996
    H           -0.350294629013    -2.271954761024    -1.011625522144
    H           -0.343069057987    -2.254593725412     0.734811879160
    C           -2.883982600270    -1.772140202547    -0.211729030454
    H           -1.695734665078    -0.200387820997    -1.061382095396
    H           -1.751599146145    -0.185983329470     0.680177277521
    C           -4.212868582900    -1.017761138193    -0.238374357805
    H           -2.820598645319    -2.421497575153    -1.082146869905
    H           -2.857750473768    -2.425425877226     0.657869441625
    H           -4.285748258660    -0.382193817299    -1.116480546269
    H           -5.054193689173    -1.703578425355    -0.256591438417
    H           -4.322348831431    -0.384033093204     0.637305960535
    H            1.700090978558     2.999216395007     1.620605554527
    H            3.083653168740     3.324602408882     0.565980877295
    H            1.428468491066     3.446624663082    -0.048260372177

  Mulliken Charges: (a.u.)
   Center  Symbol    Alpha    Beta     Spin     Total
       1     O     4.26115  4.26115  0.00000 -0.52231
       2     C     2.73577  2.73577  0.00000  0.52847
       3     C     3.21416  3.21416  0.00000 -0.42833
       4     C     3.28623  3.28623  0.00000 -0.57246
       5     C     3.15148  3.15148  0.00000 -0.30297
       6     H     0.40994  0.40994  0.00000  0.18013
       7     H     0.40832  0.40832  0.00000  0.18336
       8     C     3.15687  3.15687  0.00000 -0.31373
       9     H     0.40977  0.40977  0.00000  0.18045
      10     H     0.40997  0.40997  0.00000  0.18006
      11     C     3.15563  3.15563  0.00000 -0.31125
      12     H     0.41906  0.41906  0.00000  0.16187
      13     H     0.42016  0.42016  0.00000  0.15969
      14     C     3.15090  3.15090  0.00000 -0.30179
      15     H     0.42459  0.42459  0.00000  0.15083
      16     H     0.42473  0.42473  0.00000  0.15055
      17     C     3.23916  3.23916  0.00000 -0.47833
      18     H     0.42220  0.42220  0.00000  0.15561
      19     H     0.42259  0.42259  0.00000  0.15482
      20     H     0.42202  0.42202  0.00000  0.15595
      21     H     0.41860  0.41860  0.00000  0.16281
      22     H     0.42240  0.42240  0.00000  0.15520
      23     H     0.40898  0.40898  0.00000  0.18204
      24     H     0.39658  0.39658  0.00000  0.20683
      25     H     0.40875  0.40875  0.00000  0.18251

   Total alpha = 36.00000, Total beta = 36.00000, Total charge = -0.00000
