  ==> Input File <==

--------------------------------------------------------------------------
set {
	reference rhf
	basis 6-31G*
}

set_num_threads( 1 )
memory 2 gb

molecule MOL {
0 1

O	 -2.042549	 -1.228399	 -0.269030
C	 -1.653912	 -0.146171	 0.050137
C	 -0.332303	 0.024011	 0.778412
C	 -2.438579	 1.106236	 -0.272369
C	 0.845713	 -0.001731	 -0.208243
H	 -0.323783	 0.953829	 1.340327
H	 -0.235459	 -0.796807	 1.480410
C	 0.665271	 0.980520	 -1.366541
H	 0.969906	 -1.007075	 -0.606919
H	 1.756742	 0.232595	 0.334213
C	 1.839416	 0.963476	 -2.344447
H	 -0.253455	 0.745977	 -1.899793
H	 0.540724	 1.984604	 -0.967954
H	 1.968422	 -0.020528	 -2.786199
H	 2.767868	 1.226314	 -1.846114
H	 1.685643	 1.671137	 -3.152900
H	 -3.277823	 0.863061	 -0.908988
H	 -1.806773	 1.843019	 -0.759671
H	 -2.802853	 1.554979	 0.648059

	symmetry c1
}
set optking {
	frozen_dihedral = ("
		11 8 5 9,
		5 3 2 4
	")
}

ee = energy('scf')
oeprop('DIPOLE', 'QUADRUPOLE', 'MULLIKEN_CHARGES')
f=open( 'psi4out.xyz', 'w' )
f.write( "19  " )
f.write( str(ee) + "\n" )
f.write( MOL.save_string_xyz() )
f.close()
--------------------------------------------------------------------------

    Molecular point group: c1

    Geometry (in Angstrom), charge = 0, multiplicity = 1:

       Center              X                  Y                   Z               Mass
    ------------   -----------------  -----------------  -----------------  -----------------
           O         -1.597282207118    -1.476093510805     0.269058700868    15.994914619560
           C         -1.208645207118    -0.393865510805     0.588225700868    12.000000000000
           C          0.112963792882    -0.223683510805     1.316500700868    12.000000000000
           C         -1.993312207118     0.858541489195     0.265719700868    12.000000000000
           C          1.290979792882    -0.249425510805     0.329845700868    12.000000000000
           H          0.121483792882     0.706134489195     1.878415700868     1.007825032070
           H          0.209807792882    -1.044501510805     2.018498700868     1.007825032070
           C          1.110537792882     0.732825489195    -0.828452299132    12.000000000000
           H          1.415172792882    -1.254769510805    -0.068830299132     1.007825032070
           H          2.202008792882    -0.015099510805     0.872301700868     1.007825032070
           C          2.284682792882     0.715781489195    -1.806358299132    12.000000000000
           H          0.191811792882     0.498282489195    -1.361704299132     1.007825032070
           H          0.985990792882     1.736909489195    -0.429865299132     1.007825032070
           H          2.413688792882    -0.268222510805    -2.248110299132     1.007825032070
           H          3.213134792882     0.978619489195    -1.308025299132     1.007825032070
           H          2.130909792882     1.423442489195    -2.614811299132     1.007825032070
           H         -2.832556207118     0.615366489195    -0.370899299132     1.007825032070
           H         -1.361506207118     1.595324489195    -0.221582299132     1.007825032070
           H         -2.357586207118     1.307284489195     1.186147700868     1.007825032070

  Charge       = 0
  Multiplicity = 1
  Basis Set: 6-31G*
  Basis Set:

    Orbital Energies (a.u.)
    -----------------------

    Doubly Occupied:

       1A    -20.547504     2A    -11.324070     3A    -11.230529
       4A    -11.229164     5A    -11.226640     6A    -11.226174
       7A    -11.215931     8A     -1.393319     9A     -1.094867
      10A     -1.025169    11A     -0.986129    12A     -0.890620
      13A     -0.813122    14A     -0.729538    15A     -0.664644
      16A     -0.636514    17A     -0.627953    18A     -0.615232
      19A     -0.581030    20A     -0.571861    21A     -0.564261
      22A     -0.533686    23A     -0.517195    24A     -0.503122
      25A     -0.482621    26A     -0.474202    27A     -0.461262
      28A     -0.397463

  @DF-RHF Final Energy:  -309.06058483123297

   => Energetics <=

    Nuclear Repulsion Energy =            311.4238393179706463
    One-Electron Energy =               -1035.8412339369058373
    Two-Electron Energy =                 415.3568097877019909
    DFT Exchange-Correlation Energy =       0.0000000000000000
    Empirical Dispersion Energy =           0.0000000000000000
    PCM Polarization Energy =               0.0000000000000000
    EFP Energy =                            0.0000000000000000
    Total Energy =                       -309.0605848312332000

  Mulliken Charges: (a.u.)
   Center  Symbol    Alpha    Beta     Spin     Total
       1     O     4.26254  4.26254  0.00000 -0.52508
       2     C     2.74199  2.74199  0.00000  0.51602
       3     C     3.20027  3.20027  0.00000 -0.40053
       4     C     3.29020  3.29020  0.00000 -0.58039
       5     C     3.15477  3.15477  0.00000 -0.30954
       6     H     0.41665  0.41665  0.00000  0.16671
       7     H     0.39943  0.39943  0.00000  0.20115
       8     C     3.16472  3.16472  0.00000 -0.32943
       9     H     0.40852  0.40852  0.00000  0.18296
      10     H     0.41591  0.41591  0.00000  0.16819
      11     C     3.23868  3.23868  0.00000 -0.47736
      12     H     0.41574  0.41574  0.00000  0.16852
      13     H     0.42299  0.42299  0.00000  0.15401
      14     H     0.41781  0.41781  0.00000  0.16438
      15     H     0.42065  0.42065  0.00000  0.15870
      16     H     0.41757  0.41757  0.00000  0.16486
      17     H     0.39791  0.39791  0.00000  0.20418
      18     H     0.40613  0.40613  0.00000  0.18774
      19     H     0.40754  0.40754  0.00000  0.18493

   Total alpha = 28.00000, Total beta = 28.00000, Total charge =  0.00000
