                              Psi4 1.0.54 Driver

  ==> Input File <==

--------------------------------------------------------------------------
set {
	reference rhf
	basis cc-pvtz
}

set_num_threads( 4 )
memory 2 gb

molecule MOL {
0 1

H	 2.472312	 -1.816708	 1.542115
C	 1.917146	 -1.448241	 0.686073
C	 0.803423	 -0.515885	 1.143059
H	 1.502283	 -2.295655	 0.154378
H	 2.621321	 -0.954727	 0.027807
N	 0.000297	 0.000045	 0.046090
H	 0.156151	 -1.069312	 1.809297
H	 1.222898	 0.300214	 1.737999
C	 -1.359159	 0.315706	 0.454404
C	 0.644798	 1.108229	 -0.640255
C	 -2.416729	 -0.286720	 -0.460525
H	 -1.478729	 1.390261	 0.442008
H	 -1.539692	 0.003361	 1.486761
C	 0.233389	 1.231293	 -2.101089
H	 1.714688	 0.955945	 -0.605528
H	 0.456802	 2.052040	 -0.120841
H	 -2.285276	 0.073129	 -1.473515
H	 -2.371743	 -1.368476	 -0.483209
H	 -3.408658	 -0.007405	 -0.121593
H	 0.480351	 0.323730	 -2.637976
H	 -0.829227	 1.406480	 -2.214813
H	 0.753678	 2.060585	 -2.568408

	symmetry c1
}
set optking {
	frozen_dihedral = ("
		3 6 9 11
	")
}

ee,wfn = optimize('scf', return_wfn=True)
oeprop( wfn, 'DIPOLE', 'QUADRUPOLE', 'MULLIKEN_CHARGES')
f=open( 'psi4out.xyz', 'w' )
f.write( "22  " )
f.write( str(ee) + "\n" )
f.write( MOL.save_string_xyz() )
f.close()
--------------------------------------------------------------------------

    Molecular point group: c1
  Charge       = 0
  Multiplicity = 1
  Basis Set: CC-PVTZ
  Basis Set:
  @DF-RHF Final Energy:  -290.47108750064598
    Total Energy =                       -290.4710875006461492
    Molecular point group: c1
  Basis Set: CC-PVTZ
  Basis Set:
  Basis Set: CC-PVTZ
  Basis Set:
  @DF-RHF Final Energy:  -290.47206570019648
    Total Energy =                       -290.4720657001965947
  Basis Set: CC-PVTZ
  Basis Set:
  Basis Set: CC-PVTZ
  Basis Set:
  @DF-RHF Final Energy:  -290.47293173605289
    Total Energy =                       -290.4729317360532832
  Basis Set: CC-PVTZ
  Basis Set:
  Basis Set: CC-PVTZ
  Basis Set:
  @DF-RHF Final Energy:  -290.47312554736965
    Total Energy =                       -290.4731255473698184
  Basis Set: CC-PVTZ
  Basis Set:
  @DF-RHF Final Energy:  -290.47317817668420
    Total Energy =                       -290.4731781766840299
  Basis Set: CC-PVTZ
  Basis Set:
  @DF-RHF Final Energy:  -290.47319633105798
    Total Energy =                       -290.4731963310578067
  Basis Set: CC-PVTZ
  Basis Set:
  Basis Set: CC-PVTZ
  Basis Set:
  @DF-RHF Final Energy:  -290.47320403561463
    Total Energy =                       -290.4732040356143443
  Basis Set: CC-PVTZ
  Basis Set:
  Basis Set: CC-PVTZ
  Basis Set:
  @DF-RHF Final Energy:  -290.47320520589841
    Total Energy =                       -290.4732052058981253
  Basis Set: CC-PVTZ
  Basis Set:
  Charge       = 0
  Multiplicity = 1
  Basis Set: CC-PVTZ
  Basis Set:

    Orbital Energies (a.u.)
    -----------------------

    Doubly Occupied:

       1A    -15.533715     2A    -11.239696     3A    -11.238215
       4A    -11.238180     5A    -11.205162     6A    -11.204285
       7A    -11.200769     8A     -1.224088     9A     -1.027160
      10A     -1.020622    11A     -0.959226    12A     -0.854230
      13A     -0.836241    14A     -0.774049    15A     -0.659881
      16A     -0.636850    17A     -0.617459    18A     -0.600104
      19A     -0.571477    20A     -0.558048    21A     -0.540768
      22A     -0.524702    23A     -0.518310    24A     -0.498370
      25A     -0.490739    26A     -0.480058    27A     -0.464939
      28A     -0.459454    29A     -0.343583

  @DF-RHF Final Energy:  -290.47320527978690

   => Energetics <=

    Nuclear Repulsion Energy =            338.2554576129728616
    One-Electron Energy =               -1062.4165823624130098
    Two-Electron Energy =                 433.6879194696531385
    DFT Exchange-Correlation Energy =       0.0000000000000000
    Empirical Dispersion Energy =           0.0000000000000000
    PCM Polarization Energy =               0.0000000000000000
    EFP Energy =                            0.0000000000000000
    Total Energy =                       -290.4732052797870665
    Molecular point group: c1
  Basis Set: CC-PVTZ
  Basis Set:

  -Total Gradient:
     Atom            X                  Y                   Z
    ------   -----------------  -----------------  -----------------
       1       -0.000000628774    -0.000001655911     0.000002968571
       2        0.000000029086     0.000003800122    -0.000009895384
       3        0.000433943740     0.001403449690     0.000243715345
       4        0.000004893524     0.000013582980     0.000008394583
       5       -0.000013345038    -0.000006470948     0.000001362574
       6       -0.000580358744    -0.001487850183    -0.000701211436
       7        0.000007219810     0.000001180443     0.000000497460
       8       -0.000004294758    -0.000006894773    -0.000010358720
       9        0.000048395969    -0.001047876427     0.001371286358
      10       -0.000012313278     0.000010259743    -0.000007818703
      11        0.000087373377     0.001122365823    -0.000889140075
      12        0.000000609588     0.000008152754     0.000003226566
      13        0.000005472278    -0.000005623855    -0.000003587748
      14        0.000011837095     0.000000982853    -0.000015555677
      15        0.000003170473    -0.000004152706    -0.000000395212
      16        0.000004832362     0.000001103330    -0.000005057731
      17        0.000002452715     0.000003023035    -0.000004459257
      18       -0.000001767981    -0.000007469331    -0.000003451770
      19        0.000002167639     0.000001381465     0.000005281009
      20        0.000003825623     0.000017165963     0.000009158845
      21        0.000005637065    -0.000009158570     0.000001717590
      22       -0.000009151773    -0.000009295497     0.000003322811

  **** Optimization is complete! (in 9 steps) ****
    Final optimized geometry and variables:
    Molecular point group: c1

    Geometry (in Angstrom), charge = 0, multiplicity = 1:

    H            2.456704329570    -1.824339344202     1.844361360637
    C            2.014946764247    -1.411742867269     0.943816846058
    C            0.801790214924    -0.566213624878     1.311598101862
    H            1.719491143751    -2.231579958654     0.300456352217
    H            2.786649745750    -0.846266945866     0.438403228071
    N            0.031231153214    -0.105804731907     0.166010363855
    H            0.150236287885    -1.182143084905     1.917079644170
    H            1.116905530165     0.269009947809     1.945259070696
    C           -1.334786575485     0.272363568755     0.521641229332
    C            0.735316222746     0.927574615942    -0.575424803871
    C           -2.392796492214    -0.363489061259    -0.373208474208
    H           -1.448248344083     1.355696304142     0.507035829409
    H           -1.531810199076    -0.028473833661     1.542699468049
    C            0.151921988901     1.236335313876    -1.947110852207
    H            1.754781686806     0.601783107419    -0.719801069585
    H            0.785832457590     1.853566541849     0.007057659124
    H           -2.270509793469    -0.081604010019    -1.409392906254
    H           -2.332562697336    -1.443892845023    -0.315877699944
    H           -3.385875945915    -0.060628304208    -0.055805418708
    H            0.083142830793     0.336824493680    -2.546560075410
    H           -0.832590883390     1.681629098206    -1.886314723464
    H            0.795012214534     1.941406741063    -2.462009738981

  Mulliken Charges: (a.u.)
   Center  Symbol    Alpha    Beta     Spin     Total
       1     H     0.45116  0.45116  0.00000  0.09769
       2     C     3.14640  3.14640  0.00000 -0.29279
       3     C     3.03665  3.03665  0.00000 -0.07329
       4     H     0.45055  0.45055  0.00000  0.09889
       5     H     0.45534  0.45534  0.00000  0.08932
       6     N     3.61849  3.61849  0.00000 -0.23698
       7     H     0.45369  0.45369  0.00000  0.09261
       8     H     0.46845  0.46845  0.00000  0.06309
       9     C     3.05196  3.05196  0.00000 -0.10392
      10     C     3.03780  3.03780  0.00000 -0.07560
      11     C     3.13217  3.13217  0.00000 -0.26433
      12     H     0.45869  0.45869  0.00000  0.08262
      13     H     0.45080  0.45080  0.00000  0.09840
      14     C     3.15627  3.15627  0.00000 -0.31254
      15     H     0.45237  0.45237  0.00000  0.09526
      16     H     0.46787  0.46787  0.00000  0.06426
      17     H     0.45291  0.45291  0.00000  0.09418
      18     H     0.45399  0.45399  0.00000  0.09201
      19     H     0.45660  0.45660  0.00000  0.08681
      20     H     0.44901  0.44901  0.00000  0.10197
      21     H     0.45233  0.45233  0.00000  0.09534
      22     H     0.44649  0.44649  0.00000  0.10703

   Total alpha = 29.00000, Total beta = 29.00000, Total charge =  0.00000

*** Psi4 exiting successfully. Buy a developer a beer!
