  ==> Input File <==

--------------------------------------------------------------------------
set {
	reference rhf
	basis 6-31G*
}

set_num_threads( 1 )
memory 2 gb

molecule MOL {
0 1

H	 -2.798360	 -0.862255	 -0.071053
N	 -1.863561	 -0.715187	 0.256814
C	 -1.344686	 0.554728	 -0.219830
H	 -1.300452	 -1.461917	 -0.101532
C	 -1.103341	 0.486837	 -1.713242
H	 -2.001355	 1.401587	 -0.015822
H	 -0.398009	 0.750231	 0.274500
O	 -2.337117	 0.313237	 -2.349439
H	 -0.629109	 1.404640	 -2.060199
H	 -0.441735	 -0.346487	 -1.939257
C	 -2.253674	 0.148757	 -3.729132
H	 -3.259833	 0.026002	 -4.106323
H	 -1.802891	 1.016813	 -4.206893
H	 -1.669179	 -0.731086	 -3.989996

	symmetry c1
}
set optking {
	frozen_dihedral = ("
		8 5 3 6,
		5 8 11 13,
		11 8 5 3
	")
}

ee = energy('scf')
oeprop('DIPOLE', 'QUADRUPOLE', 'MULLIKEN_CHARGES')
f=open( 'psi4out.xyz', 'w' )
f.write( "14  " )
f.write( str(ee) + "\n" )
f.write( MOL.save_string_xyz() )
f.close()
--------------------------------------------------------------------------

    Molecular point group: c1

    Geometry (in Angstrom), charge = 0, multiplicity = 1:

       Center              X                  Y                   Z               Mass
    ------------   -----------------  -----------------  -----------------  -----------------
           H         -1.009181267608    -1.001942849134     1.504480607490     1.007825032070
           N         -0.074382267608    -0.854874849134     1.832347607490    14.003074004780
           C          0.444492732392     0.415040150866     1.355703607490    12.000000000000
           H          0.488726732392    -1.601604849134     1.474001607490     1.007825032070
           C          0.685837732392     0.347149150866    -0.137708392510    12.000000000000
           H         -0.212176267608     1.261899150866     1.559711607490     1.007825032070
           H          1.391169732392     0.610543150866     1.850033607490     1.007825032070
           O         -0.547938267608     0.173549150866    -0.773905392510    15.994914619560
           H          1.160069732392     1.264952150866    -0.484665392510     1.007825032070
           H          1.347443732392    -0.486174849134    -0.363723392510     1.007825032070
           C         -0.464495267608     0.009069150866    -2.153598392510    12.000000000000
           H         -1.470654267608    -0.113685849134    -2.530789392510     1.007825032070
           H         -0.013712267608     0.877125150866    -2.631359392510     1.007825032070
           H          0.119999732392    -0.870773849134    -2.414462392510     1.007825032070

  Charge       = 0
  Multiplicity = 1
  Basis Set: 6-31G*
  Basis Set:

    Orbital Energies (a.u.)
    -----------------------

    Doubly Occupied:

       1A    -20.561010     2A    -15.527626     3A    -11.269914
       4A    -11.267775     5A    -11.242457     6A     -1.385137
       7A     -1.175836     8A     -0.999403     9A     -0.910110
      10A     -0.823622    11A     -0.688041    12A     -0.670621
      13A     -0.643082    14A     -0.636519    15A     -0.585704
      16A     -0.546800    17A     -0.526666    18A     -0.512163
      19A     -0.477231    20A     -0.422414    21A     -0.376142

  @DF-RHF Final Energy:  -248.12169843024296

   => Energetics <=

    Nuclear Repulsion Energy =            195.3470395298716937
    One-Electron Energy =                -724.4408822498934342
    Two-Electron Energy =                 280.9721442897795782
    DFT Exchange-Correlation Energy =       0.0000000000000000
    Empirical Dispersion Energy =           0.0000000000000000
    PCM Polarization Energy =               0.0000000000000000
    EFP Energy =                            0.0000000000000000
    Total Energy =                       -248.1216984302421338

  Mulliken Charges: (a.u.)
   Center  Symbol    Alpha    Beta     Spin     Total
       1     H     0.32490  0.32490  0.00000  0.35021
       2     N     3.91797  3.91797  0.00000 -0.83594
       3     C     3.07183  3.07183  0.00000 -0.14365
       4     H     0.33602  0.33602  0.00000  0.32797
       5     C     2.99634  2.99634  0.00000  0.00731
       6     H     0.41061  0.41061  0.00000  0.17878
       7     H     0.41830  0.41830  0.00000  0.16341
       8     O     4.30700  4.30700  0.00000 -0.61401
       9     H     0.43180  0.43180  0.00000  0.13639
      10     H     0.43589  0.43589  0.00000  0.12822
      11     C     3.07910  3.07910  0.00000 -0.15820
      12     H     0.41162  0.41162  0.00000  0.17675
      13     H     0.42879  0.42879  0.00000  0.14243
      14     H     0.42983  0.42983  0.00000  0.14034

   Total alpha = 21.00000, Total beta = 21.00000, Total charge =  0.00000
