  ==> Input File <==

--------------------------------------------------------------------------
set {
	reference rhf
	basis 6-31G*
}

set_num_threads( 1 )
memory 2 gb

molecule MOL {
0 1

H	 -4.389451	 0.341375	 -1.089276
O	 -3.452007	 0.283848	 -0.965577
C	 -3.181085	 -0.079926	 0.364119
C	 -1.765924	 0.277073	 0.805136
H	 -3.327791	 -1.152017	 0.410903
H	 -3.905698	 0.375695	 1.036898
C	 -0.677594	 -0.417312	 -0.014550
H	 -1.637766	 1.358238	 0.744969
H	 -1.659588	 0.017670	 1.857098
C	 0.738335	 -0.034840	 0.421385
H	 -0.814977	 -0.178223	 -1.064632
H	 -0.802730	 -1.495410	 0.071702
C	 1.822265	 -0.738362	 -0.399735
H	 0.853533	 1.043532	 0.342250
H	 0.871597	 -0.279636	 1.474438
C	 3.258060	 -0.455774	 0.057203
H	 1.718003	 -0.459167	 -1.447053
H	 1.651028	 -1.811884	 -0.354513
C	 3.709143	 0.994797	 -0.123830
H	 3.930637	 -1.101717	 -0.501982
H	 3.365259	 -0.739518	 1.102287
H	 3.601178	 1.310569	 -1.158127
H	 4.753787	 1.110486	 0.148516
H	 3.135362	 1.678896	 0.492569

	symmetry c1
}
set optking {
	frozen_dihedral = ("
		20 16 13 17,
		17 13 10 7,
		13 10 7 11,
		11 7 4 3,
		7 4 3 2
	")
}

ee = energy('scf')
oeprop('DIPOLE', 'QUADRUPOLE', 'MULLIKEN_CHARGES')
f=open( 'psi4out.xyz', 'w' )
f.write( "24  " )
f.write( str(ee) + "\n" )
f.write( MOL.save_string_xyz() )
f.close()
--------------------------------------------------------------------------

    Molecular point group: c1

    Geometry (in Angstrom), charge = 0, multiplicity = 1:

       Center              X                  Y                   Z               Mass
    ------------   -----------------  -----------------  -----------------  -----------------
           H         -4.381043155695     0.349065025686    -1.088885268476     1.007825032070
           O         -3.443599155695     0.291538025686    -0.965186268476    15.994914619560
           C         -3.172677155695    -0.072235974314     0.364509731524    12.000000000000
           C         -1.757516155695     0.284763025686     0.805526731524    12.000000000000
           H         -3.319383155695    -1.144326974314     0.411293731524     1.007825032070
           H         -3.897290155695     0.383385025686     1.037288731524     1.007825032070
           C         -0.669186155695    -0.409621974314    -0.014159268476    12.000000000000
           H         -1.629358155695     1.365928025686     0.745359731524     1.007825032070
           H         -1.651180155695     0.025360025686     1.857488731524     1.007825032070
           C          0.746742844305    -0.027149974314     0.421775731524    12.000000000000
           H         -0.806569155695    -0.170532974314    -1.064241268476     1.007825032070
           H         -0.794322155695    -1.487719974314     0.072092731524     1.007825032070
           C          1.830672844305    -0.730671974314    -0.399344268476    12.000000000000
           H          0.861940844305     1.051222025686     0.342640731524     1.007825032070
           H          0.880004844305    -0.271945974314     1.474828731524     1.007825032070
           C          3.266467844305    -0.448083974314     0.057593731524    12.000000000000
           H          1.726410844305    -0.451476974314    -1.446662268476     1.007825032070
           H          1.659435844305    -1.804193974314    -0.354122268476     1.007825032070
           C          3.717550844305     1.002487025686    -0.123439268476    12.000000000000
           H          3.939044844305    -1.094026974314    -0.501591268476     1.007825032070
           H          3.373666844305    -0.731827974314     1.102677731524     1.007825032070
           H          3.609585844305     1.318259025686    -1.157736268476     1.007825032070
           H          4.762194844305     1.118176025686     0.148906731524     1.007825032070
           H          3.143769844305     1.686586025686     0.492959731524     1.007825032070

  Charge       = 0
  Multiplicity = 1
  Basis Set: 6-31G*
  Basis Set:

    Orbital Energies (a.u.)
    -----------------------

    Doubly Occupied:

       1A    -20.550453     2A    -11.267292     3A    -11.214888
       4A    -11.211672     5A    -11.209140     6A    -11.208558
       7A    -11.207162     8A    -11.204821     9A     -1.358088
      10A     -1.085442    11A     -1.045929    12A     -0.983502
      13A     -0.911760    14A     -0.844067    15A     -0.790677
      16A     -0.773341    17A     -0.699574    18A     -0.647096
      19A     -0.629273    20A     -0.610868    21A     -0.586143
      22A     -0.576997    23A     -0.557502    24A     -0.530194
      25A     -0.525157    26A     -0.503347    27A     -0.487753
      28A     -0.483616    29A     -0.466488    30A     -0.454584
      31A     -0.450014    32A     -0.430571    33A     -0.427301

  @DF-RHF Final Energy:  -349.24540496394326

   => Energetics <=

    Nuclear Repulsion Energy =            383.7034986949421977
    One-Electron Energy =               -1234.0310955144825584
    Two-Electron Energy =                 501.0821918555971024
    DFT Exchange-Correlation Energy =       0.0000000000000000
    Empirical Dispersion Energy =           0.0000000000000000
    PCM Polarization Energy =               0.0000000000000000
    EFP Energy =                            0.0000000000000000
    Total Energy =                       -349.2454049639432014

  Mulliken Charges: (a.u.)
   Center  Symbol    Alpha    Beta     Spin     Total
       1     H     0.27993  0.27993  0.00000  0.44014
       2     O     4.37218  4.37218  0.00000 -0.74437
       3     C     2.99522  2.99522  0.00000  0.00956
       4     C     3.16084  3.16084  0.00000 -0.32168
       5     H     0.43063  0.43063  0.00000  0.13875
       6     H     0.43099  0.43099  0.00000  0.13802
       7     C     3.15469  3.15469  0.00000 -0.30938
       8     H     0.41780  0.41780  0.00000  0.16441
       9     H     0.42291  0.42291  0.00000  0.15419
      10     C     3.15417  3.15417  0.00000 -0.30834
      11     H     0.40780  0.40780  0.00000  0.18441
      12     H     0.42563  0.42563  0.00000  0.14874
      13     C     3.15220  3.15220  0.00000 -0.30440
      14     H     0.42127  0.42127  0.00000  0.15745
      15     H     0.42646  0.42646  0.00000  0.14709
      16     C     3.15217  3.15217  0.00000 -0.30434
      17     H     0.42320  0.42320  0.00000  0.15359
      18     H     0.42288  0.42288  0.00000  0.15423
      19     C     3.24096  3.24096  0.00000 -0.48191
      20     H     0.42159  0.42159  0.00000  0.15681
      21     H     0.42417  0.42417  0.00000  0.15166
      22     H     0.42203  0.42203  0.00000  0.15594
      23     H     0.42009  0.42009  0.00000  0.15981
      24     H     0.42018  0.42018  0.00000  0.15964

   Total alpha = 33.00000, Total beta = 33.00000, Total charge = -0.00000
