                              Psi4 1.0.54 Driver

  ==> Input File <==

--------------------------------------------------------------------------
set {
	reference rhf
	basis cc-pvtz
}

set_num_threads( 4 )
memory 2 gb

molecule MOL {
0 1

H	 -3.268214	 -0.875720	 0.463107
C	 -2.806015	 0.000007	 0.024886
N	 -1.391133	 0.000016	 0.301321
H	 -3.029448	 0.000055	 -1.045738
H	 -3.268126	 0.875758	 0.463150
C	 -0.722615	 -1.158809	 -0.249845
C	 -1.106287	 0.135471	 1.713428
H	 -1.105143	 -2.085611	 0.187831
H	 -0.911458	 -1.198431	 -1.316078
C	 0.773395	 -1.079910	 -0.009548
H	 -1.575217	 1.040721	 2.080465
H	 -1.514965	 -0.703103	 2.284939
C	 0.389723	 0.214370	 1.953725
H	 1.242325	 -1.985160	 -0.376586
H	 1.182073	 -0.241336	 -0.581059
N	 1.058241	 -0.944455	 1.402559
H	 0.578566	 0.253991	 3.019958
H	 0.772250	 1.141172	 1.516048
C	 2.473123	 -0.944446	 1.678994
H	 2.922824	 -1.855660	 1.304798
H	 2.640735	 -0.904259	 2.748037
H	 2.994797	 -0.098176	 1.223098

	symmetry c1
}
set optking {
	frozen_dihedral = ("
		6 3 2 4
	")
}

ee,wfn = optimize('scf', return_wfn=True)
oeprop( wfn, 'DIPOLE', 'QUADRUPOLE', 'MULLIKEN_CHARGES')
f=open( 'psi4out.xyz', 'w' )
f.write( "22  " )
f.write( str(ee) + "\n" )
f.write( MOL.save_string_xyz() )
f.close()
--------------------------------------------------------------------------

    Molecular point group: c1
  Charge       = 0
  Multiplicity = 1
  Basis Set: CC-PVTZ
  Basis Set:
  @DF-RHF Final Energy:  -344.34997402074549
    Total Energy =                       -344.3499740207456625
    Molecular point group: c1
  Basis Set: CC-PVTZ
  Basis Set:
  Basis Set: CC-PVTZ
  Basis Set:
  @DF-RHF Final Energy:  -344.35062160623306
    Total Energy =                       -344.3506216062334033
  Basis Set: CC-PVTZ
  Basis Set:
  Basis Set: CC-PVTZ
  Basis Set:
  @DF-RHF Final Energy:  -344.35070036449554
    Total Energy =                       -344.3507003644958786
  Basis Set: CC-PVTZ
  Basis Set:
  Charge       = 0
  Multiplicity = 1
  Basis Set: CC-PVTZ
  Basis Set:

    Orbital Energies (a.u.)
    -----------------------

    Doubly Occupied:

       1A    -15.537789     2A    -15.537674     3A    -11.237618
       4A    -11.237599     5A    -11.236965     6A    -11.236955
       7A    -11.234330     8A    -11.234295     9A     -1.257657
      10A     -1.206723    11A     -1.025956    12A     -0.993118
      13A     -0.912221    14A     -0.868186    15A     -0.836346
      16A     -0.755624    17A     -0.667074    18A     -0.638404
      19A     -0.632337    20A     -0.627431    21A     -0.623567
      22A     -0.582707    23A     -0.549843    24A     -0.546694
      25A     -0.542516    26A     -0.517807    27A     -0.496721
      28A     -0.491189    29A     -0.466386    30A     -0.457408
      31A     -0.353042    32A     -0.348017

  @DF-RHF Final Energy:  -344.35070082390286

   => Energetics <=

    Nuclear Repulsion Energy =            422.0462059349305832
    One-Electron Energy =               -1303.0134144970211310
    Two-Electron Energy =                 536.6165077381876927
    DFT Exchange-Correlation Energy =       0.0000000000000000
    Empirical Dispersion Energy =           0.0000000000000000
    PCM Polarization Energy =               0.0000000000000000
    EFP Energy =                            0.0000000000000000
    Total Energy =                       -344.3507008239027982
    Molecular point group: c1
  Basis Set: CC-PVTZ
  Basis Set:

  -Total Gradient:
     Atom            X                  Y                   Z
    ------   -----------------  -----------------  -----------------
       1        0.000015391354    -0.000003980903     0.000003439898
       2       -0.000021169877    -0.000722640931     0.000180564552
       3        0.000120353508     0.000370354455    -0.000425447367
       4        0.000027393724     0.000517904716    -0.000006057094
       5        0.000018423305     0.000006494729     0.000003005832
       6       -0.000081628016    -0.000148651851     0.000288795930
       7       -0.000078876064     0.000019913621     0.000043637173
       8        0.000010659420     0.000012503205     0.000006366591
       9        0.000008073039    -0.000024689241    -0.000016327110
      10       -0.000000830554    -0.000021580457    -0.000000113853
      11       -0.000010887106     0.000009895425     0.000014575006
      12       -0.000001548272    -0.000005100345    -0.000012327159
      13       -0.000010619527     0.000009811781    -0.000087712568
      14        0.000008586334    -0.000000503342     0.000007144288
      15       -0.000009074234    -0.000001697285     0.000002656211
      16        0.000015574254    -0.000024245637     0.000013728722
      17       -0.000035174693    -0.000004167948    -0.000018397870
      18        0.000013760929     0.000018207415     0.000004681826
      19        0.000010797988    -0.000010052959    -0.000005840468
      20        0.000003524626     0.000000743653     0.000002423317
      21       -0.000000903536     0.000000271550     0.000000860323
      22       -0.000001826599     0.000001210348     0.000000343819

  **** Optimization is complete! (in 4 steps) ****
    Final optimized geometry and variables:
    Molecular point group: c1

    Geometry (in Angstrom), charge = 0, multiplicity = 1:

    H           -3.156560038330    -0.372415712175    -0.404579312027
    C           -2.634381759188     0.487230796712    -0.833903624174
    N           -1.220087115794     0.480790959252    -0.554877193529
    H           -2.800278186416     0.482858039648    -1.904133439791
    H           -3.084909058522     1.386586472105    -0.432858894280
    C           -0.559215837134    -0.685339596595    -1.099973746003
    C           -0.937345233494     0.616574903927     0.857784518403
    H           -0.949651916141    -1.606959860440    -0.658363423792
    H           -0.747002113826    -0.728926599564    -2.166416026594
    C            0.937049960361    -0.617278461614    -0.857687667444
    H           -1.400586999589     1.525674299890     1.222642924794
    H           -1.352579942100    -0.218325181003     1.430064178981
    C            0.558826196349     0.685652582897     1.100614795924
    H            1.399639258325    -1.527377487590    -1.221028669593
    H            1.352989382469     0.216180470639    -1.431557175671
    N            1.220564213869    -0.479208477180     0.554307316132
    H            0.745719172367     0.727291550021     2.167183291670
    H            0.948397778705     1.608736899621     0.661056636037
    C            2.634682694965    -0.488362910814     0.833507999723
    H            3.078716635490    -1.403901163140     0.462941785857
    H            2.800595144550    -0.446060512890     1.902798495437
    H            3.163453877207     0.352781579918     0.376092278326

  Mulliken Charges: (a.u.)
   Center  Symbol    Alpha    Beta     Spin     Total
       1     H     0.46994  0.46994  0.00000  0.06013
       2     C     3.09846  3.09846  0.00000 -0.19691
       3     N     3.61318  3.61318  0.00000 -0.22635
       4     H     0.45171  0.45171  0.00000  0.09658
       5     H     0.45220  0.45220  0.00000  0.09560
       6     C     3.03568  3.03568  0.00000 -0.07137
       7     C     3.03539  3.03539  0.00000 -0.07078
       8     H     0.46781  0.46781  0.00000  0.06438
       9     H     0.45380  0.45380  0.00000  0.09240
      10     C     3.03543  3.03543  0.00000 -0.07086
      11     H     0.45373  0.45373  0.00000  0.09254
      12     H     0.46814  0.46814  0.00000  0.06371
      13     C     3.03551  3.03551  0.00000 -0.07102
      14     H     0.45378  0.45378  0.00000  0.09244
      15     H     0.46801  0.46801  0.00000  0.06398
      16     N     3.61307  3.61307  0.00000 -0.22613
      17     H     0.45380  0.45380  0.00000  0.09239
      18     H     0.46803  0.46803  0.00000  0.06394
      19     C     3.09842  3.09842  0.00000 -0.19684
      20     H     0.45194  0.45194  0.00000  0.09611
      21     H     0.45194  0.45194  0.00000  0.09612
      22     H     0.47004  0.47004  0.00000  0.05992

   Total alpha = 32.00000, Total beta = 32.00000, Total charge = -0.00000

*** Psi4 exiting successfully. Buy a developer a beer!
