  ==> Input File <==

--------------------------------------------------------------------------
set {
	reference rhf
	basis 6-31G*
}

set_num_threads( 4 )
memory 2 gb

molecule MOL {
0 1

H	 2.591676	 2.013956	 0.335017
O	 3.341076	 1.666752	 -0.126416
C	 3.569581	 0.339145	 0.272707
C	 3.029617	 -0.687461	 -0.716862
H	 4.644072	 0.237395	 0.355113
H	 3.151324	 0.161537	 1.262806
C	 1.507200	 -0.660502	 -0.873028
H	 3.498615	 -0.515750	 -1.682223
H	 3.341559	 -1.676000	 -0.383924
C	 0.991909	 -1.737931	 -1.831382
H	 1.202216	 0.319046	 -1.230570
H	 1.040651	 -0.797600	 0.102614
C	 -0.534195	 -1.810353	 -1.958271
H	 1.427739	 -1.579241	 -2.816124
H	 1.355393	 -2.705576	 -1.491908
C	 -1.185415	 -0.587552	 -2.610306
H	 -0.786913	 -2.691509	 -2.544373
H	 -0.969672	 -1.968507	 -0.972784
C	 -2.693583	 -0.751109	 -2.810591
H	 -0.714146	 -0.401052	 -3.574274
H	 -1.005547	 0.298779	 -2.006677
C	 -3.347167	 0.470646	 -3.455423
H	 -2.881858	 -1.627865	 -3.426495
H	 -3.164962	 -0.947190	 -1.849738
H	 -2.919565	 0.673717	 -4.433249
H	 -4.414835	 0.323240	 -3.585774
H	 -3.208358	 1.358285	 -2.844529

	symmetry c1
}
set optking {
	frozen_dihedral = ("
		4 3 2 1
	")
}

ee = optimize('scf')
oeprop('DIPOLE', 'QUADRUPOLE', 'MULLIKEN_CHARGES')
f=open( 'psi4out.xyz', 'w' )
f.write( "27  " )
f.write( str(ee) + "\n" )
f.write( MOL.save_string_xyz() )
f.close()
--------------------------------------------------------------------------

    Molecular point group: c1
  Charge       = 0
  Multiplicity = 1
  Basis Set: 6-31G*
  Basis Set:
  @DF-RHF Final Energy:  -388.28087263737405
    Total Energy =                       -388.2808726373733634
    Molecular point group: c1
  Basis Set: 6-31G*
  Basis Set:
  Basis Set: 6-31G*
  Basis Set:
  @DF-RHF Final Energy:  -388.28099356582584
    Total Energy =                       -388.2809935658259519
  Basis Set: 6-31G*
  Basis Set:
  Basis Set: 6-31G*
  Basis Set:
  @DF-RHF Final Energy:  -388.28105723984203
    Total Energy =                       -388.2810572398418572
  Basis Set: 6-31G*
  Basis Set:
  Basis Set: 6-31G*
  Basis Set:
  @DF-RHF Final Energy:  -388.28105993142174
    Total Energy =                       -388.2810599314213960
  Basis Set: 6-31G*
  Basis Set:
  Charge       = 0
  Multiplicity = 1
  Basis Set: 6-31G*
  Basis Set:

    Orbital Energies (a.u.)
    -----------------------

    Doubly Occupied:

       1A    -20.552287     2A    -11.267803     3A    -11.214282
       4A    -11.214145     5A    -11.213607     6A    -11.212997
       7A    -11.212172     8A    -11.211769     9A    -11.207890
      10A     -1.358422    11A     -1.092146    12A     -1.059208
      13A     -1.010007    14A     -0.946450    15A     -0.884845
      16A     -0.816419    17A     -0.798379    18A     -0.775113
      19A     -0.701144    20A     -0.648585    21A     -0.632443
      22A     -0.618190    23A     -0.592300    24A     -0.581912
      25A     -0.578884    26A     -0.547398    27A     -0.540738
      28A     -0.527886    29A     -0.505759    30A     -0.487167
      31A     -0.482342    32A     -0.472126    33A     -0.467142
      34A     -0.458900    35A     -0.452894    36A     -0.441291
      37A     -0.419121

  @DF-RHF Final Energy:  -388.28105929632267

   => Energetics <=

    Nuclear Repulsion Energy =            459.8122535265858346
    One-Electron Energy =               -1437.7783004299212735
    Two-Electron Energy =                 589.6849876070126584
    DFT Exchange-Correlation Energy =       0.0000000000000000
    Empirical Dispersion Energy =           0.0000000000000000
    PCM Polarization Energy =               0.0000000000000000
    EFP Energy =                            0.0000000000000000
    Total Energy =                       -388.2810592963227236
    Molecular point group: c1
  Basis Set: 6-31G*
  Basis Set:

  -Total Gradient:
     Atom            X                  Y                   Z
    ------   -----------------  -----------------  -----------------
       1        0.000697575862     0.000445951053     0.000871708185
       2       -0.000613673094    -0.000559420223    -0.001204140699
       3       -0.000749372142     0.000107735863     0.000658849368
       4        0.000664097508    -0.000042925009    -0.000329546312
       5       -0.000008810809    -0.000003197596    -0.000009131207
       6       -0.000005969614     0.000002554185     0.000006988536
       7        0.000020913085    -0.000026769902     0.000062286001
       8        0.000020655550     0.000028212093     0.000011844936
       9       -0.000008596953    -0.000005335531    -0.000011778676
      10       -0.000008976255     0.000020537968    -0.000049734171
      11        0.000015219671    -0.000003725707    -0.000012842512
      12        0.000005474170     0.000023719142     0.000007854896
      13        0.000002842214     0.000022718698     0.000027157648
      14        0.000001203149     0.000016384561    -0.000000335099
      15       -0.000008961971    -0.000008381884    -0.000021460619
      16       -0.000020424536    -0.000008036844    -0.000005229612
      17        0.000000243546    -0.000010142684     0.000020490366
      18        0.000011255164     0.000025038292     0.000012837227
      19        0.000006578483    -0.000009003844    -0.000019691972
      20        0.000013499197     0.000011155431    -0.000002472284
      21       -0.000036496852    -0.000025531601    -0.000007897006
      22        0.000000473885    -0.000003913800    -0.000005809792
      23       -0.000005218244    -0.000002627460    -0.000000094267
      24        0.000006339102     0.000003141859    -0.000001704043
      25       -0.000001092987     0.000000542041    -0.000000420662
      26        0.000000917288     0.000000621676     0.000000494267
      27        0.000000305577     0.000000699216     0.000001777503

  **** Optimization is complete! (in 5 steps) ****
    Final optimized geometry and variables:
    Molecular point group: c1

    Geometry (in Angstrom), charge = 0, multiplicity = 1:

    H            2.010039162408     2.388285107294     1.801064002961
    O            2.765366778405     2.028106321725     1.362219519921
    C            3.010039332138     0.717829708145     1.816707342709
    C            2.480099157996    -0.330209586348     0.847051653443
    H            4.084400208326     0.613561659401     1.914844786951
    H            2.581348943456     0.568958520936     2.805728330975
    C            0.959226791100    -0.304635765346     0.687111725210
    H            2.951819679098    -0.169747342817    -0.118901770643
    H            2.797700295560    -1.311926690720     1.195369506395
    C            0.447756742836    -1.368026616085    -0.288524633272
    H            0.661055395161     0.682607623933     0.349160385053
    H            0.491316752554    -0.458745936396     1.659918077580
    C           -1.078124145408    -1.441873349999    -0.417580731292
    H            0.883219967477    -1.192112735035    -1.270607249957
    H            0.812946915327    -2.340959562649     0.034268669918
    C           -1.730114676070    -0.212986590345    -1.057155152788
    H           -1.329624399417    -2.317200561464    -1.013016649043
    H           -1.514228316046    -1.610709996421     0.565934636527
    C           -3.237591927074    -0.376588001746    -1.262482594055
    H           -1.257064735578    -0.015027555707    -2.017949424434
    H           -1.552297679056     0.666611269797    -0.443377063460
    C           -3.891472246152     0.850642490025    -1.896566905498
    H           -3.423468821494    -1.247409180533    -1.887541269606
    H           -3.711011695716    -0.582871749810    -0.304715465154
    H           -3.461996729703     1.063916517236    -2.871385486882
    H           -4.958732250321     0.703310080924    -2.030684058880
    H           -3.754886257795     1.732367709029    -1.276663798950

  Mulliken Charges: (a.u.)
   Center  Symbol    Alpha    Beta     Spin     Total
       1     H     0.27963  0.27963  0.00000  0.44073
       2     O     4.37119  4.37119  0.00000 -0.74238
       3     C     3.00070  3.00070  0.00000 -0.00140
       4     C     3.15657  3.15657  0.00000 -0.31314
       5     H     0.41676  0.41676  0.00000  0.16647
       6     H     0.43179  0.43179  0.00000  0.13642
       7     C     3.16086  3.16086  0.00000 -0.32172
       8     H     0.41518  0.41518  0.00000  0.16963
       9     H     0.42588  0.42588  0.00000  0.14824
      10     C     3.15241  3.15241  0.00000 -0.30482
      11     H     0.41607  0.41607  0.00000  0.16786
      12     H     0.42860  0.42860  0.00000  0.14280
      13     C     3.15326  3.15326  0.00000 -0.30652
      14     H     0.42207  0.42207  0.00000  0.15586
      15     H     0.42267  0.42267  0.00000  0.15466
      16     C     3.15217  3.15217  0.00000 -0.30434
      17     H     0.42192  0.42192  0.00000  0.15615
      18     H     0.42489  0.42489  0.00000  0.15023
      19     C     3.15117  3.15117  0.00000 -0.30233
      20     H     0.42364  0.42364  0.00000  0.15271
      21     H     0.42323  0.42323  0.00000  0.15355
      22     C     3.23904  3.23904  0.00000 -0.47808
      23     H     0.42314  0.42314  0.00000  0.15373
      24     H     0.42368  0.42368  0.00000  0.15263
      25     H     0.42148  0.42148  0.00000  0.15704
      26     H     0.41962  0.41962  0.00000  0.16075
      27     H     0.42237  0.42237  0.00000  0.15527

   Total alpha = 37.00000, Total beta = 37.00000, Total charge =  0.00000
