  ==> Input File <==

--------------------------------------------------------------------------
set {
	reference rhf
	basis cc-pvtz
}

set_num_threads( 4 )
memory 2 gb

molecule MOL {
0 1

H	 -2.789981	 0.396055	 0.027750
C	 -2.330230	 0.434590	 -0.950700
C	 -1.060465	 -0.401435	 -0.990366
H	 -2.118710	 1.472436	 -1.170585
H	 -3.043943	 0.068697	 -1.679150
C	 0.000000	 0.039916	 0.000014
H	 -0.614789	 -0.380228	 -1.981235
H	 -1.280205	 -1.447279	 -0.793349
C	 1.286532	 -0.763243	 0.000268
O	 -0.167122	 0.960042	 0.732009
C	 2.547023	 0.087626	 -0.000114
H	 1.264245	 -1.421103	 -0.864380
H	 1.264290	 -1.420353	 0.865489
H	 2.584452	 0.725630	 -0.872909
H	 3.427035	 -0.544422	 0.000125
H	 2.584484	 0.726356	 0.872143

	symmetry c1
}
set optking {
	frozen_dihedral = ("
		3 6 9 12
	")
}

ee = optimize('scf')
oeprop('DIPOLE', 'QUADRUPOLE', 'MULLIKEN_CHARGES')
f=open( 'psi4out.xyz', 'w' )
f.write( "16  " )
f.write( str(ee) + "\n" )
f.write( MOL.save_string_xyz() )
f.close()
--------------------------------------------------------------------------

    Molecular point group: c1
  Charge       = 0
  Multiplicity = 1
  Basis Set: CC-PVTZ
  Basis Set:
  @DF-RHF Final Energy:  -270.12991252174129
    Total Energy =                       -270.1299125217412893
    Molecular point group: c1
  Basis Set: CC-PVTZ
  Basis Set:
  Basis Set: CC-PVTZ
  Basis Set:
  @DF-RHF Final Energy:  -270.13040452715461
    Total Energy =                       -270.1304045271543828
  Basis Set: CC-PVTZ
  Basis Set:
  Basis Set: CC-PVTZ
  Basis Set:
  @DF-RHF Final Energy:  -270.13040231659681
    Total Energy =                       -270.1304023165967578
  Basis Set: CC-PVTZ
  Basis Set:
  Basis Set: CC-PVTZ
  Basis Set:
  @DF-RHF Final Energy:  -270.13032139862241
    Total Energy =                       -270.1303213986224137
  Basis Set: CC-PVTZ
  Basis Set:
  Basis Set: CC-PVTZ
  Basis Set:
  @DF-RHF Final Energy:  -270.13042903373474
    Total Energy =                       -270.1304290337346288
  Basis Set: CC-PVTZ
  Basis Set:
  Charge       = 0
  Multiplicity = 1
  Basis Set: CC-PVTZ
  Basis Set:

    Orbital Energies (a.u.)
    -----------------------

    Doubly Occupied:

       1A    -20.537521     2A    -11.318005     3A    -11.233102
       4A    -11.231141     5A    -11.216783     6A    -11.211867
       7A     -1.398414     8A     -1.069638     9A     -1.037761
      10A     -0.915855    11A     -0.849932    12A     -0.726536
      13A     -0.668318    14A     -0.644142    15A     -0.624041
      16A     -0.604483    17A     -0.564501    18A     -0.535752
      19A     -0.528238    20A     -0.512478    21A     -0.503361
      22A     -0.496824    23A     -0.481063    24A     -0.399017

  @DF-RHF Final Energy:  -270.13042929897983

   => Energetics <=

    Nuclear Repulsion Energy =            240.3597782581379931
    One-Electron Energy =                -842.3628691180673513
    Two-Electron Energy =                 331.8726615609497230
    DFT Exchange-Correlation Energy =       0.0000000000000000
    Empirical Dispersion Energy =           0.0000000000000000
    PCM Polarization Energy =               0.0000000000000000
    EFP Energy =                            0.0000000000000000
    Total Energy =                       -270.1304292989796068
    Molecular point group: c1
  Basis Set: CC-PVTZ
  Basis Set:

  -Total Gradient:
     Atom            X                  Y                   Z
    ------   -----------------  -----------------  -----------------
       1        0.000003066358    -0.000000715617    -0.000002794603
       2       -0.000001683357     0.000001337856     0.000001091971
       3        0.000370355159     0.000542675231    -0.000655651258
       4        0.000000046266     0.000000330558    -0.000000588970
       5       -0.000001095006     0.000001255065    -0.000000682546
       6       -0.000663861672    -0.000986077659     0.001110596897
       7       -0.000005868277    -0.000001287988     0.000006182747
       8       -0.000000893859    -0.000004914561     0.000002140948
       9        0.000869541458     0.001291017917    -0.001161313433
      10        0.000001044482    -0.000002474159     0.000003862772
      11       -0.000011379373     0.000000013328     0.000009174123
      12       -0.000559329730    -0.000845117044     0.000688384744
      13       -0.000000487371     0.000003852098    -0.000000157729
      14       -0.000000922357    -0.000002492770    -0.000001903978
      15       -0.000002887675    -0.000000986385    -0.000001240008
      16        0.000004354953     0.000003584132     0.000002898323

  **** Optimization is complete! (in 6 steps) ****
    Final optimized geometry and variables:
    Molecular point group: c1

    Geometry (in Angstrom), charge = 0, multiplicity = 1:

    H           -2.840200692060     0.272994309193     0.273406358016
    C           -2.398626149544     0.350552544845    -0.711400137127
    C           -1.115356356434    -0.459318536812    -0.798209799641
    H           -2.208861042109     1.398279544759    -0.901443099628
    H           -3.119047968369    -0.005286068135    -1.438209467614
    C           -0.040591220953    -0.028613442962     0.176057544822
    H           -0.682189313327    -0.398674204872    -1.794106530192
    H           -1.306352339757    -1.516826255983    -0.632215483004
    C            1.234371697134    -0.855280591060     0.199054705196
    O           -0.176646618096     0.907352669661     0.894815103736
    C            2.495784407551     0.002203219503     0.222649120879
    H            1.246000433555    -1.548557378084    -0.633571820567
    H            1.185270037278    -1.459737589407     1.100985642383
    H            2.583400130559     0.592490974143    -0.682521804353
    H            3.377065611945    -0.622559895625     0.300232464507
    H            2.477795868966     0.680730760310     1.063303352146

  Mulliken Charges: (a.u.)
   Center  Symbol    Alpha    Beta     Spin     Total
       1     H     0.44859  0.44859  0.00000  0.10281
       2     C     3.14119  3.14119  0.00000 -0.28238
       3     C     3.10184  3.10184  0.00000 -0.20369
       4     H     0.44690  0.44690  0.00000  0.10621
       5     H     0.45079  0.45079  0.00000  0.09843
       6     C     2.86818  2.86818  0.00000  0.26363
       7     H     0.44578  0.44578  0.00000  0.10844
       8     H     0.44524  0.44524  0.00000  0.10952
       9     C     3.09537  3.09537  0.00000 -0.19074
      10     O     4.17621  4.17621  0.00000 -0.35241
      11     C     3.14382  3.14382  0.00000 -0.28764
      12     H     0.44643  0.44643  0.00000  0.10714
      13     H     0.44506  0.44506  0.00000  0.10988
      14     H     0.45514  0.45514  0.00000  0.08972
      15     H     0.44939  0.44939  0.00000  0.10122
      16     H     0.44006  0.44006  0.00000  0.11987

   Total alpha = 24.00000, Total beta = 24.00000, Total charge =  0.00000
