                              Psi4 1.0.54 Driver

  ==> Input File <==

--------------------------------------------------------------------------
set {
	reference rhf
	basis cc-pvtz
}

set_num_threads( 4 )
memory 2 gb

molecule MOL {
0 1

O	 -2.440701	 -0.934798	 -0.415053
C	 -1.922978	 0.063265	 -0.045005
C	 -2.632749	 1.372204	 0.158357
O	 -0.637375	 0.157174	 0.243149
H	 -2.187724	 2.129143	 -0.474664
H	 -3.677681	 1.257276	 -0.079438
H	 -2.516788	 1.693160	 1.185542
C	 0.162530	 -1.009518	 0.097799
C	 1.587210	 -0.664190	 0.477086
H	 0.096803	 -1.356267	 -0.924704
H	 -0.233803	 -1.785900	 0.736810
C	 1.720129	 0.590977	 1.335371
H	 2.144888	 -0.533885	 -0.446360
H	 2.029496	 -1.512095	 0.991165
C	 3.170062	 0.922031	 1.672586
H	 1.270649	 1.430218	 0.811214
H	 1.155426	 0.461635	 2.251464
H	 3.235757	 1.818320	 2.278172
H	 3.755410	 1.086679	 0.773892
H	 3.636877	 0.114316	 2.226387

	symmetry c1
}
set optking {
	frozen_dihedral = ("
		12 9 8 10
	")
}

ee,wfn = optimize('scf', return_wfn=True)
oeprop( wfn, 'DIPOLE', 'QUADRUPOLE', 'MULLIKEN_CHARGES')
f=open( 'psi4out.xyz', 'w' )
f.write( "20  " )
f.write( str(ee) + "\n" )
f.write( MOL.save_string_xyz() )
f.close()
--------------------------------------------------------------------------

    Molecular point group: c1
  Charge       = 0
  Multiplicity = 1
  Basis Set: CC-PVTZ
  Basis Set:
  @DF-RHF Final Energy:  -384.07941237464360
    Total Energy =                       -384.0794123746438800
    Molecular point group: c1
  Basis Set: CC-PVTZ
  Basis Set:
  Basis Set: CC-PVTZ
  Basis Set:
  @DF-RHF Final Energy:  -383.62509622792720
    Total Energy =                       -383.6250962279269174
  Basis Set: CC-PVTZ
  Basis Set:
  Basis Set: CC-PVTZ
  Basis Set:
  @DF-RHF Final Energy:  -383.81856385316212
    Total Energy =                       -383.8185638531622885
  Basis Set: CC-PVTZ
  Basis Set:
  Basis Set: CC-PVTZ
  Basis Set:
  @DF-RHF Final Energy:  -384.02920610805478
    Total Energy =                       -384.0292061080547228
  Basis Set: CC-PVTZ
  Basis Set:
  @DF-RHF Final Energy:  -384.07564454126731
    Total Energy =                       -384.0756445412675930
  @DF-RHF Final Energy:  -384.07492051742815
    Total Energy =                       -384.0749205174281542
  @DF-RHF Final Energy:  -384.08064948441699
    Total Energy =                       -384.0806494844171084
  @DF-RHF Final Energy:  -384.08073409431825
    Total Energy =                       -384.0807340943183590
  @DF-RHF Final Energy:  -384.07991096617559
    Total Energy =                       -384.0799109661746797
  Basis Set: CC-PVTZ
  Basis Set:
  @DF-RHF Final Energy:  -384.08081004422530
    Total Energy =                       -384.0808100442252453
  Basis Set: CC-PVTZ
  Basis Set:
  Basis Set: CC-PVTZ
  Basis Set:
  @DF-RHF Final Energy:  -384.08081520256223
    Total Energy =                       -384.0808152025624622
  Basis Set: CC-PVTZ
  Basis Set:
  Basis Set: CC-PVTZ
  Basis Set:
  @DF-RHF Final Energy:  -384.08081649967068
    Total Energy =                       -384.0808164996700498
  Basis Set: CC-PVTZ
  Basis Set:
  Charge       = 0
  Multiplicity = 1
  Basis Set: CC-PVTZ
  Basis Set:

    Orbital Energies (a.u.)
    -----------------------

    Doubly Occupied:

       1A    -20.593349     2A    -20.532275     3A    -11.366263
       4A    -11.281170     5A    -11.231484     6A    -11.224255
       7A    -11.217929     8A    -11.210610     9A     -1.470514
      10A     -1.364561    11A     -1.083543    12A     -1.028647
      13A     -0.980458    14A     -0.881929    15A     -0.818306
      16A     -0.763266    17A     -0.693267    18A     -0.691588
      19A     -0.669487    20A     -0.635405    21A     -0.596362
      22A     -0.594276    23A     -0.574040    24A     -0.548126
      25A     -0.545959    26A     -0.534415    27A     -0.509557
      28A     -0.483950    29A     -0.477919    30A     -0.469874
      31A     -0.447905    32A     -0.441705

  @DF-RHF Final Energy:  -384.08081706052462

   => Energetics <=

    Nuclear Repulsion Energy =            387.1003712678574402
    One-Electron Energy =               -1290.4375841471512558
    Two-Electron Energy =                 519.2563958187691924
    DFT Exchange-Correlation Energy =       0.0000000000000000
    Empirical Dispersion Energy =           0.0000000000000000
    PCM Polarization Energy =               0.0000000000000000
    EFP Energy =                            0.0000000000000000
    Total Energy =                       -384.0808170605246232
    Molecular point group: c1
  Basis Set: CC-PVTZ
  Basis Set:

  -Total Gradient:
     Atom            X                  Y                   Z
    ------   -----------------  -----------------  -----------------
       1        0.000002203225     0.000031714669     0.000042313375
       2        0.000033417292    -0.000017178079     0.000027448316
       3       -0.000017997448    -0.000000240407    -0.000009969401
       4       -0.000057737668    -0.000009167432    -0.000049244677
       5       -0.000007814516    -0.000009935318     0.000000139443
       6        0.000009229137     0.000002707614     0.000011656147
       7        0.000008816744     0.000008668420    -0.000016225790
       8        0.002522915309    -0.005072293056    -0.001262721455
       9       -0.001847044909    -0.004050704411     0.002191021146
      10       -0.001628341842     0.005369021389     0.000501728892
      11       -0.000013118341    -0.000002914139     0.000002566006
      12        0.000992867828     0.003748164449    -0.001442743695
      13        0.000000915133    -0.000000412000    -0.000004108202
      14       -0.000002970410     0.000004703069    -0.000000913748
      15        0.000006824345     0.000003219039     0.000012183592
      16        0.000003774887     0.000000584712    -0.000000983938
      17       -0.000011478375    -0.000004219896     0.000002220086
      18        0.000001979883    -0.000001473724    -0.000006714737
      19        0.000004793689     0.000002173316    -0.000000588550
      20       -0.000001233962    -0.000002418215     0.000002937192

  **** Optimization is complete! (in 13 steps) ****
    Final optimized geometry and variables:
    Molecular point group: c1

    Geometry (in Angstrom), charge = 0, multiplicity = 1:

    O           -1.306221045018    -0.557817551032    -2.265108324109
    C           -1.335924519395     0.162577096385    -1.326119255272
    C           -2.422545799841     1.163213861989    -1.049752178494
    O           -0.407576538280     0.181444272496    -0.387936964935
    H           -1.996591017331     2.156910532663    -0.997512643981
    H           -3.163024518544     1.117680771323    -1.831585489908
    H           -2.878221998024     0.950046370606    -0.091442391138
    C            0.688443103194    -0.719064808205    -0.524793267568
    C            1.660700876878    -0.531205935055     0.644798241299
    H            1.168327747691    -0.489073652297    -1.464028031624
    H            0.299615387103    -1.725319292878    -0.568550081343
    C            1.079626966619     0.103626179253     1.907359727844
    H            2.490466743039     0.085524441879     0.313943888541
    H            2.084213498143    -1.501033678916     0.883832907541
    C            2.105813104792     0.171125356499     3.033650646950
    H            0.724251255868     1.099515357866     1.678711578525
    H            0.213632362365    -0.459950392848     2.240907602046
    H            1.684515641663     0.638651376439     3.915944937747
    H            2.975705407676     0.748567674280     2.738026385722
    H            2.448438876938    -0.818828180686     3.315956758412

  Mulliken Charges: (a.u.)
   Center  Symbol    Alpha    Beta     Spin     Total
       1     O     4.19820  4.19820  0.00000 -0.39641
       2     C     2.81026  2.81026  0.00000  0.37948
       3     C     3.13868  3.13868  0.00000 -0.27735
       4     O     4.14946  4.14946  0.00000 -0.29891
       5     H     0.44612  0.44612  0.00000  0.10776
       6     H     0.43740  0.43740  0.00000  0.12520
       7     H     0.44591  0.44591  0.00000  0.10817
       8     C     2.98735  2.98735  0.00000  0.02530
       9     C     3.09844  3.09844  0.00000 -0.19689
      10     H     0.44785  0.44785  0.00000  0.10430
      11     H     0.45029  0.45029  0.00000  0.09943
      12     C     3.07658  3.07658  0.00000 -0.15316
      13     H     0.45175  0.45175  0.00000  0.09651
      14     H     0.45072  0.45072  0.00000  0.09855
      15     C     3.15198  3.15198  0.00000 -0.30397
      16     H     0.44759  0.44759  0.00000  0.10481
      17     H     0.45331  0.45331  0.00000  0.09337
      18     H     0.44740  0.44740  0.00000  0.10520
      19     H     0.45518  0.45518  0.00000  0.08963
      20     H     0.45552  0.45552  0.00000  0.08896

   Total alpha = 32.00000, Total beta = 32.00000, Total charge = -0.00000

*** Psi4 exiting successfully. Buy a developer a beer!
