  ==> Input File <==

--------------------------------------------------------------------------
set {
	reference rhf
	basis 6-31G*
}

set_num_threads( 4 )
memory 2 gb

molecule MOL {
0 1

O	 -2.324811	 1.361668	 -0.277141
C	 -2.105949	 0.203097	 -0.092081
C	 -0.889235	 -0.467034	 -0.705952
C	 -3.002726	 -0.644460	 0.782455
C	 -1.284074	 -1.766851	 -1.425481
H	 -0.198115	 -0.694309	 0.098413
H	 -0.391922	 0.205004	 -1.399544
C	 -0.074836	 -2.485774	 -2.028396
H	 -1.792507	 -2.406651	 -0.713065
H	 -1.999742	 -1.545330	 -2.215730
C	 -0.420555	 -3.753263	 -2.818337
H	 0.624786	 -2.737638	 -1.233525
H	 0.448800	 -1.797753	 -2.688912
C	 -0.994655	 -4.891158	 -1.972405
H	 0.481976	 -4.105326	 -3.311469
H	 -1.121108	 -3.502191	 -3.612236
H	 -0.318591	 -5.155714	 -1.163905
H	 -1.148710	 -5.779377	 -2.577164
H	 -1.950498	 -4.628748	 -1.531615
H	 -3.496582	 -1.399307	 0.176174
H	 -3.747939	 -0.023774	 1.260148
H	 -2.421318	 -1.168775	 1.535358

	symmetry c1
}
set optking {
	frozen_dihedral = ("
		6 3 2 1
	")
}

ee = optimize('scf')
oeprop('DIPOLE', 'QUADRUPOLE', 'MULLIKEN_CHARGES')
f=open( 'psi4out.xyz', 'w' )
f.write( "22  " )
f.write( str(ee) + "\n" )
f.write( MOL.save_string_xyz() )
f.close()
--------------------------------------------------------------------------

    Molecular point group: c1
  Charge       = 0
  Multiplicity = 1
  Basis Set: 6-31G*
  Basis Set:
  @DF-RHF Final Energy:  -348.09588226667813
    Total Energy =                       -348.0958822666783590
    Molecular point group: c1
  Basis Set: 6-31G*
  Basis Set:
  Basis Set: 6-31G*
  Basis Set:
  @DF-RHF Final Energy:  -348.09713357274097
    Total Energy =                       -348.0971335727407450
  Basis Set: 6-31G*
  Basis Set:
  Basis Set: 6-31G*
  Basis Set:
  @DF-RHF Final Energy:  -348.09624371696748
    Total Energy =                       -348.0962437169673080
  Basis Set: 6-31G*
  Basis Set:
  Basis Set: 6-31G*
  Basis Set:
  @DF-RHF Final Energy:  -348.09763482514671
    Total Energy =                       -348.0976348251468835
  Basis Set: 6-31G*
  Basis Set:
  @DF-RHF Final Energy:  -348.09750284440361
    Total Energy =                       -348.0975028444037207
  @DF-RHF Final Energy:  -348.09740013507019
    Total Energy =                       -348.0974001350705294
  @DF-RHF Final Energy:  -348.09769705737523
    Total Energy =                       -348.0976970573751714
  Basis Set: 6-31G*
  Basis Set:
  @DF-RHF Final Energy:  -348.09769940002724
    Total Energy =                       -348.0976994000272953
  Basis Set: 6-31G*
  Basis Set:
  Basis Set: 6-31G*
  Basis Set:
  @DF-RHF Final Energy:  -348.09769258919977
    Total Energy =                       -348.0976925891993687
  Basis Set: 6-31G*
  Basis Set:
  Basis Set: 6-31G*
  Basis Set:
  @DF-RHF Final Energy:  -348.09770846778582
    Total Energy =                       -348.0977084677857079
  Basis Set: 6-31G*
  Basis Set:
  Charge       = 0
  Multiplicity = 1
  Basis Set: 6-31G*
  Basis Set:

    Orbital Energies (a.u.)
    -----------------------

    Doubly Occupied:

       1A    -20.547604     2A    -11.324397     3A    -11.232355
       4A    -11.229834     5A    -11.227421     6A    -11.224814
       7A    -11.223065     8A    -11.215404     9A     -1.392965
      10A     -1.098991    11A     -1.046271    12A     -0.996714
      13A     -0.940759    14A     -0.863029    15A     -0.789420
      16A     -0.732512    17A     -0.661534    18A     -0.647897
      19A     -0.628389    20A     -0.621345    21A     -0.597748
      22A     -0.588484    23A     -0.554507    24A     -0.546971
      25A     -0.538325    26A     -0.516158    27A     -0.501589
      28A     -0.489200    29A     -0.473930    30A     -0.467258
      31A     -0.464254    32A     -0.396505

  @DF-RHF Final Energy:  -348.09770879568305

   => Energetics <=

    Nuclear Repulsion Energy =            372.8736439080198579
    One-Electron Energy =               -1210.3834095379625069
    Two-Electron Energy =                 489.4120568342596016
    DFT Exchange-Correlation Energy =       0.0000000000000000
    Empirical Dispersion Energy =           0.0000000000000000
    PCM Polarization Energy =               0.0000000000000000
    EFP Energy =                            0.0000000000000000
    Total Energy =                       -348.0977087956830474
    Molecular point group: c1
  Basis Set: 6-31G*
  Basis Set:

  -Total Gradient:
     Atom            X                  Y                   Z
    ------   -----------------  -----------------  -----------------
       1        0.000273628502     0.000143154063     0.000403306972
       2       -0.000333368768    -0.000073475539    -0.000544767849
       3       -0.000148816401    -0.000460092368     0.000250346488
       4       -0.000039815317     0.000007497616    -0.000059345338
       5        0.000006009628     0.000015131197     0.000003850853
       6        0.000240667174     0.000429720401    -0.000079526294
       7       -0.000005409530     0.000016571836     0.000004931787
       8       -0.000012361824    -0.000017364136     0.000021892542
       9        0.000003262186     0.000007559028    -0.000005368460
      10       -0.000003272035    -0.000044736852    -0.000019307581
      11       -0.000016073728     0.000009187594    -0.000015538147
      12       -0.000001659252    -0.000010223159     0.000004323678
      13       -0.000011050351     0.000020051359     0.000026623011
      14        0.000000308958    -0.000007932543    -0.000001367851
      15       -0.000003869684     0.000000455261     0.000001638427
      16       -0.000001948065    -0.000007958423    -0.000009785081
      17       -0.000000106195    -0.000001973505    -0.000002023297
      18       -0.000001790016    -0.000000945362     0.000000985409
      19        0.000008456075    -0.000011182828    -0.000005202881
      20        0.000021125633    -0.000011950287     0.000011761653
      21        0.000006112527    -0.000000013360     0.000001390299
      22        0.000019970484    -0.000001479998     0.000011181654

  **** Optimization is complete! (in 11 steps) ****
    Final optimized geometry and variables:
    Molecular point group: c1

    Geometry (in Angstrom), charge = 0, multiplicity = 1:

    O           -0.881566446067     2.955080673316     0.738173033831
    C           -0.711377665990     1.798229965525     0.976855804311
    C            0.465239025837     1.040732937717     0.387799363963
    C           -1.654131183324     1.045641910457     1.893952215946
    C            0.092262616341    -0.262103535122    -0.332376294586
    H            1.156431630987     0.820529948468     1.200652815309
    H            0.969543057832     1.719936231590    -0.288941199803
    C            1.312429059965    -0.931397343127    -0.970850655522
    H           -0.379186221395    -0.945659357128     0.366322912989
    H           -0.643861344551    -0.048602647532    -1.105211119795
    C            0.994411839998    -2.192148626057    -1.782607756518
    H            2.034945766349    -1.176674970915    -0.194020352116
    H            1.800641479838    -0.212432154409    -1.624423435110
    C            0.470484696016    -3.367236949423    -0.954997269676
    H            1.899747907407    -2.504304631013    -2.296761379652
    H            0.274136933618    -1.946760953291    -2.560184895409
    H            1.165742836252    -3.626429375228    -0.161006794953
    H            0.338629621890    -4.246870488431    -1.577136093041
    H           -0.488617887576    -3.148154938537    -0.497230764405
    H           -2.297692544000     0.394383168328     1.309719897194
    H           -2.270639402166     1.752914167389     2.431190687341
    H           -1.110230594298     0.420989370416     2.595502205688

  Mulliken Charges: (a.u.)
   Center  Symbol    Alpha    Beta     Spin     Total
       1     O     4.26145  4.26145  0.00000 -0.52291
       2     C     2.73162  2.73162  0.00000  0.53677
       3     C     3.20629  3.20629  0.00000 -0.41257
       4     C     3.29109  3.29109  0.00000 -0.58217
       5     C     3.16633  3.16633  0.00000 -0.33267
       6     H     0.41097  0.41097  0.00000  0.17806
       7     H     0.39918  0.39918  0.00000  0.20164
       8     C     3.15273  3.15273  0.00000 -0.30547
       9     H     0.41667  0.41667  0.00000  0.16666
      10     H     0.41570  0.41570  0.00000  0.16859
      11     C     3.15339  3.15339  0.00000 -0.30678
      12     H     0.42261  0.42261  0.00000  0.15479
      13     H     0.41785  0.41785  0.00000  0.16430
      14     C     3.24187  3.24187  0.00000 -0.48374
      15     H     0.41860  0.41860  0.00000  0.16280
      16     H     0.42145  0.42145  0.00000  0.15711
      17     H     0.42164  0.42164  0.00000  0.15672
      18     H     0.41715  0.41715  0.00000  0.16571
      19     H     0.42108  0.42108  0.00000  0.15784
      20     H     0.40458  0.40458  0.00000  0.19084
      21     H     0.39601  0.39601  0.00000  0.20798
      22     H     0.41175  0.41175  0.00000  0.17651

   Total alpha = 32.00000, Total beta = 32.00000, Total charge = -0.00000
