  ==> Input File <==

--------------------------------------------------------------------------
set {
	reference rhf
	basis 6-31G*
}

set_num_threads( 1 )
memory 2 gb

molecule MOL {
0 1

H	 0.206393	 3.477604	 -0.379281
C	 0.488641	 2.978713	 0.556168
C	 -0.599573	 2.150026	 1.189948
O	 1.583478	 3.112934	 0.997831
C	 -1.220012	 1.144545	 0.209990
H	 -0.188511	 1.654894	 2.062061
H	 -1.370272	 2.840560	 1.530302
C	 -0.252658	 0.041456	 -0.226725
H	 -2.089247	 0.696089	 0.681797
H	 -1.591059	 1.675237	 -0.665480
C	 1.180775	 0.282413	 0.250794
H	 -0.266029	 -0.034465	 -1.312038
H	 -0.597733	 -0.921000	 0.146291
C	 2.148627	 -0.814315	 -0.201312
H	 1.516199	 1.249228	 -0.115937
H	 1.192670	 0.346017	 1.338083
C	 3.580890	 -0.659131	 0.322722
H	 2.166869	 -0.852443	 -1.289387
H	 1.762857	 -1.776509	 0.128956
C	 4.324889	 0.564933	 -0.213704
H	 4.142010	 -1.551473	 0.056605
H	 3.564836	 -0.624694	 1.410140
H	 4.342616	 0.565491	 -1.300421
H	 3.866655	 1.493402	 0.110242
H	 5.353900	 0.572371	 0.132816

	symmetry c1
}
set optking {
	frozen_dihedral = ("
		6 3 5 8,
		6 3 2 4,
		12 8 11 14,
		8 11 14 18,
		20 17 14 18
	")
}

ee = energy('scf')
oeprop('DIPOLE', 'QUADRUPOLE', 'MULLIKEN_CHARGES')
f=open( 'psi4out.xyz', 'w' )
f.write( "25  " )
f.write( str(ee) + "\n" )
f.write( MOL.save_string_xyz() )
f.close()
--------------------------------------------------------------------------

    Molecular point group: c1

    Geometry (in Angstrom), charge = 0, multiplicity = 1:

       Center              X                  Y                   Z               Mass
    ------------   -----------------  -----------------  -----------------  -----------------
           H         -1.068433697227     2.486861497425    -0.700615219059     1.007825032070
           C         -0.786185697227     1.987970497425     0.234833780941    12.000000000000
           C         -1.874399697227     1.159283497425     0.868613780941    12.000000000000
           O          0.308651302773     2.122191497425     0.676496780941    15.994914619560
           C         -2.494838697227     0.153802497425    -0.111344219059    12.000000000000
           H         -1.463337697227     0.664151497425     1.740726780941     1.007825032070
           H         -2.645098697227     1.849817497425     1.208967780941     1.007825032070
           C         -1.527484697227    -0.949286502575    -0.548059219059    12.000000000000
           H         -3.364073697227    -0.294653502575     0.360462780941     1.007825032070
           H         -2.865885697227     0.684494497425    -0.986814219059     1.007825032070
           C         -0.094051697227    -0.708329502575    -0.070540219059    12.000000000000
           H         -1.540855697227    -1.025207502575    -1.633372219059     1.007825032070
           H         -1.872559697227    -1.911742502575    -0.175043219059     1.007825032070
           C          0.873800302773    -1.805057502575    -0.522646219059    12.000000000000
           H          0.241372302773     0.258485497425    -0.437271219059     1.007825032070
           H         -0.082156697227    -0.644725502575     1.016748780941     1.007825032070
           C          2.306063302773    -1.649873502575     0.001387780941    12.000000000000
           H          0.892042302773    -1.843185502575    -1.610721219059     1.007825032070
           H          0.488030302773    -2.767251502575    -0.192378219059     1.007825032070
           C          3.050062302773    -0.425809502575    -0.535038219059    12.000000000000
           H          2.867183302773    -2.542215502575    -0.264729219059     1.007825032070
           H          2.290009302773    -1.615436502575     1.088805780941     1.007825032070
           H          3.067789302773    -0.425251502575    -1.621755219059     1.007825032070
           H          2.591828302773     0.502659497425    -0.211092219059     1.007825032070
           H          4.079073302773    -0.418371502575    -0.188518219059     1.007825032070

  Charge       = 0
  Multiplicity = 1
  Basis Set: 6-31G*
  Basis Set:

    Orbital Energies (a.u.)
    -----------------------

    Doubly Occupied:

       1A    -20.559857     2A    -11.329552     3A    -11.235443
       4A    -11.233577     5A    -11.219350     6A    -11.209539
       7A    -11.208368     8A    -11.207723     9A    -11.197589
      10A     -1.405090    11A     -1.105929    12A     -1.061217
      13A     -1.002143    14A     -0.941834    15A     -0.878419
      16A     -0.814663    17A     -0.786089    18A     -0.771293
      19A     -0.668151    20A     -0.661209    21A     -0.628643
      22A     -0.625300    23A     -0.601042    24A     -0.589569
      25A     -0.562193    26A     -0.550138    27A     -0.542013
      28A     -0.524204    29A     -0.507354    30A     -0.498548
      31A     -0.470746    32A     -0.467953    33A     -0.453681
      34A     -0.440093    35A     -0.436424    36A     -0.409946

  @DF-RHF Final Energy:  -387.09838486905971

   => Energetics <=

    Nuclear Repulsion Energy =            471.5925769338688269
    One-Electron Energy =               -1459.7722005138689383
    Two-Electron Energy =                 601.0812387109397150
    DFT Exchange-Correlation Energy =       0.0000000000000000
    Empirical Dispersion Energy =           0.0000000000000000
    PCM Polarization Energy =               0.0000000000000000
    EFP Energy =                            0.0000000000000000
    Total Energy =                       -387.0983848690603963

  Mulliken Charges: (a.u.)
   Center  Symbol    Alpha    Beta     Spin     Total
       1     H     0.43008  0.43008  0.00000  0.13984
       2     C     2.83527  2.83527  0.00000  0.32947
       3     C     3.21126  3.21126  0.00000 -0.42251
       4     O     4.24103  4.24103  0.00000 -0.48205
       5     C     3.16885  3.16885  0.00000 -0.33770
       6     H     0.39725  0.39725  0.00000  0.20550
       7     H     0.40395  0.40395  0.00000  0.19209
       8     C     3.15391  3.15391  0.00000 -0.30782
       9     H     0.41001  0.41001  0.00000  0.17999
      10     H     0.41745  0.41745  0.00000  0.16510
      11     C     3.17392  3.17392  0.00000 -0.34784
      12     H     0.41896  0.41896  0.00000  0.16209
      13     H     0.41853  0.41853  0.00000  0.16295
      14     C     3.14933  3.14933  0.00000 -0.29866
      15     H     0.40476  0.40476  0.00000  0.19049
      16     H     0.41790  0.41790  0.00000  0.16420
      17     C     3.15091  3.15091  0.00000 -0.30182
      18     H     0.42605  0.42605  0.00000  0.14790
      19     H     0.42489  0.42489  0.00000  0.15021
      20     C     3.24711  3.24711  0.00000 -0.49423
      21     H     0.42308  0.42308  0.00000  0.15383
      22     H     0.42275  0.42275  0.00000  0.15450
      23     H     0.42580  0.42580  0.00000  0.14839
      24     H     0.40616  0.40616  0.00000  0.18768
      25     H     0.42078  0.42078  0.00000  0.15843

   Total alpha = 36.00000, Total beta = 36.00000, Total charge = -0.00000
