                              Psi4 1.0.54 Driver

  ==> Input File <==

--------------------------------------------------------------------------
set {
	reference rhf
	basis cc-pvtz
}

set_num_threads( 4 )
memory 2 gb

molecule MOL {
0 1

H	 -0.000342	 -0.223902	 -3.352295
C	 -0.027146	 0.371068	 -2.446756
C	 0.024493	 -0.518541	 -1.216015
H	 -0.932586	 0.964979	 -2.449855
H	 0.819708	 1.049865	 -2.473332
N	 -0.042516	 0.263377	 0.000000
H	 -0.822211	 -1.197105	 -1.225584
H	 0.921114	 -1.142847	 -1.255206
C	 0.024493	 -0.518541	 1.216015
H	 0.682568	 0.950412	 0.000000
C	 -1.221458	 -0.326224	 2.064198
H	 0.114058	 -1.563668	 0.938284
H	 0.910326	 -0.279952	 1.810656
H	 -2.108007	 -0.602085	 1.506979
H	 -1.173341	 -0.933236	 2.960820
H	 -1.327463	 0.709274	 2.372647

	symmetry c1
}
set optking {
	frozen_dihedral = ("
		12 9 6 3
	")
}

ee,wfn = optimize('scf', return_wfn=True)
oeprop( wfn, 'DIPOLE', 'QUADRUPOLE', 'MULLIKEN_CHARGES')
f=open( 'psi4out.xyz', 'w' )
f.write( "16  " )
f.write( str(ee) + "\n" )
f.write( MOL.save_string_xyz() )
f.close()
--------------------------------------------------------------------------

    Molecular point group: c1
  Charge       = 0
  Multiplicity = 1
  Basis Set: CC-PVTZ
  Basis Set:
  @DF-RHF Final Energy:  -212.38951991852454
    Total Energy =                       -212.3895199185244564
    Molecular point group: c1
  Basis Set: CC-PVTZ
  Basis Set:
  Basis Set: CC-PVTZ
  Basis Set:
  @DF-RHF Final Energy:  -212.38460275103779
    Total Energy =                       -212.3846027510377894
  Basis Set: CC-PVTZ
  Basis Set:
  Basis Set: CC-PVTZ
  Basis Set:
  @DF-RHF Final Energy:  -212.39005121141253
    Total Energy =                       -212.3900512114123558
  Basis Set: CC-PVTZ
  Basis Set:
  Basis Set: CC-PVTZ
  Basis Set:
  @DF-RHF Final Energy:  -212.39012741853040
    Total Energy =                       -212.3901274185303691
  Basis Set: CC-PVTZ
  Basis Set:
  Basis Set: CC-PVTZ
  Basis Set:
  @DF-RHF Final Energy:  -212.39012921691182
    Total Energy =                       -212.3901292169117028
  Basis Set: CC-PVTZ
  Basis Set:
  Charge       = 0
  Multiplicity = 1
  Basis Set: CC-PVTZ
  Basis Set:

    Orbital Energies (a.u.)
    -----------------------

    Doubly Occupied:

       1A    -15.526508     2A    -11.239996     3A    -11.239392
       4A    -11.206407     5A    -11.199643     6A     -1.202825
       7A     -1.026304     8A     -0.964310     9A     -0.837331
      10A     -0.813306    11A     -0.665041    12A     -0.626176
      13A     -0.610280    14A     -0.567535    15A     -0.556344
      16A     -0.526102    17A     -0.505278    18A     -0.491786
      19A     -0.483254    20A     -0.470062    21A     -0.357253

  @DF-RHF Final Energy:  -212.39012949882706

   => Energetics <=

    Nuclear Repulsion Energy =            189.5862916208290869
    One-Electron Energy =                -661.7225803865600255
    Two-Electron Energy =                 259.7461592669038168
    DFT Exchange-Correlation Energy =       0.0000000000000000
    Empirical Dispersion Energy =           0.0000000000000000
    PCM Polarization Energy =               0.0000000000000000
    EFP Energy =                            0.0000000000000000
    Total Energy =                       -212.3901294988270934
    Molecular point group: c1
  Basis Set: CC-PVTZ
  Basis Set:

  -Total Gradient:
     Atom            X                  Y                   Z
    ------   -----------------  -----------------  -----------------
       1        0.000003469795    -0.000002411917    -0.000007017943
       2        0.000001254892     0.000003925596     0.000009048877
       3        0.000103310668    -0.000015766380     0.000000027755
       4       -0.000000707042    -0.000001789425     0.000004690156
       5        0.000001157768     0.000003747217    -0.000000759994
       6       -0.000218453667     0.000008047289    -0.000065579730
       7       -0.000003531599     0.000000569640     0.000010678904
       8       -0.000004598887     0.000010196602     0.000006829856
       9        0.000204837519     0.000017876679     0.000080684146
      10        0.000026774174     0.000007892830     0.000001009588
      11        0.000019533210     0.000005341190    -0.000002527544
      12       -0.000132461708    -0.000030670364    -0.000035182581
      13       -0.000007287937     0.000003951001     0.000010888289
      14        0.000001723578    -0.000005069690    -0.000006753941
      15       -0.000000324717    -0.000002941469    -0.000001655227
      16        0.000005303955    -0.000002898801    -0.000004380614

  **** Optimization is complete! (in 6 steps) ****
    Final optimized geometry and variables:
    Molecular point group: c1

    Geometry (in Angstrom), charge = 0, multiplicity = 1:

    H            0.887353427891    -0.061829445269    -3.175509275052
    C            0.609496196169     0.521389788413    -2.305165936059
    C            0.543667027004    -0.356919257015    -1.067320320956
    H           -0.349329654461     0.988450437568    -2.492481947415
    H            1.348375202595     1.307956077803    -2.186061535536
    N            0.145590538552     0.409587405916     0.094790849032
    H           -0.190300423444    -1.140608891768    -1.222535173845
    H            1.505448527840    -0.856493278889    -0.926219975063
    C            0.040740343243    -0.338415767157     1.341181764099
    H            0.747665780237     1.194852075104     0.206043901042
    C           -1.354172513679    -0.252873808160     1.944812360715
    H            0.290970655102    -1.380205266115     1.165014876612
    H            0.766715876560     0.025965934365     2.062795547372
    H           -2.092498846413    -0.642559765160     1.253733441988
    H           -1.414746987861    -0.821222047860     2.867796293168
    H           -1.614244598068     0.776804521816     2.160213588645

  Mulliken Charges: (a.u.)
   Center  Symbol    Alpha    Beta     Spin     Total
       1     H     0.45423  0.45423  0.00000  0.09154
       2     C     3.14419  3.14419  0.00000 -0.28838
       3     C     3.02185  3.02185  0.00000 -0.04370
       4     H     0.44966  0.44966  0.00000  0.10067
       5     H     0.45956  0.45956  0.00000  0.08089
       6     N     3.64190  3.64190  0.00000 -0.28379
       7     H     0.45900  0.45900  0.00000  0.08199
       8     H     0.47267  0.47267  0.00000  0.05467
       9     C     3.03749  3.03749  0.00000 -0.07497
      10     H     0.44291  0.44291  0.00000  0.11417
      11     C     3.12628  3.12628  0.00000 -0.25257
      12     H     0.46055  0.46055  0.00000  0.07889
      13     H     0.45700  0.45700  0.00000  0.08600
      14     H     0.45597  0.45597  0.00000  0.08805
      15     H     0.46029  0.46029  0.00000  0.07942
      16     H     0.45644  0.45644  0.00000  0.08712

   Total alpha = 21.00000, Total beta = 21.00000, Total charge = -0.00000

*** Psi4 exiting successfully. Buy a developer a beer!
