  ==> Input File <==

--------------------------------------------------------------------------
set {
	reference rhf
	basis 6-31G*
}

set_num_threads( 4 )
memory 2 gb

molecule MOL {
0 1

H	 2.855753	 0.099359	 -2.139937
O	 1.933191	 -0.085432	 -2.246422
C	 1.245498	 0.219436	 -1.124582
C	 1.861317	 0.734287	 0.008996
C	 -0.121209	 0.001484	 -1.130886
H	 2.925043	 0.903152	 0.011816
C	 1.110833	 1.030581	 1.134453
H	 -0.598127	 -0.396149	 -2.005822
C	 -0.865228	 0.300799	 0.000000
H	 1.598542	 1.428570	 2.005730
C	 -0.255568	 0.815933	 1.136980
C	 -2.333960	 0.069074	 0.000000
H	 -0.840435	 1.045368	 2.010076
O	 -2.847347	 -1.003763	 0.000000
H	 -2.943845	 0.977528	 0.000000

	symmetry c1
}
set optking {
	frozen_dihedral = ("
		11 9 12 14
	")
}

ee = optimize('scf')
oeprop('DIPOLE', 'QUADRUPOLE', 'MULLIKEN_CHARGES')
f=open( 'psi4out.xyz', 'w' )
f.write( "15  " )
f.write( str(ee) + "\n" )
f.write( MOL.save_string_xyz() )
f.close()
--------------------------------------------------------------------------

    Molecular point group: c1
  Charge       = 0
  Multiplicity = 1
  Basis Set: 6-31G*
  Basis Set:
  @DF-RHF Final Energy:  -418.27477484438140
    Total Energy =                       -418.2747748443815681
    Molecular point group: c1
  Basis Set: 6-31G*
  Basis Set:
  Basis Set: 6-31G*
  Basis Set:
  @DF-RHF Final Energy:  -418.27376926983578
    Total Energy =                       -418.2737692698358387
  Basis Set: 6-31G*
  Basis Set:
  Basis Set: 6-31G*
  Basis Set:
  @DF-RHF Final Energy:  -418.27512007022045
    Total Energy =                       -418.2751200702208507
  Basis Set: 6-31G*
  Basis Set:
  Basis Set: 6-31G*
  Basis Set:
  @DF-RHF Final Energy:  -418.27525394067038
    Total Energy =                       -418.2752539406708365
  Basis Set: 6-31G*
  Basis Set:
  Basis Set: 6-31G*
  Basis Set:
  @DF-RHF Final Energy:  -418.27525578064336
    Total Energy =                       -418.2752557806436471
  Basis Set: 6-31G*
  Basis Set:
  Charge       = 0
  Multiplicity = 1
  Basis Set: 6-31G*
  Basis Set:

    Orbital Energies (a.u.)
    -----------------------

    Doubly Occupied:

       1A    -20.602164     2A    -20.572340     3A    -11.336369
       4A    -11.312895     5A    -11.256501     6A    -11.252029
       7A    -11.242680     8A    -11.240910     9A    -11.239235
      10A     -1.421985    11A     -1.411589    12A     -1.167618
      13A     -1.047326    14A     -1.024027    15A     -0.898683
      16A     -0.842160    17A     -0.816796    18A     -0.737664
      19A     -0.700013    20A     -0.679855    21A     -0.655465
      22A     -0.639188    23A     -0.613158    24A     -0.600200
      25A     -0.580726    26A     -0.544200    27A     -0.529761
      28A     -0.512546    29A     -0.490938    30A     -0.423348
      31A     -0.352817    32A     -0.323741

  @DF-RHF Final Energy:  -418.27525641690124

   => Energetics <=

    Nuclear Repulsion Energy =            402.3155757461422581
    One-Electron Energy =               -1367.0438175373192280
    Two-Electron Energy =                 546.4529853742760679
    DFT Exchange-Correlation Energy =       0.0000000000000000
    Empirical Dispersion Energy =           0.0000000000000000
    PCM Polarization Energy =               0.0000000000000000
    EFP Energy =                            0.0000000000000000
    Total Energy =                       -418.2752564169009020
    Molecular point group: c1
  Basis Set: 6-31G*
  Basis Set:

  -Total Gradient:
     Atom            X                  Y                   Z
    ------   -----------------  -----------------  -----------------
       1       -0.000008048172     0.000017148146     0.000003759848
       2        0.000009705707     0.000004627680     0.000018055059
       3       -0.000035438585    -0.000067342936    -0.000003497827
       4       -0.000016657163     0.000064183743     0.000013433076
       5        0.000063261588     0.000003989857    -0.000038297781
       6        0.000005969443    -0.000014314312    -0.000003196789
       7        0.000093479583    -0.000009644639    -0.000023173243
       8       -0.000005010983     0.000016920092     0.000013647952
       9       -0.001139175015     0.005792183484     0.000449574786
      10       -0.000001011772    -0.000002505423    -0.000005565345
      11        0.000663332501    -0.004067062515     0.001295911289
      12        0.000279271837    -0.001589878519    -0.007044122707
      13       -0.000002170626     0.000000822608     0.000001303366
      14        0.000084528534    -0.000124940990     0.005312944679
      15        0.000007963129    -0.000024186274     0.000009223639

  **** Optimization is complete! (in 6 steps) ****
    Final optimized geometry and variables:
    Molecular point group: c1

    Geometry (in Angstrom), charge = 0, multiplicity = 1:

    H            2.888594957105    -0.138326828753    -1.832579757182
    O            1.961157476875    -0.291991234149    -1.947005014556
    C            1.279178032103     0.019274659463    -0.824475002096
    C            1.897075043649     0.523603821833     0.308654609415
    C           -0.092649922400    -0.191455959996    -0.834757045288
    H            2.962480331853     0.680013278012     0.318400125731
    C            1.138807771048     0.820945602775     1.430077877420
    H           -0.551110025700    -0.606458498090    -1.712772268996
    C           -0.841739908802     0.131080474555     0.281892365319
    H            1.625524843608     1.200849431729     2.310122883294
    C           -0.230490017037     0.632932648826     1.425432934689
    C           -2.316767762466    -0.138715277660     0.295114083508
    H           -0.813711578745     0.869210961897     2.297599034389
    O           -2.784851040749    -1.229681677896     0.274259428604
    H           -2.962472554647     0.740264287305     0.377615511551

  Mulliken Charges: (a.u.)
   Center  Symbol    Alpha    Beta     Spin     Total
       1     H     0.27023  0.27023  0.00000  0.45954
       2     O     4.37608  4.37608  0.00000 -0.75216
       3     C     2.79178  2.79178  0.00000  0.41644
       4     C     3.14131  3.14131  0.00000 -0.28261
       5     C     3.12286  3.12286  0.00000 -0.24573
       6     H     0.40047  0.40047  0.00000  0.19905
       7     C     3.08936  3.08936  0.00000 -0.17872
       8     H     0.38144  0.38144  0.00000  0.23712
       9     C     3.02341  3.02341  0.00000 -0.04682
      10     H     0.39366  0.39366  0.00000  0.21268
      11     C     3.11825  3.11825  0.00000 -0.23650
      12     C     2.85217  2.85217  0.00000  0.29566
      13     H     0.39421  0.39421  0.00000  0.21159
      14     O     4.22222  4.22222  0.00000 -0.44444
      15     H     0.42255  0.42255  0.00000  0.15489

   Total alpha = 32.00000, Total beta = 32.00000, Total charge = -0.00000
