  ==> Input File <==

--------------------------------------------------------------------------
set {
	reference rhf
	basis 6-31G*
}

set_num_threads( 4 )
memory 2 gb

molecule MOL {
0 1

O	 0.749854	 1.307668	 -0.000040
C	 0.576249	 0.131685	 -0.000108
C	 -0.766779	 -0.556801	 -0.000461
O	 1.568443	 -0.749345	 -0.000005
C	 -1.945214	 0.412366	 0.000161
H	 -0.796911	 -1.211249	 -0.867467
H	 -0.796854	 -1.212390	 0.865687
C	 -3.263564	 -0.287807	 0.326164
H	 -2.012223	 0.895114	 -0.968893
H	 -1.758292	 1.202694	 0.719200
H	 -3.489241	 -1.064400	 -0.399387
H	 -4.088004	 0.417654	 0.321048
H	 -3.232904	 -0.752422	 1.307829
C	 2.886820	 -0.232538	 0.000322
H	 3.059106	 0.369571	 -0.880203
H	 3.540187	 -1.091012	 0.000050
H	 3.059019	 0.368956	 0.881266

	symmetry c1
}
set optking {
	frozen_dihedral = ("
		9 5 3 6
	")
}

ee = optimize('scf')
oeprop('DIPOLE', 'QUADRUPOLE', 'MULLIKEN_CHARGES')
f=open( 'psi4out.xyz', 'w' )
f.write( "17  " )
f.write( str(ee) + "\n" )
f.write( MOL.save_string_xyz() )
f.close()
--------------------------------------------------------------------------

    Molecular point group: c1
  Charge       = 0
  Multiplicity = 1
  Basis Set: 6-31G*
  Basis Set:
  @DF-RHF Final Energy:  -344.90624604010958
    Total Energy =                       -344.9062460401097496
    Molecular point group: c1
  Basis Set: 6-31G*
  Basis Set:
  Basis Set: 6-31G*
  Basis Set:
  @DF-RHF Final Energy:  -344.90631561995804
    Total Energy =                       -344.9063156199579225
  Basis Set: 6-31G*
  Basis Set:
  Basis Set: 6-31G*
  Basis Set:
  @DF-RHF Final Energy:  -344.90631852735453
    Total Energy =                       -344.9063185273543581
  Basis Set: 6-31G*
  Basis Set:
  Basis Set: 6-31G*
  Basis Set:
  @DF-RHF Final Energy:  -344.90629869470962
    Total Energy =                       -344.9062986947096761
  Basis Set: 6-31G*
  Basis Set:
  Charge       = 0
  Multiplicity = 1
  Basis Set: 6-31G*
  Basis Set:

    Orbital Energies (a.u.)
    -----------------------

    Doubly Occupied:

       1A    -20.603958     2A    -20.545839     3A    -11.372579
       4A    -11.281099     5A    -11.236197     6A    -11.221889
       7A    -11.214362     8A     -1.469683     9A     -1.363117
      10A     -1.080350    11A     -1.001446    12A     -0.939598
      13A     -0.827133    14A     -0.767150    15A     -0.699882
      16A     -0.683643    17A     -0.672281    18A     -0.637232
      19A     -0.595336    20A     -0.574372    21A     -0.569446
      22A     -0.527459    23A     -0.522449    24A     -0.497080
      25A     -0.487012    26A     -0.479334    27A     -0.456444
      28A     -0.437995

  @DF-RHF Final Energy:  -344.90633427094457

   => Energetics <=

    Nuclear Repulsion Energy =            312.4833137097412532
    One-Electron Energy =               -1089.2505643804436204
    Two-Electron Energy =                 431.8609163997580822
    DFT Exchange-Correlation Energy =       0.0000000000000000
    Empirical Dispersion Energy =           0.0000000000000000
    PCM Polarization Energy =               0.0000000000000000
    EFP Energy =                            0.0000000000000000
    Total Energy =                       -344.9063342709443418
    Molecular point group: c1
  Basis Set: 6-31G*
  Basis Set:

  -Total Gradient:
     Atom            X                  Y                   Z
    ------   -----------------  -----------------  -----------------
       1        0.000022314943     0.000067693719    -0.000034317381
       2       -0.000009197973    -0.000080426815     0.000080702761
       3       -0.001939128197    -0.002293305518     0.001322429447
       4       -0.000023060569     0.000017114951    -0.000030241053
       5        0.002037368107     0.002479413647     0.000632580349
       6        0.001264663507     0.001526397902    -0.001206273237
       7        0.000012058248     0.000008546033     0.000008182918
       8        0.000018761707     0.000001207827     0.000014021160
       9       -0.001351979908    -0.001666198603    -0.000794501171
      10       -0.000007880494    -0.000041077755    -0.000005267654
      11       -0.000004373759     0.000010000454     0.000005306731
      12       -0.000000533999    -0.000005521137    -0.000001392633
      13       -0.000024902537    -0.000023619595     0.000009170839
      14        0.000011943516     0.000004432805    -0.000000929463
      15       -0.000001883521    -0.000001735909     0.000002366972
      16       -0.000001704011    -0.000001637933    -0.000000161468
      17       -0.000002465064    -0.000001284071    -0.000001677116

  **** Optimization is complete! (in 5 steps) ****
    Final optimized geometry and variables:
    Molecular point group: c1

    Geometry (in Angstrom), charge = 0, multiplicity = 1:

    O            0.750612695203     1.304240170169    -0.048348110700
    C            0.573890757943     0.128729784996    -0.040541307121
    C           -0.770467620637    -0.559529414566    -0.022810446782
    O            1.564359833451    -0.754384783683    -0.049562772879
    C           -1.948124292596     0.412432872393    -0.030352101839
    H           -0.796785019774    -1.212761803616    -0.890558112629
    H           -0.793025669437    -1.207240989746     0.848983777187
    C           -3.273111865930    -0.294858504279     0.255772893136
    H           -2.005378681364     0.894637035655    -1.000978388902
    H           -1.778738028139     1.195048482336     0.699374090687
    H           -3.471758864524    -1.075258766376    -0.473699115012
    H           -4.101103063510     0.405690393507     0.221985982574
    H           -3.270491832617    -0.756017096353     1.239498869414
    C            2.883738250479    -0.240437083104    -0.067550150739
    H            3.046619808951     0.357264780588    -0.952823034534
    H            3.535309932399    -1.100309463901    -0.071745670577
    H            3.067851620984     0.364706109416     0.808458185604

  Mulliken Charges: (a.u.)
   Center  Symbol    Alpha    Beta     Spin     Total
       1     O     4.28569  4.28569  0.00000 -0.57138
       2     C     2.60751  2.60751  0.00000  0.78498
       3     C     3.20575  3.20575  0.00000 -0.41150
       4     O     4.30680  4.30680  0.00000 -0.61360
       5     C     3.15249  3.15249  0.00000 -0.30498
       6     H     0.40038  0.40038  0.00000  0.19924
       7     H     0.40078  0.40078  0.00000  0.19844
       8     C     3.24295  3.24295  0.00000 -0.48591
       9     H     0.41389  0.41389  0.00000  0.17222
      10     H     0.40664  0.40664  0.00000  0.18671
      11     H     0.42168  0.42168  0.00000  0.15663
      12     H     0.41542  0.41542  0.00000  0.16916
      13     H     0.42115  0.42115  0.00000  0.15771
      14     C     3.09241  3.09241  0.00000 -0.18482
      15     H     0.40901  0.40901  0.00000  0.18198
      16     H     0.40840  0.40840  0.00000  0.18319
      17     H     0.40904  0.40904  0.00000  0.18191

   Total alpha = 28.00000, Total beta = 28.00000, Total charge = -0.00000
