                              Psi4 1.0.54 Driver

  ==> Input File <==

--------------------------------------------------------------------------
set {
	reference rhf
	basis cc-pvtz
}

set_num_threads( 4 )
memory 2 gb

molecule MOL {
0 1

H	 -0.000105	 1.988529	 0.748933
O	 -0.000098	 1.879786	 -0.188206
C	 -0.000014	 0.545691	 -0.532416
C	 -1.286000	 -0.125171	 -0.046657
C	 1.286016	 -0.125031	 -0.046584
H	 0.000021	 0.481103	 -1.610604
F	 -1.671735	 0.436870	 1.072350
F	 -2.263036	 -0.012652	 -0.910632
F	 -1.096965	 -1.404916	 0.193956
F	 2.317750	 0.468717	 -0.594166
F	 1.336617	 -1.393765	 -0.365123
F	 1.414467	 -0.024806	 1.259108

	symmetry c1
}
set optking {
	frozen_dihedral = ("
		7 4 3 6
	")
}

ee,wfn = optimize('scf', return_wfn=True)
oeprop( wfn, 'DIPOLE', 'QUADRUPOLE', 'MULLIKEN_CHARGES')
f=open( 'psi4out.xyz', 'w' )
f.write( "12  " )
f.write( str(ee) + "\n" )
f.write( MOL.save_string_xyz() )
f.close()
--------------------------------------------------------------------------

    Molecular point group: c1
  Charge       = 0
  Multiplicity = 1
  Basis Set: CC-PVTZ
  Basis Set:
  @DF-RHF Final Energy:  -786.58549335895373
    Total Energy =                       -786.5854933589542952
    Molecular point group: c1
  Basis Set: CC-PVTZ
  Basis Set:
  Basis Set: CC-PVTZ
  Basis Set:
  @DF-RHF Final Energy:  -786.58680221165991
    Total Energy =                       -786.5868022116603697
  Basis Set: CC-PVTZ
  Basis Set:
  Basis Set: CC-PVTZ
  Basis Set:
  @DF-RHF Final Energy:  -786.58730730336106
    Total Energy =                       -786.5873073033611718
  Basis Set: CC-PVTZ
  Basis Set:
  Basis Set: CC-PVTZ
  Basis Set:
  @DF-RHF Final Energy:  -786.58740686646013
    Total Energy =                       -786.5874068664593324
  Basis Set: CC-PVTZ
  Basis Set:
  Basis Set: CC-PVTZ
  Basis Set:
  @DF-RHF Final Energy:  -786.58742902752488
    Total Energy =                       -786.5874290275243084
  Basis Set: CC-PVTZ
  Basis Set:
  Basis Set: CC-PVTZ
  Basis Set:
  @DF-RHF Final Energy:  -786.58743306851943
    Total Energy =                       -786.5874330685199993
  Basis Set: CC-PVTZ
  Basis Set:
  Charge       = 0
  Multiplicity = 1
  Basis Set: CC-PVTZ
  Basis Set:

    Orbital Energies (a.u.)
    -----------------------

    Doubly Occupied:

       1A    -26.360103     2A    -26.359639     3A    -26.357838
       4A    -26.355713     5A    -26.354335     6A    -26.353018
       7A    -20.608319     8A    -11.522165     9A    -11.518264
      10A    -11.351467    11A     -1.772728    12A     -1.766303
      13A     -1.668629    14A     -1.663952    15A     -1.663014
      16A     -1.660536    17A     -1.438338    18A     -1.101785
      19A     -1.001920    20A     -0.944699    21A     -0.872491
      22A     -0.868055    23A     -0.859266    24A     -0.853307
      25A     -0.840948    26A     -0.822633    27A     -0.745664
      28A     -0.735563    29A     -0.732628    30A     -0.729128
      31A     -0.695145    32A     -0.692891    33A     -0.688681
      34A     -0.682644    35A     -0.677495    36A     -0.667700
      37A     -0.665273    38A     -0.654741    39A     -0.624480
      40A     -0.554525    41A     -0.509286

  @DF-RHF Final Energy:  -786.58743353383784

   => Energetics <=

    Nuclear Repulsion Energy =            670.5674439935344253
    One-Electron Energy =               -2428.3191386232520017
    Two-Electron Energy =                 971.1642610958791693
    DFT Exchange-Correlation Energy =       0.0000000000000000
    Empirical Dispersion Energy =           0.0000000000000000
    PCM Polarization Energy =               0.0000000000000000
    EFP Energy =                            0.0000000000000000
    Total Energy =                       -786.5874335338384071
    Molecular point group: c1
  Basis Set: CC-PVTZ
  Basis Set:

  -Total Gradient:
     Atom            X                  Y                   Z
    ------   -----------------  -----------------  -----------------
       1       -0.000001267919     0.000014914444     0.000003917245
       2        0.000013178820    -0.000039755373     0.000005632436
       3        0.001912507570    -0.004129570885    -0.000272352408
       4        0.002366979110    -0.002547430507     0.002643529809
       5        0.000066811051     0.000005172232    -0.000071237814
       6       -0.002145586177     0.004079219686    -0.000337187506
       7       -0.002123083502     0.002513332909    -0.002011762861
       8       -0.000051967624     0.000011855854    -0.000052831310
       9        0.000007502757     0.000119211123     0.000007969385
      10       -0.000026027450     0.000009607545     0.000007825812
      11       -0.000015902405    -0.000011097136     0.000031935901
      12       -0.000003144239    -0.000025459893     0.000044561317

  **** Optimization is complete! (in 7 steps) ****
    Final optimized geometry and variables:
    Molecular point group: c1

    Geometry (in Angstrom), charge = 0, multiplicity = 1:

    H           -0.072343976296     2.036312528664     0.645647352076
    O            0.018802120911     1.877608288903    -0.279242519109
    C            0.014422089093     0.527779822630    -0.559164447824
    C           -1.281957120417    -0.119388761302    -0.039085091917
    C            1.288790847713    -0.136185913198    -0.040725973889
    H            0.003794511848     0.442379871305    -1.634848400191
    F           -1.674690929458     0.452516894346     1.078247628106
    F           -2.239782315271     0.054731651688    -0.920258203554
    F           -1.167317412210    -1.403559511754     0.179529160035
    F            2.336012217842     0.530034684765    -0.455818383847
    F            1.404470117561    -1.369344102181    -0.466508796173
    F            1.315689208006    -0.148576613473     1.275977628854

  Mulliken Charges: (a.u.)
   Center  Symbol    Alpha    Beta     Spin     Total
       1     H     0.38064  0.38064  0.00000  0.23871
       2     O     4.18885  4.18885  0.00000 -0.37770
       3     C     3.01459  3.01459  0.00000 -0.02918
       4     C     2.67748  2.67748  0.00000  0.64504
       5     C     2.68156  2.68156  0.00000  0.63687
       6     H     0.42525  0.42525  0.00000  0.14950
       7     F     4.61052  4.61052  0.00000 -0.22105
       8     F     4.60457  4.60457  0.00000 -0.20913
       9     F     4.60012  4.60012  0.00000 -0.20024
      10     F     4.60063  4.60063  0.00000 -0.20126
      11     F     4.60416  4.60416  0.00000 -0.20831
      12     F     4.61163  4.61163  0.00000 -0.22326

   Total alpha = 41.00000, Total beta = 41.00000, Total charge = -0.00000

*** Psi4 exiting successfully. Buy a developer a beer!
