  ==> Input File <==

--------------------------------------------------------------------------
set {
	reference rhf
	basis 6-31G*
}

set_num_threads( 4 )
memory 2 gb

molecule MOL {
0 1

H	 2.157560	 -2.478345	 0.987264
C	 1.714956	 -1.783068	 0.279501
C	 0.653762	 -0.929243	 0.966502
H	 1.269680	 -2.351028	 -0.529767
H	 2.518234	 -1.184537	 -0.136479
N	 -0.000257	 -0.000071	 0.054619
H	 -0.097915	 -1.592941	 1.374992
H	 1.090142	 -0.402793	 1.820381
C	 -1.363055	 0.315058	 0.462241
C	 0.798034	 1.193349	 -0.192638
C	 -2.412078	 -0.285320	 -0.468531
H	 -1.482241	 1.391144	 0.451970
H	 -1.549931	 -0.001174	 1.492681
C	 0.533673	 1.807745	 -1.563722
H	 1.844508	 0.920077	 -0.143972
H	 0.642900	 1.941286	 0.590505
H	 -2.262839	 0.075384	 -1.480151
H	 -2.369300	 -1.368867	 -0.491760
H	 -3.410332	 -0.003975	 -0.144961
H	 0.744795	 1.084284	 -2.343252
H	 -0.495718	 2.129827	 -1.678477
H	 1.167535	 2.676582	 -1.717564

	symmetry c1
}
set optking {
	frozen_dihedral = ("
		3 6 9 11
	")
}

ee = optimize('scf')
oeprop('DIPOLE', 'QUADRUPOLE', 'MULLIKEN_CHARGES')
f=open( 'psi4out.xyz', 'w' )
f.write( "22  " )
f.write( str(ee) + "\n" )
f.write( MOL.save_string_xyz() )
f.close()
--------------------------------------------------------------------------

    Molecular point group: c1
  Charge       = 0
  Multiplicity = 1
  Basis Set: 6-31G*
  Basis Set:
  @DF-RHF Final Energy:  -290.36923437410712
    Total Energy =                       -290.3692343741071227
    Molecular point group: c1
  Basis Set: 6-31G*
  Basis Set:
  Basis Set: 6-31G*
  Basis Set:
  @DF-RHF Final Energy:  -290.36978236046474
    Total Energy =                       -290.3697823604649102
  Basis Set: 6-31G*
  Basis Set:
  Basis Set: 6-31G*
  Basis Set:
  @DF-RHF Final Energy:  -290.36997786315152
    Total Energy =                       -290.3699778631510640
  Basis Set: 6-31G*
  Basis Set:
  Basis Set: 6-31G*
  Basis Set:
  @DF-RHF Final Energy:  -290.37003096029753
    Total Energy =                       -290.3700309602976972
  Basis Set: 6-31G*
  Basis Set:
  Basis Set: 6-31G*
  Basis Set:
  @DF-RHF Final Energy:  -290.37003728198863
    Total Energy =                       -290.3700372819886297
  Basis Set: 6-31G*
  Basis Set:
  Basis Set: 6-31G*
  Basis Set:
  @DF-RHF Final Energy:  -290.37003834994687
    Total Energy =                       -290.3700383499468671
  Basis Set: 6-31G*
  Basis Set:
  Charge       = 0
  Multiplicity = 1
  Basis Set: 6-31G*
  Basis Set:

    Orbital Energies (a.u.)
    -----------------------

    Doubly Occupied:

       1A    -15.535895     2A    -11.241396     3A    -11.239905
       4A    -11.239525     5A    -11.205621     6A    -11.205428
       7A    -11.202257     8A     -1.221579     9A     -1.025104
      10A     -1.020619    11A     -0.955256    12A     -0.850723
      13A     -0.838848    14A     -0.773554    15A     -0.654065
      16A     -0.638618    17A     -0.615712    18A     -0.596294
      19A     -0.579548    20A     -0.553930    21A     -0.534818
      22A     -0.521940    23A     -0.515566    24A     -0.498623
      25A     -0.492110    26A     -0.482176    27A     -0.463979
      28A     -0.459282    29A     -0.338275

  @DF-RHF Final Energy:  -290.37003849185226

   => Energetics <=

    Nuclear Repulsion Energy =            337.6262343703126589
    One-Electron Energy =               -1060.9912524048561409
    Two-Electron Energy =                 432.9949795426912260
    DFT Exchange-Correlation Energy =       0.0000000000000000
    Empirical Dispersion Energy =           0.0000000000000000
    PCM Polarization Energy =               0.0000000000000000
    EFP Energy =                            0.0000000000000000
    Total Energy =                       -290.3700384918522559
    Molecular point group: c1
  Basis Set: 6-31G*
  Basis Set:

  -Total Gradient:
     Atom            X                  Y                   Z
    ------   -----------------  -----------------  -----------------
       1        0.000002134149     0.000002215812     0.000000000089
       2       -0.000004602173    -0.000004999156    -0.000005548473
       3        0.000569152198     0.001273187633     0.000878822750
       4       -0.000000895700    -0.000001327003     0.000001167320
       5       -0.000000685953     0.000006909894     0.000000042752
       6       -0.000769142316    -0.001267238413    -0.001556652281
       7        0.000003405287     0.000001571672     0.000001297998
       8        0.000003658618    -0.000003456922     0.000007001914
       9        0.000123654369    -0.001276817058     0.001567029582
      10       -0.000026175983    -0.000021304950     0.000005175394
      11        0.000085209604     0.001289367185    -0.000901393832
      12        0.000001409921     0.000001766940    -0.000001298390
      13        0.000011127290    -0.000004960798     0.000009123263
      14        0.000000689437     0.000004351038     0.000000419732
      15        0.000000903777     0.000004670974     0.000004427917
      16        0.000007637334    -0.000005770005    -0.000005768477
      17       -0.000004666245    -0.000002094284    -0.000001942070
      18       -0.000003409325    -0.000002674480     0.000002169039
      19        0.000000917118    -0.000002038823    -0.000002066444
      20        0.000001801882    -0.000003529070     0.000002119258
      21       -0.000004971531    -0.000001399178     0.000003407616
      22        0.000002848240     0.000013568992    -0.000007534658

  **** Optimization is complete! (in 7 steps) ****
    Final optimized geometry and variables:
    Molecular point group: c1

    Geometry (in Angstrom), charge = 0, multiplicity = 1:

    H            2.131944014082    -2.553408169261     1.126984193919
    C            1.761172932911    -1.819654709911     0.416910040609
    C            0.652161966819    -0.988648810708     1.056222750915
    H            1.379798295232    -2.343659594617    -0.452517360301
    H            2.606972217515    -1.218642054929     0.102597435265
    N            0.019771690012    -0.059535766602     0.130589546739
    H           -0.111929221595    -1.674724311757     1.403435765587
    H            1.034974425024    -0.476017622102     1.944547109220
    C           -1.347098957067     0.291555104320     0.518114845953
    C            0.846339371914     1.099488340640    -0.168977542057
    C           -2.385293861337    -0.306325574984    -0.426133113864
    H           -1.460193178636     1.371425552955     0.532057908850
    H           -1.547363315869    -0.035931132402     1.535348211960
    C            0.458719894200     1.780416014690    -1.477663554305
    H            1.874435976867     0.772796604874    -0.254051378899
    H            0.821679209043     1.827180008298     0.648359203338
    H           -2.231357387057     0.048590675536    -1.439036755189
    H           -2.312291360827    -1.389292325168    -0.441757929776
    H           -3.392723133207    -0.039074003844    -0.117015813294
    H            0.524379163295     1.076471209847    -2.299982732759
    H           -0.552637286077     2.172081177328    -1.451368730108
    H            1.126276353629     2.612745371163    -1.681333096695

  Mulliken Charges: (a.u.)
   Center  Symbol    Alpha    Beta     Spin     Total
       1     H     0.42262  0.42262  0.00000  0.15476
       2     C     3.23862  3.23862  0.00000 -0.47725
       3     C     3.05551  3.05551  0.00000 -0.11102
       4     H     0.41457  0.41457  0.00000  0.17086
       5     H     0.42111  0.42111  0.00000  0.15777
       6     N     3.78569  3.78569  0.00000 -0.57138
       7     H     0.41883  0.41883  0.00000  0.16234
       8     H     0.43374  0.43374  0.00000  0.13251
       9     C     3.06301  3.06301  0.00000 -0.12603
      10     C     3.05696  3.05696  0.00000 -0.11392
      11     C     3.22774  3.22774  0.00000 -0.45547
      12     H     0.42224  0.42224  0.00000  0.15553
      13     H     0.42373  0.42373  0.00000  0.15253
      14     C     3.23842  3.23842  0.00000 -0.47685
      15     H     0.41866  0.41866  0.00000  0.16269
      16     H     0.43391  0.43391  0.00000  0.13218
      17     H     0.41799  0.41799  0.00000  0.16403
      18     H     0.42091  0.42091  0.00000  0.15817
      19     H     0.42735  0.42735  0.00000  0.14530
      20     H     0.41496  0.41496  0.00000  0.17009
      21     H     0.42088  0.42088  0.00000  0.15823
      22     H     0.42254  0.42254  0.00000  0.15492

   Total alpha = 29.00000, Total beta = 29.00000, Total charge =  0.00000
