  ==> Input File <==

--------------------------------------------------------------------------
set {
	reference rhf
	basis 6-31G*
}

set_num_threads( 4 )
memory 2 gb

molecule MOL {
0 1

H	 1.175985	 -0.087078	 1.689499
O	 1.360519	 -0.289717	 0.782450
C	 0.709265	 0.639550	 -0.033818
C	 -0.793441	 0.596080	 0.058728
H	 1.018084	 0.418877	 -1.049267
H	 1.051250	 1.651169	 0.182278
C	 -1.530462	 -0.493172	 -0.025500
H	 -1.268471	 1.554324	 0.202247
H	 -1.092586	 -1.461565	 -0.186463
H	 -2.602122	 -0.450675	 0.050101

	symmetry c1
}
set optking {
	frozen_dihedral = ("
		5 3 4 7
	")
}

ee = optimize('scf')
oeprop('DIPOLE', 'QUADRUPOLE', 'MULLIKEN_CHARGES')
f=open( 'psi4out.xyz', 'w' )
f.write( "10  " )
f.write( str(ee) + "\n" )
f.write( MOL.save_string_xyz() )
f.close()
--------------------------------------------------------------------------

    Molecular point group: c1
  Charge       = 0
  Multiplicity = 1
  Basis Set: 6-31G*
  Basis Set:
  @DF-RHF Final Energy:  -191.91299858709220
    Total Energy =                       -191.9129985870921757
    Molecular point group: c1
  Basis Set: 6-31G*
  Basis Set:
  Basis Set: 6-31G*
  Basis Set:
  @DF-RHF Final Energy:  -191.91370458025824
    Total Energy =                       -191.9137045802582691
  Basis Set: 6-31G*
  Basis Set:
  Basis Set: 6-31G*
  Basis Set:
  @DF-RHF Final Energy:  -191.91377379453485
    Total Energy =                       -191.9137737945349329
  Basis Set: 6-31G*
  Basis Set:
  Basis Set: 6-31G*
  Basis Set:
  @DF-RHF Final Energy:  -191.91378055286327
    Total Energy =                       -191.9137805528633294
  Basis Set: 6-31G*
  Basis Set:
  Charge       = 0
  Multiplicity = 1
  Basis Set: 6-31G*
  Basis Set:

    Orbital Energies (a.u.)
    -----------------------

    Doubly Occupied:

       1A    -20.555418     2A    -11.275401     3A    -11.230427
       4A    -11.224166     5A     -1.362430     6A     -1.058401
       7A     -0.923107     8A     -0.774240     9A     -0.678216
      10A     -0.660485    11A     -0.604458    12A     -0.575759
      13A     -0.549310    14A     -0.477190    15A     -0.446695
      16A     -0.367824

  @DF-RHF Final Energy:  -191.91378167131484

   => Energetics <=

    Nuclear Repulsion Energy =            118.8055409036807220
    One-Electron Energy =                -495.9115967021531333
    Two-Electron Energy =                 185.1922741271575319
    DFT Exchange-Correlation Energy =       0.0000000000000000
    Empirical Dispersion Energy =           0.0000000000000000
    PCM Polarization Energy =               0.0000000000000000
    EFP Energy =                            0.0000000000000000
    Total Energy =                       -191.9137816713148936
    Molecular point group: c1
  Basis Set: 6-31G*
  Basis Set:

  -Total Gradient:
     Atom            X                  Y                   Z
    ------   -----------------  -----------------  -----------------
       1       -0.000012524867     0.000016670683    -0.000016795755
       2        0.000051701611     0.000006935910    -0.000000684393
       3       -0.000301198969     0.004197284605    -0.002526551520
       4        0.000343577051    -0.001228609361     0.004816444648
       5        0.000161045067    -0.003266638896     0.000836862196
       6        0.000004059699    -0.000029229706     0.000001646430
       7       -0.000228255348     0.000294610006    -0.003096258421
       8       -0.000006636367    -0.000008791576     0.000000702679
       9       -0.000007909547     0.000017325300    -0.000003068590
      10       -0.000003858333     0.000000443034    -0.000012297273

  **** Optimization is complete! (in 5 steps) ****
    Final optimized geometry and variables:
    Molecular point group: c1

    Geometry (in Angstrom), charge = 0, multiplicity = 1:

    H            1.023535900052    -0.327179691468     1.415238627481
    O            1.340355822765    -0.404277374635     0.525720078284
    C            0.698844801530     0.555924645673    -0.274030794374
    C           -0.811240239307     0.511790641974    -0.163829296122
    H            1.003966288942     0.317573421982    -1.284981843165
    H            1.060587779218     1.554135591909    -0.041734414503
    C           -1.517413829781    -0.600278983257    -0.223695692587
    H           -1.318572731284     1.458845277631    -0.072463297107
    H           -1.045255906170    -1.562097283035    -0.323599967832
    H           -2.590821174395    -0.590786001609    -0.158986879029

  Mulliken Charges: (a.u.)
   Center  Symbol    Alpha    Beta     Spin     Total
       1     H     0.28298  0.28298  0.00000  0.43404
       2     O     4.36787  4.36787  0.00000 -0.73575
       3     C     2.99755  2.99755  0.00000  0.00489
       4     C     3.11120  3.11120  0.00000 -0.22239
       5     H     0.40787  0.40787  0.00000  0.18425
       6     H     0.42598  0.42598  0.00000  0.14804
       7     C     3.18521  3.18521  0.00000 -0.37043
       8     H     0.40821  0.40821  0.00000  0.18358
       9     H     0.40301  0.40301  0.00000  0.19397
      10     H     0.41010  0.41010  0.00000  0.17979

   Total alpha = 16.00000, Total beta = 16.00000, Total charge =  0.00000
