  ==> Input File <==

--------------------------------------------------------------------------
set {
	reference rhf
	basis 6-31G*
}

set_num_threads( 4 )
memory 2 gb

molecule MOL {
0 1

O	 0.625848	 1.349995	 -0.000749
C	 0.486307	 0.169203	 0.000779
C	 1.608116	 -0.841643	 0.000302
O	 -0.698257	 -0.426125	 0.001050
C	 2.990107	 -0.200498	 -0.000684
H	 1.468623	 -1.481519	 -0.865924
H	 1.469683	 -1.481289	 0.866878
H	 3.129736	 0.423364	 -0.875135
H	 3.757882	 -0.966877	 -0.001197
H	 3.130964	 0.423383	 0.873533
C	 -1.187950	 -0.917286	 -1.242478
C	 -2.539618	 -1.547309	 -0.980986
H	 -0.482985	 -1.634357	 -1.640494
H	 -1.258269	 -0.096226	 -1.942839
H	 -2.452978	 -2.364180	 -0.273616
H	 -2.951003	 -1.936675	 -1.906623
H	 -3.232612	 -0.817689	 -0.577662

	symmetry c1
}
set optking {
	frozen_dihedral = ("
		11 4 2 3
	")
}

ee = optimize('scf')
oeprop('DIPOLE', 'QUADRUPOLE', 'MULLIKEN_CHARGES')
f=open( 'psi4out.xyz', 'w' )
f.write( "17  " )
f.write( str(ee) + "\n" )
f.write( MOL.save_string_xyz() )
f.close()
--------------------------------------------------------------------------

    Molecular point group: c1
  Charge       = 0
  Multiplicity = 1
  Basis Set: 6-31G*
  Basis Set:
  @DF-RHF Final Energy:  -344.88957615122507
    Total Energy =                       -344.8895761512251283
    Molecular point group: c1
  Basis Set: 6-31G*
  Basis Set:
  Basis Set: 6-31G*
  Basis Set:
  @DF-RHF Final Energy:  -344.89085487179011
    Total Energy =                       -344.8908548717901681
  Basis Set: 6-31G*
  Basis Set:
  Basis Set: 6-31G*
  Basis Set:
  @DF-RHF Final Energy:  -344.89150704872196
    Total Energy =                       -344.8915070487218486
  Basis Set: 6-31G*
  Basis Set:
  Basis Set: 6-31G*
  Basis Set:
  @DF-RHF Final Energy:  -344.89159274428016
    Total Energy =                       -344.8915927442799330
  Basis Set: 6-31G*
  Basis Set:
  Basis Set: 6-31G*
  Basis Set:
  @DF-RHF Final Energy:  -344.89159596864636
    Total Energy =                       -344.8915959686462429
  Basis Set: 6-31G*
  Basis Set:
  Basis Set: 6-31G*
  Basis Set:
  @DF-RHF Final Energy:  -344.89159856106824
    Total Energy =                       -344.8915985610682924
  Basis Set: 6-31G*
  Basis Set:
  Charge       = 0
  Multiplicity = 1
  Basis Set: 6-31G*
  Basis Set:

    Orbital Energies (a.u.)
    -----------------------

    Doubly Occupied:

       1A    -20.583284     2A    -20.555287     3A    -11.374000
       4A    -11.297057     5A    -11.242575     6A    -11.225024
       7A    -11.219012     8A     -1.457016     9A     -1.366455
      10A     -1.064575    11A     -1.038567    12A     -0.903230
      13A     -0.867601    14A     -0.769938    15A     -0.701619
      16A     -0.684389    17A     -0.655799    18A     -0.638200
      19A     -0.602789    20A     -0.563673    21A     -0.556634
      22A     -0.532641    23A     -0.527094    24A     -0.520115
      25A     -0.507222    26A     -0.485292    27A     -0.451382
      28A     -0.434249

  @DF-RHF Final Energy:  -344.89159873919101

   => Energetics <=

    Nuclear Repulsion Energy =            314.2791832125613496
    One-Electron Energy =               -1092.6921190970178941
    Two-Electron Energy =                 433.5213371452656475
    DFT Exchange-Correlation Energy =       0.0000000000000000
    Empirical Dispersion Energy =           0.0000000000000000
    PCM Polarization Energy =               0.0000000000000000
    EFP Energy =                            0.0000000000000000
    Total Energy =                       -344.8915987391909539
    Molecular point group: c1
  Basis Set: 6-31G*
  Basis Set:

  -Total Gradient:
     Atom            X                  Y                   Z
    ------   -----------------  -----------------  -----------------
       1       -0.000001859862     0.000016013067    -0.000012414488
       2        0.000176140243    -0.000372668052     0.001203908771
       3       -0.000009916104     0.000000157066    -0.000773472316
       4       -0.000553727686     0.001101784794    -0.000592758701
       5        0.000004779951    -0.000009886723    -0.000000312708
       6        0.000007339454     0.000004060897     0.000014133024
       7        0.000002343216     0.000002873832    -0.000000197416
       8        0.000000524205    -0.000000126659    -0.000001516330
       9        0.000001112663     0.000003200453    -0.000001280439
      10       -0.000002315131    -0.000001219229     0.000001337710
      11        0.000389056583    -0.000749723947     0.000165587751
      12       -0.000005305650    -0.000010571531    -0.000001591893
      13       -0.000018503693     0.000008846233    -0.000017091336
      14        0.000018984113     0.000004505653     0.000010832050
      15       -0.000004338707    -0.000002517475     0.000002366459
      16       -0.000000797803     0.000005238556     0.000002067404
      17       -0.000003515794     0.000000033066     0.000000402458

  **** Optimization is complete! (in 7 steps) ****
    Final optimized geometry and variables:
    Molecular point group: c1

    Geometry (in Angstrom), charge = 0, multiplicity = 1:

    O            0.423547174674     1.648329325099     0.378570474643
    C            0.332992030942     0.472073753438     0.312693180121
    C            1.511467151363    -0.474909345884     0.293542034520
    O           -0.873511129161    -0.137938298954     0.310385043030
    C            2.858752050274     0.235489102265     0.336129623273
    H            1.434144192162    -1.102185250589    -0.590058746515
    H            1.391021197491    -1.145079894737     1.140346170331
    H            2.981483065619     0.890207093084    -0.518271033833
    H            3.665498601988    -0.489685325632     0.329847647704
    H            2.949771073038     0.840978290258     1.229333148384
    C           -1.385368935009    -0.619181683680    -0.922054793562
    C           -2.790305890887    -1.124165310166    -0.671066476859
    H           -0.754919822931    -1.416451779109    -1.302156950295
    H           -1.388970592250     0.188610556256    -1.645863721906
    H           -2.780441727443    -1.924134655661     0.060099656922
    H           -3.221133125906    -1.502001192040    -1.592712294862
    H           -3.416483992035    -0.323690982623    -0.296342547429

  Mulliken Charges: (a.u.)
   Center  Symbol    Alpha    Beta     Spin     Total
       1     O     4.25101  4.25101  0.00000 -0.50202
       2     C     2.61297  2.61297  0.00000  0.77406
       3     C     3.21408  3.21408  0.00000 -0.42816
       4     O     4.32108  4.32108  0.00000 -0.64216
       5     C     3.23824  3.23824  0.00000 -0.47648
       6     H     0.40714  0.40714  0.00000  0.18571
       7     H     0.39858  0.39858  0.00000  0.20285
       8     H     0.41074  0.41074  0.00000  0.17853
       9     H     0.41819  0.41819  0.00000  0.16361
      10     H     0.40770  0.40770  0.00000  0.18461
      11     C     3.00295  3.00295  0.00000 -0.00590
      12     C     3.24580  3.24580  0.00000 -0.49159
      13     H     0.42358  0.42358  0.00000  0.15285
      14     H     0.41381  0.41381  0.00000  0.17238
      15     H     0.41051  0.41051  0.00000  0.17898
      16     H     0.41784  0.41784  0.00000  0.16431
      17     H     0.40579  0.40579  0.00000  0.18842

   Total alpha = 28.00000, Total beta = 28.00000, Total charge = -0.00000
