                              Psi4 1.0.54 Driver

  ==> Input File <==

--------------------------------------------------------------------------
set {
	reference rhf
	basis cc-pvtz
}

set_num_threads( 4 )
memory 2 gb

molecule MOL {
0 1

H	 2.462485	 -2.216993	 0.000000
O	 2.777472	 -1.330706	 0.000000
C	 1.763288	 -0.447523	 0.000000
C	 0.520872	 -0.899476	 0.421024
C	 1.922231	 0.862808	 -0.397654
H	 0.419275	 -1.922128	 0.726008
C	 -0.553904	 -0.040545	 0.442164
H	 2.868793	 1.238162	 -0.726936
C	 0.822123	 1.696696	 -0.363585
H	 -1.510271	 -0.398664	 0.769059
C	 -0.419138	 1.280060	 0.047469
N	 0.998641	 3.090012	 -0.788217
H	 -1.244303	 1.958074	 0.058604
O	 2.081566	 3.423923	 -1.138719
O	 0.049765	 3.798021	 -0.755746

	symmetry c1
}
set optking {
	frozen_dihedral = ("
		4 3 2 1
	")
}

ee,wfn = optimize('scf', return_wfn=True)
oeprop( wfn, 'DIPOLE', 'QUADRUPOLE', 'MULLIKEN_CHARGES')
f=open( 'psi4out.xyz', 'w' )
f.write( "15  " )
f.write( str(ee) + "\n" )
f.write( MOL.save_string_xyz() )
f.close()
--------------------------------------------------------------------------

    Molecular point group: c1
  Charge       = 0
  Multiplicity = 1
  Basis Set: CC-PVTZ
  Basis Set:
  @DF-RHF Final Energy:  -509.21562761049751
    Total Energy =                       -509.2156276104976769
    Molecular point group: c1
  Basis Set: CC-PVTZ
  Basis Set:
  Basis Set: CC-PVTZ
  Basis Set:
  @DF-RHF Final Energy:  -509.21764904214814
    Total Energy =                       -509.2176490421484232
  Basis Set: CC-PVTZ
  Basis Set:
  Basis Set: CC-PVTZ
  Basis Set:
  @DF-RHF Final Energy:  -509.21069411273845
    Total Energy =                       -509.2106941127385653
  Basis Set: CC-PVTZ
  Basis Set:
  Basis Set: CC-PVTZ
  Basis Set:
  @DF-RHF Final Energy:  -509.21768348283013
    Total Energy =                       -509.2176834828302390
  Basis Set: CC-PVTZ
  Basis Set:
  Basis Set: CC-PVTZ
  Basis Set:
  @DF-RHF Final Energy:  -509.21752352717652
    Total Energy =                       -509.2175235271766951
  Basis Set: CC-PVTZ
  Basis Set:
  Basis Set: CC-PVTZ
  Basis Set:
  @DF-RHF Final Energy:  -509.21783553765823
    Total Energy =                       -509.2178355376580612
  Basis Set: CC-PVTZ
  Basis Set:
  Basis Set: CC-PVTZ
  Basis Set:
  @DF-RHF Final Energy:  -509.21786349600882
    Total Energy =                       -509.2178634960084764
  Basis Set: CC-PVTZ
  Basis Set:
  Charge       = 0
  Multiplicity = 1
  Basis Set: CC-PVTZ
  Basis Set:

    Orbital Energies (a.u.)
    -----------------------

    Doubly Occupied:

       1A    -20.606993     2A    -20.592382     3A    -20.592145
       4A    -15.848014     5A    -11.326895     6A    -11.307472
       7A    -11.264632     8A    -11.261490     9A    -11.259153
      10A    -11.257877    11A     -1.641786    12A     -1.439256
      13A     -1.424317    14A     -1.201928    15A     -1.094428
      16A     -1.049306    17A     -0.964839    18A     -0.866338
      19A     -0.850486    20A     -0.800279    21A     -0.741066
      22A     -0.737947    23A     -0.721828    24A     -0.712530
      25A     -0.682482    26A     -0.637976    27A     -0.625321
      28A     -0.593144    29A     -0.566764    30A     -0.539164
      31A     -0.519614    32A     -0.492308    33A     -0.491549
      34A     -0.457485    35A     -0.381166    36A     -0.346654

  @DF-RHF Final Energy:  -509.21786594846969

   => Energetics <=

    Nuclear Repulsion Energy =            504.5654076188443469
    One-Electron Energy =               -1695.7725175384612157
    Two-Electron Energy =                 681.9892439711470615
    DFT Exchange-Correlation Energy =       0.0000000000000000
    Empirical Dispersion Energy =           0.0000000000000000
    PCM Polarization Energy =               0.0000000000000000
    EFP Energy =                            0.0000000000000000
    Total Energy =                       -509.2178659484698073
    Molecular point group: c1
  Basis Set: CC-PVTZ
  Basis Set:

  -Total Gradient:
     Atom            X                  Y                   Z
    ------   -----------------  -----------------  -----------------
       1       -0.000038727093    -0.000004982793    -0.001536688564
       2        0.000175576487     0.000197065113     0.002498677187
       3       -0.000153931598    -0.000317072229    -0.002107733436
       4       -0.000009696519     0.000363264478     0.001112317670
       5        0.000054994483    -0.000148700006     0.000018456937
       6        0.000005607616     0.000016285204    -0.000011005141
       7        0.000056032136    -0.000191824341     0.000043747698
       8        0.000028141789    -0.000006719369    -0.000005745218
       9       -0.000226192718    -0.000018607380     0.000069310691
      10       -0.000032093249     0.000033797286    -0.000004319134
      11        0.000165058682     0.000140927111    -0.000066870217
      12        0.000045056053    -0.000032243439    -0.000125513763
      13       -0.000036393604    -0.000020268929     0.000012567707
      14        0.000224150495    -0.000070799196     0.000010955658
      15       -0.000257582959     0.000059878501     0.000091841927

  **** Optimization is complete! (in 8 steps) ****
    Final optimized geometry and variables:
    Molecular point group: c1

    Geometry (in Angstrom), charge = 0, multiplicity = 1:

    H            1.536651204716    -3.368376378679     0.266576003795
    O            1.780895434602    -2.460336039435     0.255573673971
    C            0.698039032586    -1.659454206234     0.274024273895
    C           -0.543515673154    -2.094285512565     0.702403883223
    C            0.872063012747    -0.346802151578    -0.122474439759
    H           -0.671919028739    -3.111741345071     1.022494752720
    C           -1.615530854327    -1.222955387928     0.721736295774
    H            1.828812693393    -0.002495928815    -0.449965873437
    C           -0.214472933875     0.495167013706    -0.082308005125
    H           -2.574222628150    -1.571758764463     1.051902367617
    C           -1.465725672523     0.090581294248     0.329605201781
    N           -0.027699047678     1.889152659846    -0.504230473269
    H           -2.282369907130     0.778651099184     0.342155591792
    O            1.056135138503     2.217280085105    -0.852944473433
    O           -0.974090809495     2.602036784802    -0.469575020761

  Mulliken Charges: (a.u.)
   Center  Symbol    Alpha    Beta     Spin     Total
       1     H     0.38536  0.38536  0.00000  0.22928
       2     O     4.16918  4.16918  0.00000 -0.33837
       3     C     2.85196  2.85196  0.00000  0.29608
       4     C     3.11879  3.11879  0.00000 -0.23758
       5     C     3.10801  3.10801  0.00000 -0.21602
       6     H     0.42667  0.42667  0.00000  0.14666
       7     C     3.06312  3.06312  0.00000 -0.12625
       8     H     0.39394  0.39394  0.00000  0.21212
       9     C     2.96920  2.96920  0.00000  0.06160
      10     H     0.41597  0.41597  0.00000  0.16806
      11     C     3.09634  3.09634  0.00000 -0.19268
      12     N     3.25114  3.25114  0.00000  0.49772
      13     H     0.39943  0.39943  0.00000  0.20114
      14     O     4.17466  4.17466  0.00000 -0.34932
      15     O     4.17622  4.17622  0.00000 -0.35243

   Total alpha = 36.00000, Total beta = 36.00000, Total charge = -0.00000

*** Psi4 exiting successfully. Buy a developer a beer!
