                              Psi4 1.0.54 Driver

  ==> Input File <==

--------------------------------------------------------------------------
set {
	reference rhf
	basis cc-pvtz
}

set_num_threads( 4 )
memory 2 gb

molecule MOL {
0 1

O	 -2.817697	 1.304178	 0.001046
C	 -2.664672	 0.129869	 0.003507
C	 -3.797908	 -0.860100	 -0.001145
O	 -1.481217	 -0.452708	 0.001092
H	 -4.408836	 -0.679689	 -0.875387
H	 -3.443486	 -1.878443	 -0.002770
H	 -4.412123	 -0.683688	 0.871605
C	 -0.332055	 0.384012	 -0.000250
C	 0.892252	 -0.506059	 -0.000295
H	 -0.360822	 1.020205	 -0.874146
H	 -0.359817	 1.021310	 0.872861
C	 0.584096	 -1.906969	 -0.520729
H	 1.285207	 -0.563933	 1.009609
H	 1.662419	 -0.045108	 -0.610240
C	 1.804773	 -2.822928	 -0.530438
H	 -0.195172	 -2.357095	 0.089275
H	 0.180811	 -1.838912	 -1.528054
C	 1.497523	 -4.222588	 -1.051549
H	 2.207633	 -2.893135	 0.475957
H	 2.584123	 -2.374231	 -1.139840
H	 0.745248	 -4.711063	 -0.441368
H	 2.383716	 -4.846394	 -1.045580
H	 1.124342	 -4.188104	 -2.069586

	symmetry c1
}
set optking {
	frozen_dihedral = ("
		13 9 8 10
	")
}

ee,wfn = optimize('scf', return_wfn=True)
oeprop( wfn, 'DIPOLE', 'QUADRUPOLE', 'MULLIKEN_CHARGES')
f=open( 'psi4out.xyz', 'w' )
f.write( "23  " )
f.write( str(ee) + "\n" )
f.write( MOL.save_string_xyz() )
f.close()
--------------------------------------------------------------------------

    Molecular point group: c1
  Charge       = 0
  Multiplicity = 1
  Basis Set: CC-PVTZ
  Basis Set:
  @DF-RHF Final Energy:  -423.12568932444356
    Total Energy =                       -423.1256893244437833
    Molecular point group: c1
  Basis Set: CC-PVTZ
  Basis Set:
  Basis Set: CC-PVTZ
  Basis Set:
  @DF-RHF Final Energy:  -423.12562899700771
    Total Energy =                       -423.1256289970081070
  Basis Set: CC-PVTZ
  Basis Set:
  Basis Set: CC-PVTZ
  Basis Set:
  @DF-RHF Final Energy:  -423.12854116279084
    Total Energy =                       -423.1285411627911799
  Basis Set: CC-PVTZ
  Basis Set:
  Basis Set: CC-PVTZ
  Basis Set:
  @DF-RHF Final Energy:  -423.12780852731225
    Total Energy =                       -423.1278085273122542
  Basis Set: CC-PVTZ
  Basis Set:
  Basis Set: CC-PVTZ
  Basis Set:
  @DF-RHF Final Energy:  -423.12868256403630
    Total Energy =                       -423.1286825640361258
  Basis Set: CC-PVTZ
  Basis Set:
  Basis Set: CC-PVTZ
  Basis Set:
  @DF-RHF Final Energy:  -423.12873909521085
    Total Energy =                       -423.1287390952109035
  Basis Set: CC-PVTZ
  Basis Set:
  Charge       = 0
  Multiplicity = 1
  Basis Set: CC-PVTZ
  Basis Set:

    Orbital Energies (a.u.)
    -----------------------

    Doubly Occupied:

       1A    -20.596908     2A    -20.530378     3A    -11.367266
       4A    -11.280163     5A    -11.231422     6A    -11.223715
       7A    -11.216868     8A    -11.215899     9A    -11.209156
      10A     -1.472422    11A     -1.365138    12A     -1.090725
      13A     -1.041572    14A     -1.003041    15A     -0.932516
      16A     -0.845167    17A     -0.808154    18A     -0.766794
      19A     -0.691705    20A     -0.690206    21A     -0.670436
      22A     -0.644616    23A     -0.606499    24A     -0.589825
      25A     -0.581614    26A     -0.567158    27A     -0.560897
      28A     -0.531499    29A     -0.527410    30A     -0.516881
      31A     -0.490128    32A     -0.474500    33A     -0.468817
      34A     -0.459364    35A     -0.447213    36A     -0.441620

  @DF-RHF Final Energy:  -423.12874003070050

   => Energetics <=

    Nuclear Repulsion Energy =            460.2583370237834401
    One-Electron Energy =               -1488.4587740600652523
    Two-Electron Energy =                 605.0716970055811998
    DFT Exchange-Correlation Energy =       0.0000000000000000
    Empirical Dispersion Energy =           0.0000000000000000
    PCM Polarization Energy =               0.0000000000000000
    EFP Energy =                            0.0000000000000000
    Total Energy =                       -423.1287400307005555
    Molecular point group: c1
  Basis Set: CC-PVTZ
  Basis Set:

  -Total Gradient:
     Atom            X                  Y                   Z
    ------   -----------------  -----------------  -----------------
       1       -0.000073180622     0.000022326258    -0.000025450667
       2        0.000152452814    -0.000179816751     0.000048867261
       3       -0.000020594153     0.000098863318    -0.000023441496
       4       -0.000255887870     0.000049134827    -0.000067725739
       5        0.000036169007    -0.000000542616     0.000048851174
       6        0.000016516230    -0.000008868189    -0.000002936147
       7        0.000026989201    -0.000002065411    -0.000035061436
       8       -0.003029892027    -0.004522619418    -0.004140709356
       9       -0.003785669992    -0.004851412853     0.002174197534
      10        0.003198271659     0.004503348736     0.003113605604
      11        0.000043612748     0.000002350242    -0.000003956008
      12       -0.000035908879    -0.000025109488     0.000132541127
      13        0.003691483848     0.004893417343    -0.001118371876
      14        0.000008865224    -0.000002575741    -0.000013331138
      15        0.000012636891    -0.000006348584    -0.000062692920
      16        0.000004702788    -0.000024998856     0.000018184703
      17       -0.000010735067     0.000004208439    -0.000043490972
      18       -0.000011539755     0.000035701257     0.000007115691
      19       -0.000012156010    -0.000005576437     0.000011711725
      20        0.000045080454     0.000014788979    -0.000020072205
      21       -0.000019534388    -0.000001432498     0.000007415178
      22        0.000019148515     0.000005657366     0.000007058369
      23       -0.000000830619     0.000001570074    -0.000012308406

  **** Optimization is complete! (in 7 steps) ****
    Final optimized geometry and variables:
    Molecular point group: c1

    Geometry (in Angstrom), charge = 0, multiplicity = 1:

    O           -2.104401555448     2.362718426948     0.175711618281
    C           -2.023186340301     1.183558964636     0.246655325735
    C           -3.215111882017     0.267462539565     0.312892511663
    O           -0.877764820124     0.529934693529     0.275345093844
    H           -3.822136375102     0.429303657472    -0.567635662669
    H           -2.924769119756    -0.769227697468     0.374574563985
    H           -3.808630094931     0.537334875556     1.175983166893
    C            0.316721227931     1.293287990007     0.218662380362
    C            1.540412095244     0.379437745466     0.283143505201
    H            0.324874372787     1.904942416225    -0.672293058611
    H            0.321647581558     1.983948573787     1.050435108255
    C            1.363715447701    -1.020077844820    -0.296852695608
    H            1.911143857414     0.334967181736     1.301874585190
    H            2.327377271562     0.886708520656    -0.268829358127
    C            2.668761280494    -1.810994546123    -0.318845482079
    H            0.622244990252    -1.563121598008     0.276959796897
    H            0.970934416792    -0.945264758384    -1.307545288451
    C            2.502649777680    -3.217529598108    -0.883971298580
    H            3.067583722520    -1.873851284104     0.690117411831
    H            3.408532950372    -1.272824703768    -0.905299125668
    H            1.795063933958    -3.793773013169    -0.297243213237
    H            3.444685957108    -3.753657207699    -0.885744055611
    H            2.136910494301    -3.188244705933    -1.905001631914

  Mulliken Charges: (a.u.)
   Center  Symbol    Alpha    Beta     Spin     Total
       1     O     4.20279  4.20279  0.00000 -0.40558
       2     C     2.81287  2.81287  0.00000  0.37426
       3     C     3.13969  3.13969  0.00000 -0.27938
       4     O     4.14356  4.14356  0.00000 -0.28712
       5     H     0.44187  0.44187  0.00000  0.11625
       6     H     0.44209  0.44209  0.00000  0.11582
       7     H     0.44183  0.44183  0.00000  0.11634
       8     C     2.98704  2.98704  0.00000  0.02593
       9     C     3.10048  3.10048  0.00000 -0.20097
      10     H     0.45150  0.45150  0.00000  0.09700
      11     H     0.44893  0.44893  0.00000  0.10214
      12     C     3.07992  3.07992  0.00000 -0.15984
      13     H     0.44946  0.44946  0.00000  0.10108
      14     H     0.45320  0.45320  0.00000  0.09360
      15     C     3.08661  3.08661  0.00000 -0.17323
      16     H     0.44761  0.44761  0.00000  0.10478
      17     H     0.45376  0.45376  0.00000  0.09248
      18     C     3.14976  3.14976  0.00000 -0.29951
      19     H     0.45437  0.45437  0.00000  0.09126
      20     H     0.45463  0.45463  0.00000  0.09073
      21     H     0.45502  0.45502  0.00000  0.08997
      22     H     0.44808  0.44808  0.00000  0.10384
      23     H     0.45493  0.45493  0.00000  0.09013

   Total alpha = 36.00000, Total beta = 36.00000, Total charge =  0.00000

*** Psi4 exiting successfully. Buy a developer a beer!
