  ==> Input File <==

--------------------------------------------------------------------------
set {
	reference rhf
	basis 6-31G*
}

set_num_threads( 4 )
memory 2 gb

molecule MOL {
0 1

H	 2.176868	 -0.646004	 -0.217325
O	 1.337496	 -0.537251	 0.205931
C	 0.702312	 0.627605	 -0.264544
C	 -0.714990	 0.596302	 0.266387
H	 0.682322	 0.642550	 -1.350929
H	 1.215941	 1.520383	 0.085680
O	 -1.405996	 -0.526611	 -0.195820
H	 -1.257453	 1.468809	 -0.075599
H	 -0.688972	 0.618407	 1.353696
H	 -1.400386	 -1.174544	 0.497120

	symmetry c1
}
set optking {
	frozen_dihedral = ("
		10 7 4 3
	")
}

ee = optimize('scf')
oeprop('DIPOLE', 'QUADRUPOLE', 'MULLIKEN_CHARGES')
f=open( 'psi4out.xyz', 'w' )
f.write( "10  " )
f.write( str(ee) + "\n" )
f.write( MOL.save_string_xyz() )
f.close()
--------------------------------------------------------------------------

    Molecular point group: c1
  Charge       = 0
  Multiplicity = 1
  Basis Set: 6-31G*
  Basis Set:
  @DF-RHF Final Energy:  -228.92101553242898
    Total Energy =                       -228.9210155324290099
    Molecular point group: c1
  Basis Set: 6-31G*
  Basis Set:
  Basis Set: 6-31G*
  Basis Set:
  @DF-RHF Final Energy:  -228.92171822834322
    Total Energy =                       -228.9217182283433374
  Basis Set: 6-31G*
  Basis Set:
  Basis Set: 6-31G*
  Basis Set:
  @DF-RHF Final Energy:  -228.92180802721606
    Total Energy =                       -228.9218080272160307
  Basis Set: 6-31G*
  Basis Set:
  Basis Set: 6-31G*
  Basis Set:
  @DF-RHF Final Energy:  -228.92181328056060
    Total Energy =                       -228.9218132805605990
  Basis Set: 6-31G*
  Basis Set:
  Charge       = 0
  Multiplicity = 1
  Basis Set: 6-31G*
  Basis Set:

    Orbital Energies (a.u.)
    -----------------------

    Doubly Occupied:

       1A    -20.557980     2A    -20.550723     3A    -11.269485
       4A    -11.268828     5A     -1.372898     6A     -1.350216
       7A     -1.001203     8A     -0.836103     9A     -0.722445
      10A     -0.693424    11A     -0.627642    12A     -0.599625
      13A     -0.579069    14A     -0.520202    15A     -0.489011
      16A     -0.446545    17A     -0.431910

  @DF-RHF Final Energy:  -228.92181360820138

   => Energetics <=

    Nuclear Repulsion Energy =            133.6370249394036023
    One-Electron Energy =                -578.4830617347797670
    Two-Electron Energy =                 215.9242231871748459
    DFT Exchange-Correlation Energy =       0.0000000000000000
    Empirical Dispersion Energy =           0.0000000000000000
    PCM Polarization Energy =               0.0000000000000000
    EFP Energy =                            0.0000000000000000
    Total Energy =                       -228.9218136082013189
    Molecular point group: c1
  Basis Set: 6-31G*
  Basis Set:

  -Total Gradient:
     Atom            X                  Y                   Z
    ------   -----------------  -----------------  -----------------
       1        0.000031848510    -0.000018508294     0.000011423320
       2        0.000021839930    -0.000013246101    -0.000023757830
       3       -0.000752841792     0.001349797482    -0.001752783731
       4        0.000270086470    -0.001493330198     0.002787270416
       5       -0.000004736728     0.000004242594    -0.000013620056
       6        0.000002105017    -0.000014469032     0.000003531688
       7        0.003539656056    -0.001233224277    -0.002489826309
       8       -0.000005422980     0.000006326550     0.000003910752
       9        0.000009907832     0.000009387694     0.000005725917
      10       -0.003112442316     0.001403023584     0.001468125834

  **** Optimization is complete! (in 5 steps) ****
    Final optimized geometry and variables:
    Molecular point group: c1

    Geometry (in Angstrom), charge = 0, multiplicity = 1:

    H            2.212620764635    -0.629106964259    -0.208957459018
    O            1.393024403128    -0.507746729272     0.248175335742
    C            0.701560119619     0.590204611160    -0.289540912905
    C           -0.703209145388     0.573049736022     0.268943534547
    H            0.649668111732     0.528425599849    -1.372921585731
    H            1.190893138834     1.525717046746    -0.021246197684
    O           -1.437483193981    -0.506867833531    -0.240333016877
    H           -1.212780963238     1.484875465212    -0.023954907247
    H           -0.659706883087     0.549103410729     1.353610902545
    H           -1.455466227770    -1.207015386428     0.394255411169

  Mulliken Charges: (a.u.)
   Center  Symbol    Alpha    Beta     Spin     Total
       1     H     0.27874  0.27874  0.00000  0.44252
       2     O     4.37333  4.37333  0.00000 -0.74667
       3     C     3.00060  3.00060  0.00000 -0.00121
       4     C     3.00437  3.00437  0.00000 -0.00874
       5     H     0.42284  0.42284  0.00000  0.15432
       6     H     0.43301  0.43301  0.00000  0.13398
       7     O     4.36931  4.36931  0.00000 -0.73861
       8     H     0.41988  0.41988  0.00000  0.16025
       9     H     0.42214  0.42214  0.00000  0.15573
      10     H     0.27578  0.27578  0.00000  0.44843

   Total alpha = 17.00000, Total beta = 17.00000, Total charge = -0.00000
