                              Psi4 1.0.54 Driver

  ==> Input File <==

--------------------------------------------------------------------------
set {
	reference rhf
	basis cc-pvtz
}

set_num_threads( 4 )
memory 2 gb

molecule MOL {
0 1

H	 -3.436473	 1.252944	 -1.023892
O	 -3.458596	 0.315260	 -0.960865
C	 -3.176635	 -0.080824	 0.355601
C	 -1.763371	 0.265266	 0.799691
H	 -3.321825	 -1.153438	 0.379502
H	 -3.895468	 0.357385	 1.043382
C	 -1.361690	 -0.365992	 2.129536
H	 -1.064199	 -0.039223	 0.022317
H	 -1.686932	 1.347757	 0.868672
C	 0.069824	 -0.035490	 2.543668
H	 -1.482930	 -1.441693	 2.065648
H	 -2.047488	 -0.027779	 2.902711
C	 0.463842	 -0.666156	 3.877857
H	 0.747625	 -0.366293	 1.762615
H	 0.186065	 1.044217	 2.611332
C	 1.862714	 -0.298391	 4.375606
H	 0.385117	 -1.748091	 3.799952
H	 -0.259221	 -0.364584	 4.630754
C	 3.006597	 -0.829731	 3.515167
H	 1.979737	 -0.682758	 5.384241
H	 1.942788	 0.782803	 4.453247
H	 2.949033	 -1.908932	 3.414724
H	 3.965643	 -0.591347	 3.960862
H	 2.996821	 -0.404104	 2.518999

	symmetry c1
}
set optking {
	frozen_dihedral = ("
		7 4 3 2
	")
}

ee,wfn = optimize('scf', return_wfn=True)
oeprop( wfn, 'DIPOLE', 'QUADRUPOLE', 'MULLIKEN_CHARGES')
f=open( 'psi4out.xyz', 'w' )
f.write( "24  " )
f.write( str(ee) + "\n" )
f.write( MOL.save_string_xyz() )
f.close()
--------------------------------------------------------------------------

    Molecular point group: c1
  Charge       = 0
  Multiplicity = 1
  Basis Set: CC-PVTZ
  Basis Set:
  @DF-RHF Final Energy:  -349.38016274773378
    Total Energy =                       -349.3801627477337775
    Molecular point group: c1
  Basis Set: CC-PVTZ
  Basis Set:
  Basis Set: CC-PVTZ
  Basis Set:
  @DF-RHF Final Energy:  -349.38035902749095
    Total Energy =                       -349.3803590274908402
  Basis Set: CC-PVTZ
  Basis Set:
  Basis Set: CC-PVTZ
  Basis Set:
  @DF-RHF Final Energy:  -349.38038587140278
    Total Energy =                       -349.3803858714027228
  Basis Set: CC-PVTZ
  Basis Set:
  Charge       = 0
  Multiplicity = 1
  Basis Set: CC-PVTZ
  Basis Set:

    Orbital Energies (a.u.)
    -----------------------

    Doubly Occupied:

       1A    -20.545328     2A    -11.264526     3A    -11.216625
       4A    -11.214223     5A    -11.213815     6A    -11.213462
       7A    -11.212441     8A    -11.206704     9A     -1.363224
      10A     -1.093668    11A     -1.052326    12A     -0.987467
      13A     -0.915232    14A     -0.851523    15A     -0.805394
      16A     -0.779190    17A     -0.695083    18A     -0.651404
      19A     -0.627191    20A     -0.607996    21A     -0.605524
      22A     -0.589871    23A     -0.561448    24A     -0.534975
      25A     -0.525797    26A     -0.515950    27A     -0.487782
      28A     -0.482883    29A     -0.471243    30A     -0.461950
      31A     -0.458873    32A     -0.454608    33A     -0.422414

  @DF-RHF Final Energy:  -349.38038607192510

   => Energetics <=

    Nuclear Repulsion Energy =            380.5246030707311888
    One-Electron Energy =               -1227.6297075749316718
    Two-Electron Energy =                 497.7247184322753810
    DFT Exchange-Correlation Energy =       0.0000000000000000
    Empirical Dispersion Energy =           0.0000000000000000
    PCM Polarization Energy =               0.0000000000000000
    EFP Energy =                            0.0000000000000000
    Total Energy =                       -349.3803860719250451
    Molecular point group: c1
  Basis Set: CC-PVTZ
  Basis Set:

  -Total Gradient:
     Atom            X                  Y                   Z
    ------   -----------------  -----------------  -----------------
       1       -0.000011442085    -0.000075792261     0.000018279364
       2        0.000421346699    -0.001190722904    -0.000420049768
       3       -0.000360254604     0.001326347505     0.000389130172
       4       -0.000345627282     0.001025660532     0.000645686155
       5        0.000007457816     0.000013229212     0.000004750058
       6       -0.000026507378    -0.000006882670    -0.000039328897
       7        0.000391820039    -0.001045334014    -0.000666731147
       8       -0.000076399782     0.000035997725     0.000096769712
       9       -0.000008567603    -0.000060516368    -0.000018906182
      10        0.000055493530    -0.000013705541    -0.000006259675
      11       -0.000014301509    -0.000034746312    -0.000006868983
      12        0.000008722911    -0.000009600632    -0.000002925645
      13       -0.000027672233     0.000053919477     0.000032616308
      14        0.000052522037    -0.000009754848    -0.000025525555
      15        0.000000081680    -0.000006989656     0.000006846887
      16       -0.000004439142    -0.000024482633     0.000017452748
      17       -0.000001260446     0.000002682123     0.000006442990
      18       -0.000024144275     0.000012852729     0.000011889953
      19       -0.000019898582     0.000007521432    -0.000016987083
      20        0.000002493348    -0.000015194636    -0.000009145712
      21       -0.000000814529    -0.000007045277     0.000018213686
      22        0.000001357250     0.000012259754     0.000011632052
      23        0.000003242124     0.000011136017    -0.000007441731
      24       -0.000023207992    -0.000000838754    -0.000039539707

  **** Optimization is complete! (in 4 steps) ****
    Final optimized geometry and variables:
    Molecular point group: c1

    Geometry (in Angstrom), charge = 0, multiplicity = 1:

    H           -2.822720528762     1.442428718525    -3.052724973630
    O           -2.888241222192     0.509064415044    -2.963047929840
    C           -2.594295697068     0.131890103018    -1.645093658563
    C           -1.162009424010     0.448692390730    -1.244302420870
    H           -2.759776009264    -0.937014445674    -1.602893143178
    H           -3.292234593622     0.592387207303    -0.949160674783
    C           -0.768068662802    -0.173718261437     0.091891774851
    H           -0.504122311128     0.084454211130    -2.026910440933
    H           -1.028858812380     1.528008536915    -1.201666195481
    C            0.659363144301     0.161857512188     0.516535521961
    H           -0.878125966235    -1.253262105037     0.027172736711
    H           -1.457905114257     0.156187025654     0.865370599798
    C            1.050777918220    -0.475271660397     1.848352194319
    H            1.342034043792    -0.158178774606    -0.264172531661
    H            0.765938381031     1.241655625702     0.592326552332
    C            2.444185941556    -0.099453279139     2.355365194231
    H            0.982173326857    -1.557394090971     1.762440254940
    H            0.321446609980    -0.185036645283     2.599845365212
    C            3.595957412254    -0.607132372809     1.491201465184
    H            2.562076779186    -0.495948518254     3.359147049489
    H            2.512327773984     0.981371048452     2.447660659291
    H            3.550681210560    -1.685489348059     1.376793658500
    H            4.551029088417    -0.363908851880     1.942628806465
    H            3.584155013527    -0.168981113381     0.500544522944

  Mulliken Charges: (a.u.)
   Center  Symbol    Alpha    Beta     Spin     Total
       1     H     0.39527  0.39527  0.00000  0.20946
       2     O     4.20089  4.20089  0.00000 -0.40177
       3     C     2.96796  2.96796  0.00000  0.06409
       4     C     3.09571  3.09571  0.00000 -0.19142
       5     H     0.45613  0.45613  0.00000  0.08775
       6     H     0.47024  0.47024  0.00000  0.05952
       7     C     3.09985  3.09985  0.00000 -0.19970
       8     H     0.44878  0.44878  0.00000  0.10245
       9     H     0.46170  0.46170  0.00000  0.07661
      10     C     3.09121  3.09121  0.00000 -0.18242
      11     H     0.45213  0.45213  0.00000  0.09575
      12     H     0.45455  0.45455  0.00000  0.09089
      13     C     3.09493  3.09493  0.00000 -0.18986
      14     H     0.45134  0.45134  0.00000  0.09732
      15     H     0.45459  0.45459  0.00000  0.09081
      16     C     3.09044  3.09044  0.00000 -0.18089
      17     H     0.45375  0.45375  0.00000  0.09250
      18     H     0.44992  0.44992  0.00000  0.10016
      19     C     3.15250  3.15250  0.00000 -0.30500
      20     H     0.44838  0.44838  0.00000  0.10325
      21     H     0.45497  0.45497  0.00000  0.09007
      22     H     0.45472  0.45472  0.00000  0.09057
      23     H     0.44639  0.44639  0.00000  0.10722
      24     H     0.45366  0.45366  0.00000  0.09268

   Total alpha = 33.00000, Total beta = 33.00000, Total charge =  0.00000

*** Psi4 exiting successfully. Buy a developer a beer!
