                              Psi4 1.0.54 Driver

  ==> Input File <==

--------------------------------------------------------------------------
set {
	reference rhf
	basis cc-pvtz
}

set_num_threads( 4 )
memory 2 gb

molecule MOL {
0 1

O	 -2.817697	 1.304178	 0.001046
C	 -2.664672	 0.129869	 0.003507
C	 -3.797908	 -0.860100	 -0.001145
O	 -1.481217	 -0.452708	 0.001092
H	 -4.408836	 -0.679689	 -0.875387
H	 -3.443486	 -1.878443	 -0.002770
H	 -4.412123	 -0.683688	 0.871605
C	 -0.332055	 0.384012	 -0.000250
C	 0.892252	 -0.506059	 -0.000295
H	 -0.360822	 1.020205	 -0.874146
H	 -0.359817	 1.021310	 0.872861
C	 2.171223	 0.276109	 0.283970
H	 0.966986	 -1.001551	 -0.962881
H	 0.761022	 -1.285062	 0.743746
C	 3.419817	 -0.601450	 0.289434
H	 2.289373	 1.060464	 -0.459538
H	 2.083372	 0.777951	 1.244392
C	 4.697962	 0.179584	 0.574633
H	 3.509660	 -1.102118	 -0.670418
H	 3.302980	 -1.385541	 1.032157
H	 4.860763	 0.949881	 -0.171681
H	 5.564230	 -0.471626	 0.571565
H	 4.652341	 0.664533	 1.543961

	symmetry c1
}
set optking {
	frozen_dihedral = ("
		13 9 8 10
	")
}

ee,wfn = optimize('scf', return_wfn=True)
oeprop( wfn, 'DIPOLE', 'QUADRUPOLE', 'MULLIKEN_CHARGES')
f=open( 'psi4out.xyz', 'w' )
f.write( "23  " )
f.write( str(ee) + "\n" )
f.write( MOL.save_string_xyz() )
f.close()
--------------------------------------------------------------------------

    Molecular point group: c1
  Charge       = 0
  Multiplicity = 1
  Basis Set: CC-PVTZ
  Basis Set:
  @DF-RHF Final Energy:  -423.13425981334024
    Total Energy =                       -423.1342598133398951
    Molecular point group: c1
  Basis Set: CC-PVTZ
  Basis Set:
  Basis Set: CC-PVTZ
  Basis Set:
  @DF-RHF Final Energy:  -423.13406469461796
    Total Energy =                       -423.1340646946179049
  Basis Set: CC-PVTZ
  Basis Set:
  Basis Set: CC-PVTZ
  Basis Set:
  @DF-RHF Final Energy:  -423.13410663827062
    Total Energy =                       -423.1341066382706231
  Basis Set: CC-PVTZ
  Basis Set:
  Basis Set: CC-PVTZ
  Basis Set:
  @DF-RHF Final Energy:  -423.13433755906277
    Total Energy =                       -423.1343375590627147
  Basis Set: CC-PVTZ
  Basis Set:
  Basis Set: CC-PVTZ
  Basis Set:
  @DF-RHF Final Energy:  -423.13435036389745
    Total Energy =                       -423.1343503638977381
  Basis Set: CC-PVTZ
  Basis Set:
  Basis Set: CC-PVTZ
  Basis Set:
  @DF-RHF Final Energy:  -423.13435138695394
    Total Energy =                       -423.1343513869537674
  Basis Set: CC-PVTZ
  Basis Set:
  Charge       = 0
  Multiplicity = 1
  Basis Set: CC-PVTZ
  Basis Set:

    Orbital Energies (a.u.)
    -----------------------

    Doubly Occupied:

       1A    -20.595506     2A    -20.529296     3A    -11.366143
       4A    -11.279669     5A    -11.230516     6A    -11.222404
       7A    -11.221276     8A    -11.219430     9A    -11.210897
      10A     -1.470725    11A     -1.363613    12A     -1.095237
      13A     -1.043102    14A     -1.004110    15A     -0.931593
      16A     -0.842345    17A     -0.802792    18A     -0.775803
      19A     -0.694985    20A     -0.687930    21A     -0.670767
      22A     -0.648258    23A     -0.607442    24A     -0.588755
      25A     -0.583921    26A     -0.567673    27A     -0.559523
      28A     -0.538017    29A     -0.524419    30A     -0.505267
      31A     -0.492773    32A     -0.477642    33A     -0.471573
      34A     -0.466741    35A     -0.455074    36A     -0.438620

  @DF-RHF Final Energy:  -423.13435184828580

   => Energetics <=

    Nuclear Repulsion Energy =            450.4682414883737351
    One-Electron Energy =               -1468.8375044395902478
    Two-Electron Energy =                 595.2349111029304822
    DFT Exchange-Correlation Energy =       0.0000000000000000
    Empirical Dispersion Energy =           0.0000000000000000
    PCM Polarization Energy =               0.0000000000000000
    EFP Energy =                            0.0000000000000000
    Total Energy =                       -423.1343518482860873
    Molecular point group: c1
  Basis Set: CC-PVTZ
  Basis Set:

  -Total Gradient:
     Atom            X                  Y                   Z
    ------   -----------------  -----------------  -----------------
       1       -0.000016531779    -0.000035947441    -0.000005360206
       2       -0.000024680137     0.000047094482     0.000016461702
       3        0.000006034502     0.000003601351     0.000003597776
       4        0.000028154559    -0.000013465131    -0.000000453561
       5        0.000003909921    -0.000006462425     0.000006701687
       6       -0.000001270346     0.000016845572    -0.000001335045
       7        0.000004022280    -0.000001076703    -0.000013104799
       8        0.001801284324     0.002490592267     0.001263153024
       9       -0.001905744950    -0.002578756226     0.000716586271
      10       -0.001195646293    -0.001662693771    -0.001154684240
      11        0.000011565594    -0.000010275160    -0.000010631912
      12       -0.000003651007    -0.000003667072     0.000006769688
      13        0.001284037892     0.001745865149    -0.000824039646
      14       -0.000003156801     0.000005025388    -0.000001231529
      15        0.000001336607     0.000005597791    -0.000008702569
      16       -0.000001758311    -0.000008815177     0.000005743930
      17        0.000010480781     0.000003042004    -0.000005795262
      18        0.000005758492    -0.000004080083     0.000008612439
      19       -0.000002081575     0.000003583033     0.000006153088
      20        0.000001313510     0.000005764135    -0.000009000841
      21       -0.000002002777    -0.000008160456     0.000005162862
      22       -0.000002842041     0.000006422676     0.000003275156
      23        0.000001467551    -0.000000034201    -0.000007878013

  **** Optimization is complete! (in 7 steps) ****
    Final optimized geometry and variables:
    Molecular point group: c1

    Geometry (in Angstrom), charge = 0, multiplicity = 1:

    O           -2.807240276453     1.317465409904    -0.163234324035
    C           -2.658160258771     0.142684110846    -0.143031717577
    C           -3.794843607981    -0.843521775588    -0.155926223332
    O           -1.477260780343    -0.443248454184    -0.106157208180
    H           -4.387279278575    -0.673950507034    -1.044986199347
    H           -3.444166295438    -1.862971384891    -0.135393165536
    H           -4.425970496838    -0.652181017282     0.701549653314
    C           -0.324529189731     0.391113376421    -0.092738124660
    C            0.896001939979    -0.505897203860    -0.076233635393
    H           -0.345841488401     1.015010530690    -0.975241981701
    H           -0.364100289185     1.031155853716     0.777589039985
    C            2.178993102957     0.282085622073     0.178136991548
    H            0.973773199629    -1.015847635515    -1.030995987884
    H            0.767872571572    -1.264382795929     0.688093825285
    C            3.431564494841    -0.588997198940     0.147686018971
    H            2.274642727295     1.070399837341    -0.564932961488
    H            2.112569694067     0.779553332201     1.142380437870
    C            4.711940268298     0.195802638939     0.411795677758
    H            3.502855594565    -1.080624626343    -0.818428428275
    H            3.334912621332    -1.380491548734     0.885620997528
    H            4.854251648060     0.974018901443    -0.330556093984
    H            5.581042274909    -0.451042392678     0.383065302702
    H            4.685748196784     0.671316429396     1.386534100551

  Mulliken Charges: (a.u.)
   Center  Symbol    Alpha    Beta     Spin     Total
       1     O     4.20266  4.20266  0.00000 -0.40532
       2     C     2.81463  2.81463  0.00000  0.37074
       3     C     3.13994  3.13994  0.00000 -0.27989
       4     O     4.14522  4.14522  0.00000 -0.29044
       5     H     0.44215  0.44215  0.00000  0.11571
       6     H     0.44190  0.44190  0.00000  0.11620
       7     H     0.44219  0.44219  0.00000  0.11562
       8     C     2.97940  2.97940  0.00000  0.04119
       9     C     3.08151  3.08151  0.00000 -0.16302
      10     H     0.45262  0.45262  0.00000  0.09476
      11     H     0.45465  0.45465  0.00000  0.09071
      12     C     3.09757  3.09757  0.00000 -0.19514
      13     H     0.45143  0.45143  0.00000  0.09713
      14     H     0.44972  0.44972  0.00000  0.10055
      15     C     3.08514  3.08514  0.00000 -0.17029
      16     H     0.45321  0.45321  0.00000  0.09358
      17     H     0.45271  0.45271  0.00000  0.09458
      18     C     3.14951  3.14951  0.00000 -0.29901
      19     H     0.45348  0.45348  0.00000  0.09304
      20     H     0.45354  0.45354  0.00000  0.09292
      21     H     0.45457  0.45457  0.00000  0.09087
      22     H     0.44771  0.44771  0.00000  0.10458
      23     H     0.45454  0.45454  0.00000  0.09091

   Total alpha = 36.00000, Total beta = 36.00000, Total charge = -0.00000

*** Psi4 exiting successfully. Buy a developer a beer!
