  ==> Input File <==

--------------------------------------------------------------------------
set {
	reference rhf
	basis cc-pvtz
}

set_num_threads( 4 )
memory 2 gb

molecule MOL {
0 1

H	 -3.162190	 0.493205	 -0.000107
C	 -2.363908	 -0.234727	 0.000005
O	 -1.158738	 0.454634	 -0.000087
H	 -2.464314	 -0.863616	 -0.882153
H	 -2.464327	 -0.863359	 0.882345
C	 -0.036961	 -0.345069	 0.205844
C	 1.205403	 0.522352	 0.183368
H	 0.024518	 -1.109581	 -0.568998
H	 -0.116928	 -0.862161	 1.162329
C	 2.481556	 -0.282445	 0.402654
H	 1.248677	 1.039142	 -0.768988
H	 1.108373	 1.284551	 0.948605
H	 2.610918	 -1.036039	 -0.367053
H	 3.352450	 0.361080	 0.381696
H	 2.469810	 -0.788742	 1.362130

	symmetry c1
}
set optking {
	frozen_dihedral = ("
		6 3 2 4
	")
}

ee = optimize('scf')
oeprop('DIPOLE', 'QUADRUPOLE', 'MULLIKEN_CHARGES')
f=open( 'psi4out.xyz', 'w' )
f.write( "15  " )
f.write( str(ee) + "\n" )
f.write( MOL.save_string_xyz() )
f.close()
--------------------------------------------------------------------------

    Molecular point group: c1
  Charge       = 0
  Multiplicity = 1
  Basis Set: CC-PVTZ
  Basis Set:
  @DF-RHF Final Energy:  -232.22800630669155
    Total Energy =                       -232.2280063066915545
    Molecular point group: c1
  Basis Set: CC-PVTZ
  Basis Set:
  Basis Set: CC-PVTZ
  Basis Set:
  @DF-RHF Final Energy:  -232.22801564925308
    Total Energy =                       -232.2280156492530523
  Basis Set: CC-PVTZ
  Basis Set:
  Charge       = 0
  Multiplicity = 1
  Basis Set: CC-PVTZ
  Basis Set:

    Orbital Energies (a.u.)
    -----------------------

    Doubly Occupied:

       1A    -20.547400     2A    -11.264438     3A    -11.261736
       4A    -11.212760     5A    -11.210732     6A     -1.381592
       7A     -1.058455     8A     -0.956206     9A     -0.877301
      10A     -0.809510    11A     -0.677039    12A     -0.655747
      13A     -0.632189    14A     -0.608667    15A     -0.565020
      16A     -0.541413    17A     -0.503700    18A     -0.490070
      19A     -0.478487    20A     -0.462835    21A     -0.416577

  @DF-RHF Final Energy:  -232.22801631196609

   => Energetics <=

    Nuclear Repulsion Energy =            189.9772749184504050
    One-Electron Energy =                -691.1868359067163965
    Two-Electron Energy =                 268.9815446763000182
    DFT Exchange-Correlation Energy =       0.0000000000000000
    Empirical Dispersion Energy =           0.0000000000000000
    PCM Polarization Energy =               0.0000000000000000
    EFP Energy =                            0.0000000000000000
    Total Energy =                       -232.2280163119659733
    Molecular point group: c1
  Basis Set: CC-PVTZ
  Basis Set:

  -Total Gradient:
     Atom            X                  Y                   Z
    ------   -----------------  -----------------  -----------------
       1        0.000002026742    -0.000008493557    -0.000004503973
       2        0.000673179116    -0.001213256816     0.001215864446
       3       -0.000039635129     0.000071371644    -0.001637440476
       4       -0.000572097162     0.000998906558    -0.000644458817
       5        0.000022044474     0.000017241508     0.000016665750
       6       -0.000071102577     0.000122136259     0.001090479477
       7       -0.000014215293     0.000007726754    -0.000009262139
       8       -0.000003894755     0.000008368204    -0.000010938105
       9        0.000009862885    -0.000006859517    -0.000004482055
      10       -0.000009844886    -0.000007557386    -0.000013269649
      11        0.000009704219     0.000006880642    -0.000003884033
      12       -0.000003813488     0.000002181289     0.000002199091
      13        0.000001929591    -0.000003021443     0.000000536287
      14       -0.000002513300     0.000004183802    -0.000000759199
      15       -0.000001630436     0.000000192059     0.000003253394

  **** Optimization is complete! (in 3 steps) ****
    Final optimized geometry and variables:
    Molecular point group: c1

    Geometry (in Angstrom), charge = 0, multiplicity = 1:

    H           -3.156187097117     0.482794435944    -0.163052334293
    C           -2.358472448405    -0.246353425037    -0.159251969741
    O           -1.152839195907     0.442473824286    -0.151123650794
    H           -2.457050068963    -0.867222378870    -1.047334551366
    H           -2.467062425473    -0.876205970405     0.720717318238
    C           -0.029863246729    -0.356940127872     0.049546232814
    C            1.211896506788     0.511343246491     0.023371997264
    H            0.030671542241    -1.121241318523    -0.725924132506
    H           -0.106859459654    -0.874470632860     1.005830612688
    C            2.488946551677    -0.292288863941     0.242177836286
    H            1.253679707519     1.026591165334    -0.929950498797
    H            1.115417716359     1.274869510122     0.787461869303
    H            2.617553158129    -1.047324797705    -0.526304002205
    H            3.359547695911     0.351680645001     0.218699813976
    H            2.478883543622    -0.796781369766     1.202688950928

  Mulliken Charges: (a.u.)
   Center  Symbol    Alpha    Beta     Spin     Total
       1     H     0.44743  0.44743  0.00000  0.10513
       2     C     3.03331  3.03331  0.00000 -0.06662
       3     O     4.17179  4.17179  0.00000 -0.34359
       4     H     0.47010  0.47010  0.00000  0.05981
       5     H     0.47346  0.47346  0.00000  0.05308
       6     C     2.95608  2.95608  0.00000  0.08783
       7     C     3.08025  3.08025  0.00000 -0.16050
       8     H     0.47664  0.47664  0.00000  0.04672
       9     H     0.47494  0.47494  0.00000  0.05011
      10     C     3.15581  3.15581  0.00000 -0.31163
      11     H     0.45105  0.45105  0.00000  0.09789
      12     H     0.45116  0.45116  0.00000  0.09768
      13     H     0.45582  0.45582  0.00000  0.08836
      14     H     0.44627  0.44627  0.00000  0.10746
      15     H     0.45587  0.45587  0.00000  0.08826

   Total alpha = 21.00000, Total beta = 21.00000, Total charge =  0.00000
