                              Psi4 1.0.54 Driver

  ==> Input File <==

--------------------------------------------------------------------------
set {
	reference rhf
	basis cc-pvtz
}

set_num_threads( 4 )
memory 2 gb

molecule MOL {
0 1

O	 0.990454	 0.278465	 0.930667
C	 1.704209	 0.119472	 -0.000093
C	 1.595749	 0.839479	 -1.319739
O	 2.715427	 -0.733672	 0.000025
C	 0.447960	 1.837000	 -1.381844
H	 2.549130	 1.325600	 -1.499188
H	 1.500804	 0.082457	 -2.091325
C	 0.367807	 2.546552	 -2.730225
H	 0.565070	 2.566299	 -0.588319
H	 -0.484464	 1.321742	 -1.180882
C	 -0.778024	 3.550985	 -2.811797
H	 1.306855	 3.059186	 -2.926807
H	 0.253626	 1.809358	 -3.521897
C	 -0.857884	 4.260529	 -4.159232
H	 -0.664465	 4.288328	 -2.022121
H	 -1.716609	 3.039752	 -2.617224
H	 0.054262	 4.810024	 -4.367274
H	 -1.680701	 4.965605	 -4.183208
H	 -1.006599	 3.551617	 -4.967045
C	 4.020999	 -0.192556	 0.000019
H	 4.182809	 0.412891	 -0.879449
H	 4.692590	 -1.035653	 0.000152
H	 4.182726	 0.413087	 0.879368

	symmetry c1
}
set optking {
	frozen_dihedral = ("
		1 2 4 20
	")
}

ee,wfn = optimize('scf', return_wfn=True)
oeprop( wfn, 'DIPOLE', 'QUADRUPOLE', 'MULLIKEN_CHARGES')
f=open( 'psi4out.xyz', 'w' )
f.write( "23  " )
f.write( str(ee) + "\n" )
f.write( MOL.save_string_xyz() )
f.close()
--------------------------------------------------------------------------

    Molecular point group: c1
  Charge       = 0
  Multiplicity = 1
  Basis Set: CC-PVTZ
  Basis Set:
  @DF-RHF Final Energy:  -423.10777490614373
    Total Energy =                       -423.1077749061436180
    Molecular point group: c1
  Basis Set: CC-PVTZ
  Basis Set:
  Basis Set: CC-PVTZ
  Basis Set:
  @DF-RHF Final Energy:  -423.10650715106857
    Total Energy =                       -423.1065071510685129
  Basis Set: CC-PVTZ
  Basis Set:
  Basis Set: CC-PVTZ
  Basis Set:
  @DF-RHF Final Energy:  -423.10987150842607
    Total Energy =                       -423.1098715084261812
  Basis Set: CC-PVTZ
  Basis Set:
  Basis Set: CC-PVTZ
  Basis Set:
  @DF-RHF Final Energy:  -423.11079601895295
    Total Energy =                       -423.1107960189527830
  Basis Set: CC-PVTZ
  Basis Set:
  Basis Set: CC-PVTZ
  Basis Set:
  @DF-RHF Final Energy:  -423.11084153375350
    Total Energy =                       -423.1108415337536144
  Basis Set: CC-PVTZ
  Basis Set:
  Basis Set: CC-PVTZ
  Basis Set:
  @DF-RHF Final Energy:  -423.11085147362883
    Total Energy =                       -423.1108514736292818
  Basis Set: CC-PVTZ
  Basis Set:
  Charge       = 0
  Multiplicity = 1
  Basis Set: CC-PVTZ
  Basis Set:

    Orbital Energies (a.u.)
    -----------------------

    Doubly Occupied:

       1A    -20.579468     2A    -20.543518     3A    -11.367430
       4A    -11.290729     5A    -11.239407     6A    -11.220704
       7A    -11.218975     8A    -11.216875     9A    -11.209792
      10A     -1.461254    11A     -1.369940    12A     -1.096737
      13A     -1.042697    14A     -0.981286    15A     -0.947349
      16A     -0.852600    17A     -0.798643    18A     -0.766406
      19A     -0.698767    20A     -0.680238    21A     -0.678915
      22A     -0.652577    23A     -0.621539    24A     -0.607245
      25A     -0.581080    26A     -0.569706    27A     -0.557883
      28A     -0.538331    29A     -0.511309    30A     -0.498845
      31A     -0.487194    32A     -0.481916    33A     -0.471229
      34A     -0.468825    35A     -0.452714    36A     -0.434508

  @DF-RHF Final Energy:  -423.11085205248196

   => Energetics <=

    Nuclear Repulsion Energy =            453.9027581909629134
    One-Electron Energy =               -1475.6339614845635424
    Two-Electron Energy =                 598.6203512411186693
    DFT Exchange-Correlation Energy =       0.0000000000000000
    Empirical Dispersion Energy =           0.0000000000000000
    PCM Polarization Energy =               0.0000000000000000
    EFP Energy =                            0.0000000000000000
    Total Energy =                       -423.1108520524819596
    Molecular point group: c1
  Basis Set: CC-PVTZ
  Basis Set:

  -Total Gradient:
     Atom            X                  Y                   Z
    ------   -----------------  -----------------  -----------------
       1        0.000396630665     0.000616160476     0.000265327862
       2       -0.000603937212    -0.000926867979    -0.000074541753
       3       -0.000006615218     0.000030204758     0.000051637297
       4        0.000220065611     0.000280357672    -0.000833507361
       5        0.000014781780    -0.000010606087    -0.000014341894
       6       -0.000001340289    -0.000005848984    -0.000014962199
       7       -0.000002681597    -0.000009673041     0.000004089463
       8       -0.000001324269     0.000003033359     0.000017099114
       9        0.000001185417     0.000004209194     0.000000169912
      10        0.000003474930     0.000000737019     0.000000126618
      11        0.000004652818    -0.000003794403    -0.000014858728
      12       -0.000002600533     0.000000165162     0.000001326864
      13        0.000000165144     0.000001750100     0.000003748539
      14       -0.000015383502     0.000010496135     0.000000414589
      15        0.000001426225    -0.000000718945    -0.000004100497
      16        0.000000697890     0.000001338269    -0.000000552296
      17       -0.000001014125    -0.000001785733     0.000002143176
      18       -0.000001292372     0.000004462107    -0.000009572475
      19       -0.000000039480     0.000000089319     0.000003580627
      20       -0.000023385338    -0.000011239364     0.000614175494
      21        0.000013493443    -0.000000473159     0.000015853764
      22        0.000022623777     0.000024712981    -0.000006921814
      23       -0.000019583760    -0.000006708862    -0.000006334297

  **** Optimization is complete! (in 7 steps) ****
    Final optimized geometry and variables:
    Molecular point group: c1

    Geometry (in Angstrom), charge = 0, multiplicity = 1:

    O           -0.110218914688    -0.939503821807     2.214097854740
    C            0.638964742129    -1.093162877889     1.321032626486
    C            0.489734109691    -0.455371200124    -0.039082186523
    O            1.687001834562    -1.934080623081     1.439852179135
    C           -0.746090561014     0.422817655916    -0.177194613449
    H            1.387935013365     0.117487467450    -0.246928804721
    H            0.481608917036    -1.263389506966    -0.764190604645
    C           -0.868168221967     1.041585979860    -1.566581754097
    H           -0.713929047652     1.204632571191     0.573165243131
    H           -1.627850316232    -0.167864048232     0.042287422651
    C           -2.105062928431     1.921283267289    -1.723989543767
    H            0.019704462771     1.632819624859    -1.780578976128
    H           -0.894101277531     0.252015899852    -2.314280692969
    C           -2.227502934785     2.539702172950    -3.112473083872
    H           -2.079916262380     2.710892121277    -0.978331249186
    H           -2.992428248796     1.331652508154    -1.512215851595
    H           -1.369945728977     3.164178406909    -3.340337621549
    H           -3.115019886806     3.156885262442    -3.190012165844
    H           -2.289853680541     1.773694561391    -3.878323930193
    C            2.985622283452    -1.394263207193     1.503463062043
    H            3.282341948404    -0.945761414763     0.563317036013
    H            3.648553845813    -2.215100405254     1.723578985680
    H            3.057516446808    -0.659482085644     2.296349597352

  Mulliken Charges: (a.u.)
   Center  Symbol    Alpha    Beta     Spin     Total
       1     O     4.16718  4.16718  0.00000 -0.33436
       2     C     2.78752  2.78752  0.00000  0.42495
       3     C     3.12908  3.12908  0.00000 -0.25815
       4     O     4.16115  4.16115  0.00000 -0.32229
       5     C     3.08404  3.08404  0.00000 -0.16807
       6     H     0.44543  0.44543  0.00000  0.10914
       7     H     0.43688  0.43688  0.00000  0.12623
       8     C     3.08779  3.08779  0.00000 -0.17559
       9     H     0.44591  0.44591  0.00000  0.10818
      10     H     0.44378  0.44378  0.00000  0.11244
      11     C     3.08467  3.08467  0.00000 -0.16934
      12     H     0.45656  0.45656  0.00000  0.08687
      13     H     0.45523  0.45523  0.00000  0.08955
      14     C     3.15029  3.15029  0.00000 -0.30059
      15     H     0.45310  0.45310  0.00000  0.09379
      16     H     0.45248  0.45248  0.00000  0.09504
      17     H     0.45557  0.45557  0.00000  0.08887
      18     H     0.44730  0.44730  0.00000  0.10539
      19     H     0.45510  0.45510  0.00000  0.08981
      20     C     3.04109  3.04109  0.00000 -0.08218
      21     H     0.46314  0.46314  0.00000  0.07372
      22     H     0.43876  0.43876  0.00000  0.12248
      23     H     0.45795  0.45795  0.00000  0.08410

   Total alpha = 36.00000, Total beta = 36.00000, Total charge = -0.00000

*** Psi4 exiting successfully. Buy a developer a beer!
