                              Psi4 1.0.54 Driver

  ==> Input File <==

--------------------------------------------------------------------------
set {
	reference rhf
	basis cc-pvtz
}

set_num_threads( 4 )
memory 2 gb

molecule MOL {
0 1

H	 -3.258660	 -0.290394	 1.471450
C	 -3.307964	 -0.275695	 0.374072
C	 -2.653809	 0.914422	 -0.273689
O	 -3.855140	 -1.148880	 -0.205112
C	 -1.216901	 1.136108	 0.207794
H	 -2.700131	 0.790676	 -1.347875
H	 -3.256452	 1.781007	 -0.010713
C	 -0.247837	 0.040196	 -0.230469
H	 -0.872882	 2.093195	 -0.169002
H	 -1.209325	 1.218376	 1.291938
C	 1.181757	 0.280428	 0.247371
H	 -0.259600	 -0.030819	 -1.314870
H	 -0.591284	 -0.923375	 0.136958
C	 2.151032	 -0.811012	 -0.202643
H	 1.515939	 1.247397	 -0.115449
H	 1.191514	 0.341223	 1.333422
C	 3.580021	 -0.656538	 0.320835
H	 2.170545	 -0.847575	 -1.289412
H	 1.766632	 -1.772905	 0.124928
C	 3.699568	 -0.591403	 1.841543
H	 4.001946	 0.250896	 -0.099799
H	 4.189471	 -1.474726	 -0.053924
H	 3.094794	 0.214279	 2.245424
H	 3.381030	 -1.512787	 2.314057
H	 4.726571	 -0.412621	 2.138641

	symmetry c1
}
set optking {
	frozen_dihedral = ("
		20 17 14 18
	")
}

ee,wfn = optimize('scf', return_wfn=True)
oeprop( wfn, 'DIPOLE', 'QUADRUPOLE', 'MULLIKEN_CHARGES')
f=open( 'psi4out.xyz', 'w' )
f.write( "25  " )
f.write( str(ee) + "\n" )
f.write( MOL.save_string_xyz() )
f.close()
--------------------------------------------------------------------------

    Molecular point group: c1
  Charge       = 0
  Multiplicity = 1
  Basis Set: CC-PVTZ
  Basis Set:
  @DF-RHF Final Energy:  -387.25919325338026
    Total Energy =                       -387.2591932533798627
    Molecular point group: c1
  Basis Set: CC-PVTZ
  Basis Set:
  Basis Set: CC-PVTZ
  Basis Set:
  @DF-RHF Final Energy:  -387.25994004969164
    Total Energy =                       -387.2599400496917497
  Basis Set: CC-PVTZ
  Basis Set:
  Basis Set: CC-PVTZ
  Basis Set:
  @DF-RHF Final Energy:  -387.26020095291892
    Total Energy =                       -387.2602009529190354
  Basis Set: CC-PVTZ
  Basis Set:
  Basis Set: CC-PVTZ
  Basis Set:
  @DF-RHF Final Energy:  -387.26019789902097
    Total Energy =                       -387.2601978990211364
  Basis Set: CC-PVTZ
  Basis Set:
  Basis Set: CC-PVTZ
  Basis Set:
  @DF-RHF Final Energy:  -387.26006864846846
    Total Energy =                       -387.2600686484681773
  Basis Set: CC-PVTZ
  Basis Set:
  Basis Set: CC-PVTZ
  Basis Set:
  @DF-RHF Final Energy:  -387.26020918475086
    Total Energy =                       -387.2602091847512611
  Basis Set: CC-PVTZ
  Basis Set:
  Basis Set: CC-PVTZ
  Basis Set:
  @DF-RHF Final Energy:  -387.26021050533274
    Total Energy =                       -387.2602105053324522
  Basis Set: CC-PVTZ
  Basis Set:
  Charge       = 0
  Multiplicity = 1
  Basis Set: CC-PVTZ
  Basis Set:

    Orbital Energies (a.u.)
    -----------------------

    Doubly Occupied:

       1A    -20.551348     2A    -11.320952     3A    -11.233770
       4A    -11.232800     5A    -11.221684     6A    -11.217619
       7A    -11.216316     8A    -11.215105     9A    -11.208804
      10A     -1.406372    11A     -1.105407    12A     -1.071004
      13A     -1.014386    14A     -0.943430    15A     -0.876812
      16A     -0.821575    17A     -0.788562    18A     -0.780341
      19A     -0.667710    20A     -0.664366    21A     -0.635027
      22A     -0.625163    23A     -0.611101    24A     -0.591191
      25A     -0.567838    26A     -0.564415    27A     -0.528218
      28A     -0.524829    29A     -0.517195    30A     -0.498789
      31A     -0.488872    32A     -0.480234    33A     -0.463874
      34A     -0.459621    35A     -0.443093    36A     -0.411841

  @DF-RHF Final Energy:  -387.26020997510369

   => Energetics <=

    Nuclear Repulsion Energy =            440.4512481766295764
    One-Electron Energy =               -1397.4835940087764357
    Two-Electron Energy =                 569.7721358570431676
    DFT Exchange-Correlation Energy =       0.0000000000000000
    Empirical Dispersion Energy =           0.0000000000000000
    PCM Polarization Energy =               0.0000000000000000
    EFP Energy =                            0.0000000000000000
    Total Energy =                       -387.2602099751036349
    Molecular point group: c1
  Basis Set: CC-PVTZ
  Basis Set:

  -Total Gradient:
     Atom            X                  Y                   Z
    ------   -----------------  -----------------  -----------------
       1        0.000030960589     0.000005024364    -0.000045458432
       2       -0.000071448332    -0.000022602450     0.000023954320
       3        0.000013217165    -0.000028569070     0.000038193381
       4        0.000035552230    -0.000002174914    -0.000004694659
       5        0.000040455632     0.000033403259    -0.000059781509
       6       -0.000002833914     0.000021435710    -0.000006859923
       7       -0.000021491177    -0.000011979576     0.000028000659
       8       -0.000022711836    -0.000016176839     0.000020007819
       9        0.000027306428    -0.000027767921    -0.000001229554
      10        0.000006591902     0.000021228315    -0.000022960685
      11        0.000000025083     0.000010050675     0.000003780772
      12        0.000009282650     0.000009295015     0.000028900723
      13       -0.000032830549     0.000017014314    -0.000001908533
      14        0.000144875103    -0.001398966297     0.000133767984
      15       -0.000009691515    -0.000012462898     0.000011175028
      16        0.000007840380    -0.000014135158    -0.000022278159
      17        0.000140462809    -0.001292396110     0.000123229210
      18       -0.000173630207     0.001538831259    -0.000123453783
      19        0.000003860343     0.000016598943    -0.000010986298
      20       -0.000118237577     0.001144384464    -0.000083768909
      21        0.000001170546    -0.000005598833     0.000007707846
      22       -0.000010122393     0.000014109409     0.000011793921
      23        0.000025774705    -0.000036236472    -0.000013219178
      24        0.000013273171     0.000032028129    -0.000030236577
      25       -0.000037651227     0.000005662682    -0.000003675468

  **** Optimization is complete! (in 8 steps) ****
    Final optimized geometry and variables:
    Molecular point group: c1

    Geometry (in Angstrom), charge = 0, multiplicity = 1:

    H           -3.290384121848    -0.096025069442     1.052240461130
    C           -3.269036671370    -0.058785891635    -0.045447526876
    C           -2.532985345007     1.118495575674    -0.625344803325
    O           -3.808554461272    -0.900174206634    -0.676526050149
    C           -1.123974270329     1.279888840925    -0.047389315625
    H           -2.513219522884     1.015707845310    -1.702573712752
    H           -3.121377052449     2.001226710275    -0.384655496228
    C           -0.170212553946     0.151863782568    -0.434558615510
    H           -0.719501264373     2.226647222258    -0.388594368616
    H           -1.185446504215     1.350953553149     1.035763453148
    C            1.234049538606     0.334790983950     0.134954990485
    H           -0.116850748037     0.088544443959    -1.518010636788
    H           -0.571257625460    -0.800793532536    -0.097810304550
    C            2.183696750423    -0.797604886872    -0.252971713603
    H            1.641708119844     1.280869882595    -0.214836168118
    H            1.168291543332     0.411499064842     1.215553757802
    C            3.636132745135    -0.598738909292     0.184605935802
    H            2.165585370089    -0.899367023206    -1.334480851973
    H            1.808903990634    -1.734149917056     0.152530139523
    C            3.840438437267    -0.437653992918     1.689001861196
    H            4.043348721417     0.271927040690    -0.322998469206
    H            4.216744056877    -1.448093132900    -0.161273122943
    H            3.383050583310     0.469262586433     2.064803067289
    H            3.415013509691    -1.274233144969     2.234505841197
    H            4.896485255581    -0.392174907345     1.928754423008

  Mulliken Charges: (a.u.)
   Center  Symbol    Alpha    Beta     Spin     Total
       1     H     0.46411  0.46411  0.00000  0.07178
       2     C     2.90474  2.90474  0.00000  0.19051
       3     C     3.08929  3.08929  0.00000 -0.17858
       4     O     4.16632  4.16632  0.00000 -0.33263
       5     C     3.11582  3.11582  0.00000 -0.23165
       6     H     0.44288  0.44288  0.00000  0.11423
       7     H     0.44053  0.44053  0.00000  0.11894
       8     C     3.09007  3.09007  0.00000 -0.18015
       9     H     0.44315  0.44315  0.00000  0.11370
      10     H     0.44993  0.44993  0.00000  0.10015
      11     C     3.09361  3.09361  0.00000 -0.18722
      12     H     0.44940  0.44940  0.00000  0.10121
      13     H     0.44840  0.44840  0.00000  0.10321
      14     C     3.09579  3.09579  0.00000 -0.19159
      15     H     0.45330  0.45330  0.00000  0.09339
      16     H     0.45169  0.45169  0.00000  0.09663
      17     C     3.09039  3.09039  0.00000 -0.18079
      18     H     0.44915  0.44915  0.00000  0.10170
      19     H     0.45146  0.45146  0.00000  0.09708
      20     C     3.15465  3.15465  0.00000 -0.30929
      21     H     0.45447  0.45447  0.00000  0.09105
      22     H     0.44770  0.44770  0.00000  0.10459
      23     H     0.45356  0.45356  0.00000  0.09288
      24     H     0.45417  0.45417  0.00000  0.09167
      25     H     0.44541  0.44541  0.00000  0.10919

   Total alpha = 36.00000, Total beta = 36.00000, Total charge =  0.00000

*** Psi4 exiting successfully. Buy a developer a beer!
