  ==> Input File <==

--------------------------------------------------------------------------
set {
	reference rhf
	basis 6-31G*
}

set_num_threads( 1 )
memory 2 gb

molecule MOL {
0 1

H	 -1.836216	 1.387520	 -0.000064
C	 -1.301823	 0.443321	 -0.000031
O	 -0.003969	 0.658512	 0.000451
O	 -1.829879	 -0.616434	 -0.000857
C	 0.606854	 0.982160	 1.249184
C	 2.085193	 1.180769	 0.993470
H	 0.424398	 0.175557	 1.945904
H	 0.143355	 1.876167	 1.643157
H	 2.530942	 0.278032	 0.591716
H	 2.589116	 1.429138	 1.921698
H	 2.248708	 1.986851	 0.287508

	symmetry c1
}
set optking {
	frozen_dihedral = ("
		7 5 3 2
	")
}

ee = energy('scf')
oeprop('DIPOLE', 'QUADRUPOLE', 'MULLIKEN_CHARGES')
f=open( 'psi4out.xyz', 'w' )
f.write( "11  " )
f.write( str(ee) + "\n" )
f.write( MOL.save_string_xyz() )
f.close()
--------------------------------------------------------------------------

    Molecular point group: c1

    Geometry (in Angstrom), charge = 0, multiplicity = 1:

       Center              X                  Y                   Z               Mass
    ------------   -----------------  -----------------  -----------------  -----------------
           H         -1.748401319667     0.858902772924    -0.450446939963     1.007825032070
           C         -1.214008319667    -0.085296227076    -0.450413939963    12.000000000000
           O          0.083845680333     0.129894772924    -0.449931939963    15.994914619560
           O         -1.742064319667    -1.145051227076    -0.451239939963    15.994914619560
           C          0.694668680333     0.453542772924     0.798801060037    12.000000000000
           C          2.173007680333     0.652151772924     0.543087060037    12.000000000000
           H          0.512212680333    -0.353060227076     1.495521060037     1.007825032070
           H          0.231169680333     1.347549772924     1.192774060037     1.007825032070
           H          2.618756680333    -0.250585227076     0.141333060037     1.007825032070
           H          2.676930680333     0.900520772924     1.471315060037     1.007825032070
           H          2.336522680333     1.458233772924    -0.162874939963     1.007825032070

  Charge       = 0
  Multiplicity = 1
  Basis Set: 6-31G*
  Basis Set:

    Orbital Energies (a.u.)
    -----------------------

    Doubly Occupied:

       1A    -20.594303     2A    -20.568131     3A    -11.379412
       4A    -11.306342     5A    -11.231945     6A     -1.469955
       7A     -1.378720     8A     -1.054521     9A     -0.892185
      10A     -0.833380    11A     -0.742301    12A     -0.689855
      13A     -0.650126    14A     -0.638227    15A     -0.564928
      16A     -0.544269    17A     -0.537906    18A     -0.499638
      19A     -0.467520    20A     -0.452445

  @DF-RHF Final Energy:  -266.80822767791710

   => Energetics <=

    Nuclear Repulsion Energy =            177.0711789966712502
    One-Electron Energy =                -714.7667369136621573
    Two-Electron Energy =                 270.8873302390740605
    DFT Exchange-Correlation Energy =       0.0000000000000000
    Empirical Dispersion Energy =           0.0000000000000000
    PCM Polarization Energy =               0.0000000000000000
    EFP Energy =                            0.0000000000000000
    Total Energy =                       -266.8082276779168183

  Mulliken Charges: (a.u.)
   Center  Symbol    Alpha    Beta     Spin     Total
       1     H     0.42967  0.42967  0.00000  0.14066
       2     C     2.73091  2.73091  0.00000  0.53818
       3     O     4.29660  4.29660  0.00000 -0.59319
       4     O     4.23307  4.23307  0.00000 -0.46613
       5     C     3.00534  3.00534  0.00000 -0.01068
       6     C     3.24736  3.24736  0.00000 -0.49472
       7     H     0.40874  0.40874  0.00000  0.18253
       8     H     0.41963  0.41963  0.00000  0.16074
       9     H     0.40446  0.40446  0.00000  0.19109
      10     H     0.41570  0.41570  0.00000  0.16860
      11     H     0.40854  0.40854  0.00000  0.18293

   Total alpha = 20.00000, Total beta = 20.00000, Total charge = -0.00000
