                              Psi4 1.0.54 Driver

  ==> Input File <==

--------------------------------------------------------------------------
set {
	reference rhf
	basis cc-pvtz
}

set_num_threads( 4 )
memory 2 gb

molecule MOL {
0 1

H	 -2.577080	 1.756314	 -1.366389
C	 -1.812579	 1.179430	 -0.887794
C	 -2.105997	 -0.000418	 -0.398703
H	 -0.821897	 1.584602	 -0.823119
O	 -1.189946	 -0.765863	 0.237511
H	 -3.093374	 -0.419648	 -0.465488
C	 0.026572	 -0.995256	 -0.379403
C	 1.057223	 0.049888	 -0.004615
H	 -0.054361	 -1.010670	 -1.459674
H	 0.397526	 -1.952058	 -0.044198
F	 2.203233	 -0.234060	 -0.590375
F	 0.698147	 1.254887	 -0.392621
F	 1.266440	 0.094219	 1.288722

	symmetry c1
}
set optking {
	frozen_dihedral = ("
		6 3 5 7
	")
}

ee,wfn = optimize('scf', return_wfn=True)
oeprop( wfn, 'DIPOLE', 'QUADRUPOLE', 'MULLIKEN_CHARGES')
f=open( 'psi4out.xyz', 'w' )
f.write( "13  " )
f.write( str(ee) + "\n" )
f.write( MOL.save_string_xyz() )
f.close()
--------------------------------------------------------------------------

    Molecular point group: c1
  Charge       = 0
  Multiplicity = 1
  Basis Set: CC-PVTZ
  Basis Set:
  @DF-RHF Final Energy:  -527.71636036944506
    Total Energy =                       -527.7163603694455105
    Molecular point group: c1
  Basis Set: CC-PVTZ
  Basis Set:
  Basis Set: CC-PVTZ
  Basis Set:
  @DF-RHF Final Energy:  -527.73119668516347
    Total Energy =                       -527.7311966851638090
  Basis Set: CC-PVTZ
  Basis Set:
  Basis Set: CC-PVTZ
  Basis Set:
  @DF-RHF Final Energy:  -527.73495921076756
    Total Energy =                       -527.7349592107680110
  Basis Set: CC-PVTZ
  Basis Set:
  Basis Set: CC-PVTZ
  Basis Set:
  @DF-RHF Final Energy:  -527.73536308611142
    Total Energy =                       -527.7353630861109650
  Basis Set: CC-PVTZ
  Basis Set:
  @DF-RHF Final Energy:  -527.73752062613949
    Total Energy =                       -527.7375206261394851
  @DF-RHF Final Energy:  -527.73812759557018
    Total Energy =                       -527.7381275955704041
  @DF-RHF Final Energy:  -527.73839842750704
    Total Energy =                       -527.7383984275070361
  @DF-RHF Final Energy:  -527.73848913069082
    Total Energy =                       -527.7384891306905956
  Basis Set: CC-PVTZ
  Basis Set:
  @DF-RHF Final Energy:  -527.73851531006085
    Total Energy =                       -527.7385153100609614
  Basis Set: CC-PVTZ
  Basis Set:
  Basis Set: CC-PVTZ
  Basis Set:
  @DF-RHF Final Energy:  -527.73852097804615
    Total Energy =                       -527.7385209780461537
  Basis Set: CC-PVTZ
  Basis Set:
  Basis Set: CC-PVTZ
  Basis Set:
  @DF-RHF Final Energy:  -527.73852200739339
    Total Energy =                       -527.7385220073936125
  Basis Set: CC-PVTZ
  Basis Set:
  Charge       = 0
  Multiplicity = 1
  Basis Set: CC-PVTZ
  Basis Set:

    Orbital Energies (a.u.)
    -----------------------

    Doubly Occupied:

       1A    -26.338557     2A    -26.337505     3A    -26.334737
       4A    -20.597032     5A    -11.494869     6A    -11.315853
       7A    -11.299826     8A    -11.223391     9A     -1.747256
      10A     -1.643671    11A     -1.642071    12A     -1.436274
      13A     -1.083098    14A     -1.026083    15A     -0.934800
      16A     -0.842166    17A     -0.837085    18A     -0.822128
      19A     -0.783585    20A     -0.732145    21A     -0.715711
      22A     -0.705147    23A     -0.678784    24A     -0.665839
      25A     -0.661408    26A     -0.647783    27A     -0.631114
      28A     -0.611385    29A     -0.556796    30A     -0.535304
      31A     -0.486554    32A     -0.372436

  @DF-RHF Final Energy:  -527.73852205291087

   => Energetics <=

    Nuclear Repulsion Energy =            416.4666487488790949
    One-Electron Energy =               -1556.9295536303980043
    Two-Electron Energy =                 612.7243828286078724
    DFT Exchange-Correlation Energy =       0.0000000000000000
    Empirical Dispersion Energy =           0.0000000000000000
    PCM Polarization Energy =               0.0000000000000000
    EFP Energy =                            0.0000000000000000
    Total Energy =                       -527.7385220529109802
    Molecular point group: c1
  Basis Set: CC-PVTZ
  Basis Set:

  -Total Gradient:
     Atom            X                  Y                   Z
    ------   -----------------  -----------------  -----------------
       1        0.000003757582     0.000001003559     0.000001245299
       2        0.000006222146     0.000007368470    -0.000000252482
       3       -0.000898085625     0.001459518507     0.002529094081
       4        0.000010890394    -0.000005445535    -0.000004412394
       5        0.001639355788     0.002609788654    -0.000305922374
       6        0.000244838703    -0.001966717427    -0.002032036609
       7       -0.001028388095    -0.002077518703    -0.000155265454
       8        0.000061556998    -0.000082710208     0.000019706681
       9        0.000023016950     0.000008169161     0.000006350805
      10        0.000011457659    -0.000001859695     0.000006808731
      11        0.000021334974    -0.000018349962    -0.000060390698
      12       -0.000024023040     0.000019649202     0.000026529114
      13       -0.000071934434     0.000047103976    -0.000031454704

  **** Optimization is complete! (in 12 steps) ****
    Final optimized geometry and variables:
    Molecular point group: c1

    Geometry (in Angstrom), charge = 0, multiplicity = 1:

    H           -3.238933316414     1.410899329680    -1.565543159128
    C           -2.335745027002     1.057220503461    -1.110705248812
    C           -2.407969650946     0.117750109973    -0.197406984484
    H           -1.408764156579     1.498784835860    -1.418997469432
    O           -1.366146326327    -0.442041939357     0.467005996227
    H           -3.345416147990    -0.306589299103     0.107601366803
    C           -0.262807910815    -0.915833424893    -0.230472270149
    C            0.980783952811    -0.134942246771     0.133758315083
    H           -0.399090881214    -0.851938375053    -1.300498893109
    H           -0.086109944317    -1.946111169654     0.047654232284
    F            2.015839607832    -0.635975009948    -0.511654642555
    F            0.885235791652     1.135525941396    -0.192889496813
    F            1.241636705308    -0.195495695130     1.417777387359

  Mulliken Charges: (a.u.)
   Center  Symbol    Alpha    Beta     Spin     Total
       1     H     0.42315  0.42315  0.00000  0.15370
       2     C     3.18866  3.18866  0.00000 -0.37732
       3     C     2.98242  2.98242  0.00000  0.03515
       4     H     0.42111  0.42111  0.00000  0.15779
       5     O     4.16119  4.16119  0.00000 -0.32238
       6     H     0.41700  0.41700  0.00000  0.16599
       7     C     3.01314  3.01314  0.00000 -0.02627
       8     C     2.67341  2.67341  0.00000  0.65318
       9     H     0.45052  0.45052  0.00000  0.09895
      10     H     0.43820  0.43820  0.00000  0.12361
      11     F     4.61332  4.61332  0.00000 -0.22665
      12     F     4.61044  4.61044  0.00000 -0.22088
      13     F     4.60743  4.60743  0.00000 -0.21486

   Total alpha = 32.00000, Total beta = 32.00000, Total charge =  0.00000

*** Psi4 exiting successfully. Buy a developer a beer!
