  ==> Input File <==

--------------------------------------------------------------------------
set {
	reference rhf
	basis cc-pvtz
}

set_num_threads( 4 )
memory 2 gb

molecule MOL {
0 1

H	 -3.162190	 0.493205	 -0.000107
C	 -2.363908	 -0.234727	 0.000005
O	 -1.158738	 0.454634	 -0.000087
H	 -2.464314	 -0.863616	 -0.882153
H	 -2.464327	 -0.863359	 0.882345
C	 -0.028611	 -0.359694	 0.000037
C	 1.212847	 0.509314	 -0.000053
H	 -0.034155	 -1.007047	 -0.877198
H	 -0.034195	 -1.006836	 0.877430
C	 0.883112	 1.995795	 -0.077514
H	 1.781629	 0.299195	 0.898981
H	 1.836333	 0.220818	 -0.839093
H	 0.279149	 2.311331	 0.766732
H	 1.786946	 2.592538	 -0.075827
H	 0.334488	 2.232480	 -0.983086

	symmetry c1
}
set optking {
	frozen_dihedral = ("
		11 7 6 8
	")
}

ee = optimize('scf')
oeprop('DIPOLE', 'QUADRUPOLE', 'MULLIKEN_CHARGES')
f=open( 'psi4out.xyz', 'w' )
f.write( "15  " )
f.write( str(ee) + "\n" )
f.write( MOL.save_string_xyz() )
f.close()
--------------------------------------------------------------------------

    Molecular point group: c1
  Charge       = 0
  Multiplicity = 1
  Basis Set: CC-PVTZ
  Basis Set:
  @DF-RHF Final Energy:  -232.21790239948632
    Total Energy =                       -232.2179023994862632
    Molecular point group: c1
  Basis Set: CC-PVTZ
  Basis Set:
  Basis Set: CC-PVTZ
  Basis Set:
  @DF-RHF Final Energy:  -232.21853053575708
    Total Energy =                       -232.2185305357570542
  Basis Set: CC-PVTZ
  Basis Set:
  Basis Set: CC-PVTZ
  Basis Set:
  @DF-RHF Final Energy:  -232.21977952704248
    Total Energy =                       -232.2197795270421921
  Basis Set: CC-PVTZ
  Basis Set:
  Basis Set: CC-PVTZ
  Basis Set:
  @DF-RHF Final Energy:  -232.21982967859387
    Total Energy =                       -232.2198296785938965
  Basis Set: CC-PVTZ
  Basis Set:
  Charge       = 0
  Multiplicity = 1
  Basis Set: CC-PVTZ
  Basis Set:

    Orbital Energies (a.u.)
    -----------------------

    Doubly Occupied:

       1A    -20.547984     2A    -11.265470     3A    -11.262382
       4A    -11.214140     5A    -11.199400     6A     -1.382616
       7A     -1.048874     8A     -0.949720     9A     -0.890642
      10A     -0.793624    11A     -0.674952    12A     -0.657758
      13A     -0.635819    14A     -0.603071    15A     -0.553205
      16A     -0.540550    17A     -0.506484    18A     -0.479896
      19A     -0.476362    20A     -0.462288    21A     -0.410295

  @DF-RHF Final Energy:  -232.21983193547217

   => Energetics <=

    Nuclear Repulsion Energy =            193.4306186068842806
    One-Electron Energy =                -698.1898353559151928
    Two-Electron Energy =                 272.5393848135586836
    DFT Exchange-Correlation Energy =       0.0000000000000000
    Empirical Dispersion Energy =           0.0000000000000000
    PCM Polarization Energy =               0.0000000000000000
    EFP Energy =                            0.0000000000000000
    Total Energy =                       -232.2198319354722003
    Molecular point group: c1
  Basis Set: CC-PVTZ
  Basis Set:

  -Total Gradient:
     Atom            X                  Y                   Z
    ------   -----------------  -----------------  -----------------
       1        0.000008707859     0.000004566985    -0.000000564880
       2       -0.000018245629    -0.000006071011    -0.000005866809
       3        0.000005863069     0.000030751381    -0.000022803983
       4       -0.000004691584     0.000002401423    -0.000005172755
       5        0.000000530416     0.000002829802     0.000007354681
       6       -0.000692213328     0.001108229845    -0.001058337608
       7       -0.000789916463     0.001055501172     0.001044077473
       8        0.000736323380    -0.001036966208     0.000775651656
       9        0.000019891714    -0.000030962784    -0.000001062145
      10       -0.000028074604    -0.000049445285     0.000008103572
      11        0.000737600701    -0.001088343345    -0.000731928093
      12        0.000039905184    -0.000018678273    -0.000013878113
      13       -0.000009948447     0.000015207948    -0.000000489493
      14       -0.000005366146     0.000010403584    -0.000000714083
      15       -0.000000366123     0.000000574766     0.000005630577

  **** Optimization is complete! (in 5 steps) ****
    Final optimized geometry and variables:
    Molecular point group: c1

    Geometry (in Angstrom), charge = 0, multiplicity = 1:

    H           -2.884953378916    -0.067725201846     0.033628640243
    C           -2.059318789116    -0.764548021878     0.019610908019
    O           -0.881952470392    -0.030289343761     0.025334835089
    H           -2.139306382053    -1.383898026324    -0.871507502443
    H           -2.131575426881    -1.410294190184     0.892460814022
    C            0.274532587084    -0.808132202317     0.006994474864
    C            1.542563885014     0.067460994756     0.022073422863
    H            0.271895191546    -1.447285758254    -0.874068625644
    H            0.274542762498    -1.472615771878     0.869301251425
    C            1.299315502299     1.571284455779    -0.072147972700
    H            2.109613755099    -0.147407541685     0.920819276492
    H            2.178218511168    -0.234422829485    -0.803333380667
    H            0.709805078191     1.931188262613     0.759945866794
    H            2.248612310812     2.095186628300    -0.068276796898
    H            0.773745840960     1.831360962695    -0.981608410949

  Mulliken Charges: (a.u.)
   Center  Symbol    Alpha    Beta     Spin     Total
       1     H     0.44786  0.44786  0.00000  0.10428
       2     C     3.03326  3.03326  0.00000 -0.06652
       3     O     4.16865  4.16865  0.00000 -0.33729
       4     H     0.47175  0.47175  0.00000  0.05649
       5     H     0.47179  0.47179  0.00000  0.05643
       6     C     2.96446  2.96446  0.00000  0.07109
       7     C     3.09832  3.09832  0.00000 -0.19664
       8     H     0.47275  0.47275  0.00000  0.05450
       9     H     0.47207  0.47207  0.00000  0.05586
      10     C     3.13758  3.13758  0.00000 -0.27516
      11     H     0.45236  0.45236  0.00000  0.09528
      12     H     0.45318  0.45318  0.00000  0.09365
      13     H     0.45040  0.45040  0.00000  0.09920
      14     H     0.45340  0.45340  0.00000  0.09320
      15     H     0.45218  0.45218  0.00000  0.09565

   Total alpha = 21.00000, Total beta = 21.00000, Total charge =  0.00000
