                              Psi4 1.0.54 Driver

  ==> Input File <==

--------------------------------------------------------------------------
set {
	reference rhf
	basis cc-pvtz
}

set_num_threads( 4 )
memory 2 gb

molecule MOL {
0 1

O	 -2.824015	 1.290619	 0.175823
C	 -2.664672	 0.129869	 0.003507
C	 -3.788159	 -0.839276	 -0.247132
O	 -1.481217	 -0.452708	 0.001092
H	 -4.329831	 -0.518155	 -1.126651
H	 -3.428649	 -1.846726	 -0.382915
H	 -4.469853	 -0.799801	 0.591801
C	 -0.332055	 0.384012	 -0.000250
C	 0.892252	 -0.506059	 -0.000295
H	 -0.360822	 1.020205	 -0.874146
H	 -0.359817	 1.021310	 0.872861
C	 2.188199	 0.299473	 -0.001416
H	 0.857046	 -1.152781	 -0.871031
H	 0.857910	 -1.151798	 0.871202
C	 3.437151	 -0.577593	 -0.000991
H	 2.209565	 0.950707	 -0.871712
H	 2.210062	 0.952234	 0.867721
C	 4.732399	 0.226982	 -0.000914
H	 3.417321	 -1.229122	 -0.869998
H	 3.416993	 -1.228707	 0.868337
H	 4.797903	 0.863451	 -0.876963
H	 5.598517	 -0.424436	 -0.000420
H	 4.797415	 0.864118	 0.874691

	symmetry c1
}
set optking {
	frozen_dihedral = ("
		1 2 4 8
	")
}

ee,wfn = optimize('scf', return_wfn=True)
oeprop( wfn, 'DIPOLE', 'QUADRUPOLE', 'MULLIKEN_CHARGES')
f=open( 'psi4out.xyz', 'w' )
f.write( "23  " )
f.write( str(ee) + "\n" )
f.write( MOL.save_string_xyz() )
f.close()
--------------------------------------------------------------------------

    Molecular point group: c1
  Charge       = 0
  Multiplicity = 1
  Basis Set: CC-PVTZ
  Basis Set:
  @DF-RHF Final Energy:  -423.13410682649555
    Total Energy =                       -423.1341068264952128
    Molecular point group: c1
  Basis Set: CC-PVTZ
  Basis Set:
  Basis Set: CC-PVTZ
  Basis Set:
  @DF-RHF Final Energy:  -423.13205736696403
    Total Energy =                       -423.1320573669639771
  Basis Set: CC-PVTZ
  Basis Set:
  Basis Set: CC-PVTZ
  Basis Set:
  @DF-RHF Final Energy:  -423.13420853723443
    Total Energy =                       -423.1342085372345991
  Basis Set: CC-PVTZ
  Basis Set:
  Basis Set: CC-PVTZ
  Basis Set:
  @DF-RHF Final Energy:  -423.13423052099040
    Total Energy =                       -423.1342305209903998
  Basis Set: CC-PVTZ
  Basis Set:
  @DF-RHF Final Energy:  -423.13423566341129
    Total Energy =                       -423.1342356634111184
  @DF-RHF Final Energy:  -423.13424204822826
    Total Energy =                       -423.1342420482284297
  @DF-RHF Final Energy:  -423.13424716649195
    Total Energy =                       -423.1342471664921732
  @DF-RHF Final Energy:  -423.13428017168314
    Total Energy =                       -423.1342801716829172
  @DF-RHF Final Energy:  -423.13413456926116
    Total Energy =                       -423.1341345692610503
  @DF-RHF Final Energy:  -423.13431429081658
    Total Energy =                       -423.1343142908165191
  @DF-RHF Final Energy:  -423.13439553201374
    Total Energy =                       -423.1343955320138548
  @DF-RHF Final Energy:  -423.03533946922380
    Total Energy =                       -423.0353394692242546
  @DF-RHF Final Energy:  -422.93864478083378
    Total Energy =                       -422.9386447808338971
  @DF-RHF Final Energy:  -423.09233317391693
    Total Energy =                       -423.0923331739165860
  @DF-RHF Final Energy:  -423.13246930099837
    Total Energy =                       -423.1324693009984230
  @DF-RHF Final Energy:  -423.13460990587117
    Total Energy =                       -423.1346099058708887
  @DF-RHF Final Energy:  -423.13298395756755
    Total Energy =                       -423.1329839575678307
  @DF-RHF Final Energy:  -423.13494960086223
    Total Energy =                       -423.1349496008621145
  @DF-RHF Final Energy:  -423.13501516790802
    Total Energy =                       -423.1350151679087048
  @DF-RHF Final Energy:  -423.13497142678011
    Total Energy =                       -423.1349714267804529
  @DF-RHF Final Energy:  -423.13506061299006
    Total Energy =                       -423.1350606129898324
  Basis Set: CC-PVTZ
  Basis Set:
  @DF-RHF Final Energy:  -423.13507177442432
    Total Energy =                       -423.1350717744240910
  Basis Set: CC-PVTZ
  Basis Set:
  Basis Set: CC-PVTZ
  Basis Set:
  @DF-RHF Final Energy:  -423.13507768112544
    Total Energy =                       -423.1350776811253809
  Basis Set: CC-PVTZ
  Basis Set:
  Basis Set: CC-PVTZ
  Basis Set:
  @DF-RHF Final Energy:  -423.13507883108110
    Total Energy =                       -423.1350788310812732
  Basis Set: CC-PVTZ
  Basis Set:
  Charge       = 0
  Multiplicity = 1
  Basis Set: CC-PVTZ
  Basis Set:

    Orbital Energies (a.u.)
    -----------------------

    Doubly Occupied:

       1A    -20.593372     2A    -20.532334     3A    -11.366154
       4A    -11.279531     5A    -11.231101     6A    -11.222158
       7A    -11.221265     8A    -11.219438     9A    -11.210886
      10A     -1.470161    11A     -1.364669    12A     -1.095268
      13A     -1.043812    14A     -1.004635    15A     -0.931039
      16A     -0.841852    17A     -0.802941    18A     -0.775608
      19A     -0.695085    20A     -0.689132    21A     -0.670372
      22A     -0.648400    23A     -0.606860    24A     -0.589257
      25A     -0.584271    26A     -0.565853    27A     -0.560328
      28A     -0.539735    29A     -0.524199    30A     -0.505612
      31A     -0.492800    32A     -0.478232    33A     -0.471362
      34A     -0.467140    35A     -0.455291    36A     -0.439454

  @DF-RHF Final Energy:  -423.13507907451412

   => Energetics <=

    Nuclear Repulsion Energy =            450.5564032489849069
    One-Electron Energy =               -1469.0037493615632229
    Two-Electron Energy =                 595.3122670380643058
    DFT Exchange-Correlation Energy =       0.0000000000000000
    Empirical Dispersion Energy =           0.0000000000000000
    PCM Polarization Energy =               0.0000000000000000
    EFP Energy =                            0.0000000000000000
    Total Energy =                       -423.1350790745140102
    Molecular point group: c1
  Basis Set: CC-PVTZ
  Basis Set:

  -Total Gradient:
     Atom            X                  Y                   Z
    ------   -----------------  -----------------  -----------------
       1       -0.000971853304    -0.001995311556     0.002339389900
       2        0.001747908350     0.003633704315    -0.004538331166
       3       -0.000014661405     0.000009473791    -0.000004631030
       4       -0.001348640869    -0.002942693836     0.004323163496
       5       -0.000012011903    -0.000004766274     0.000003144954
       6       -0.000000576036    -0.000007546729    -0.000010756336
       7        0.000001970144     0.000005789081    -0.000009668782
       8        0.000606654784     0.001311059916    -0.002084011481
       9       -0.000004725745    -0.000006045626    -0.000005307961
      10       -0.000003642118    -0.000005050187    -0.000002912599
      11        0.000001305324    -0.000008067825    -0.000020837801
      12        0.000007487850     0.000009447149     0.000004864094
      13       -0.000002813870     0.000003184912     0.000015683723
      14        0.000003444335     0.000008308506    -0.000001595213
      15       -0.000004616704    -0.000012301276    -0.000002801028
      16       -0.000002873172    -0.000007482872     0.000001947244
      17        0.000002188354    -0.000006142289    -0.000016821679
      18       -0.000003595810     0.000013172297     0.000007666975
      19       -0.000004190577     0.000004057679     0.000015608069
      20        0.000001566229     0.000008609740    -0.000001117676
      21       -0.000000459690    -0.000008879159     0.000001947759
      22        0.000001676797     0.000000842397    -0.000000588565
      23        0.000000459034    -0.000003362151    -0.000014034895

  **** Optimization is complete! (in 25 steps) ****
    Final optimized geometry and variables:
    Molecular point group: c1

    Geometry (in Angstrom), charge = 0, multiplicity = 1:

    O           -2.798545773790     1.336185339481     0.327717583409
    C           -2.610692090399     0.415826487956    -0.392346324475
    C           -3.643451226353    -0.182666174435    -1.304810657527
    O           -1.459889059704    -0.228983046542    -0.469794272121
    H           -3.326072507520    -0.063634257458    -2.333188826250
    H           -3.734509017753    -1.243036638968    -1.109925941208
    H           -4.590216681905     0.309367928676    -1.152303455234
    C           -0.336408500801     0.337967142754     0.189928507910
    C            0.867443655127    -0.529111334032    -0.110092166637
    H           -0.194699010914     1.349957513243    -0.165257352791
    H           -0.534547439806     0.385884603767     1.251779770837
    C            2.134785965906    -0.003989532808     0.558102712622
    H            1.007691729388    -0.577628225475    -1.185140746333
    H            0.663579342033    -1.540925806183     0.225153542866
    C            3.362635625485    -0.862909228028     0.269098957919
    H            2.324900094763     1.013752420792     0.226031022552
    H            1.981908688980     0.050213142679     1.633118267583
    C            4.629260716000    -0.338320191639     0.936514673712
    H            3.516884737241    -0.917242119671    -0.804882083251
    H            3.174434798923    -1.879859162780     0.601591951840
    H            4.863256636928     0.665487279334     0.598032580266
    H            5.480957436196    -0.969683282697     0.711590907175
    H            4.518279330952    -0.304700437137     2.015151952417

  Mulliken Charges: (a.u.)
   Center  Symbol    Alpha    Beta     Spin     Total
       1     O     4.19654  4.19654  0.00000 -0.39308
       2     C     2.81163  2.81163  0.00000  0.37675
       3     C     3.13821  3.13821  0.00000 -0.27642
       4     O     4.15022  4.15022  0.00000 -0.30044
       5     H     0.44683  0.44683  0.00000  0.10633
       6     H     0.44514  0.44514  0.00000  0.10972
       7     H     0.43824  0.43824  0.00000  0.12352
       8     C     2.98040  2.98040  0.00000  0.03920
       9     C     3.08063  3.08063  0.00000 -0.16125
      10     H     0.45585  0.45585  0.00000  0.08831
      11     H     0.45237  0.45237  0.00000  0.09527
      12     C     3.09808  3.09808  0.00000 -0.19617
      13     H     0.45130  0.45130  0.00000  0.09739
      14     H     0.45036  0.45036  0.00000  0.09928
      15     C     3.08499  3.08499  0.00000 -0.16999
      16     H     0.45309  0.45309  0.00000  0.09382
      17     H     0.45275  0.45275  0.00000  0.09450
      18     C     3.14955  3.14955  0.00000 -0.29909
      19     H     0.45358  0.45358  0.00000  0.09283
      20     H     0.45342  0.45342  0.00000  0.09317
      21     H     0.45463  0.45463  0.00000  0.09075
      22     H     0.44771  0.44771  0.00000  0.10459
      23     H     0.45449  0.45449  0.00000  0.09101

   Total alpha = 36.00000, Total beta = 36.00000, Total charge = -0.00000

*** Psi4 exiting successfully. Buy a developer a beer!
