  ==> Input File <==

--------------------------------------------------------------------------
set {
	reference rhf
	basis 6-31G*
}

set_num_threads( 4 )
memory 2 gb

molecule MOL {
0 1

H	 1.263355	 -1.054259	 -0.166495
O	 1.184293	 -0.460409	 -0.900623
C	 0.613939	 0.736927	 -0.458981
C	 -0.793441	 0.596080	 0.058728
H	 0.623376	 1.408365	 -1.310030
H	 1.232377	 1.199958	 0.309239
C	 -1.530462	 -0.493172	 -0.025500
H	 -1.196888	 1.480801	 0.526684
H	 -1.092586	 -1.461565	 -0.186463
H	 -2.602122	 -0.450675	 0.050101

	symmetry c1
}
set optking {
	frozen_dihedral = ("
		3 4 7 9
	")
}

ee = optimize('scf')
oeprop('DIPOLE', 'QUADRUPOLE', 'MULLIKEN_CHARGES')
f=open( 'psi4out.xyz', 'w' )
f.write( "10  " )
f.write( str(ee) + "\n" )
f.write( MOL.save_string_xyz() )
f.close()
--------------------------------------------------------------------------

    Molecular point group: c1
  Charge       = 0
  Multiplicity = 1
  Basis Set: 6-31G*
  Basis Set:
  @DF-RHF Final Energy:  -191.90691571860390
    Total Energy =                       -191.9069157186038979
    Molecular point group: c1
  Basis Set: 6-31G*
  Basis Set:
  Basis Set: 6-31G*
  Basis Set:
  @DF-RHF Final Energy:  -191.91324471980658
    Total Energy =                       -191.9132447198065279
  Basis Set: 6-31G*
  Basis Set:
  Basis Set: 6-31G*
  Basis Set:
  @DF-RHF Final Energy:  -191.91347566069987
    Total Energy =                       -191.9134756606998735
  Basis Set: 6-31G*
  Basis Set:
  Basis Set: 6-31G*
  Basis Set:
  @DF-RHF Final Energy:  -191.91358872535787
    Total Energy =                       -191.9135887253578687
  Basis Set: 6-31G*
  Basis Set:
  Basis Set: 6-31G*
  Basis Set:
  @DF-RHF Final Energy:  -191.91359286098194
    Total Energy =                       -191.9135928609819643
  Basis Set: 6-31G*
  Basis Set:
  Charge       = 0
  Multiplicity = 1
  Basis Set: 6-31G*
  Basis Set:

    Orbital Energies (a.u.)
    -----------------------

    Doubly Occupied:

       1A    -20.560434     2A    -11.278570     3A    -11.230552
       4A    -11.219729     5A     -1.368714     6A     -1.057659
       7A     -0.928130     8A     -0.768491     9A     -0.688062
      10A     -0.659600    11A     -0.614012    12A     -0.571162
      13A     -0.539829    14A     -0.489683    15A     -0.447263
      16A     -0.363275

  @DF-RHF Final Energy:  -191.91359299391161

   => Energetics <=

    Nuclear Repulsion Energy =            119.1784816619073695
    One-Electron Energy =                -496.6138236032198847
    Two-Electron Energy =                 185.5217489474009085
    DFT Exchange-Correlation Energy =       0.0000000000000000
    Empirical Dispersion Energy =           0.0000000000000000
    PCM Polarization Energy =               0.0000000000000000
    EFP Energy =                            0.0000000000000000
    Total Energy =                       -191.9135929939116068
    Molecular point group: c1
  Basis Set: 6-31G*
  Basis Set:

  -Total Gradient:
     Atom            X                  Y                   Z
    ------   -----------------  -----------------  -----------------
       1       -0.000001048068     0.000002919332    -0.000004611569
       2       -0.000013428453     0.000003763904     0.000010645276
       3       -0.003130688846     0.003609524199    -0.007168328438
       4        0.005750866215    -0.007259295711     0.016749059590
       5       -0.000007085164     0.000001788582     0.000006776296
       6        0.000006055228     0.000002497280     0.000006203426
       7       -0.003668040917     0.006470706495    -0.020715499782
       8       -0.000035365887    -0.000003933424    -0.000023611028
       9        0.001112211367    -0.002833241244     0.011159095406
      10       -0.000013475477     0.000005270587    -0.000019729176

  **** Optimization is complete! (in 6 steps) ****
    Final optimized geometry and variables:
    Molecular point group: c1

    Geometry (in Angstrom), charge = 0, multiplicity = 1:

    H            1.394011551899    -1.089567842225     0.246125159876
    O            1.265763534517    -0.533767450483    -0.510271476394
    C            0.672699977437     0.665225313038    -0.102145270635
    C           -0.727174858529     0.512641366161     0.432917888677
    H            0.635744837267     1.299942053386    -0.979566462417
    H            1.299456131921     1.176804786474     0.627715700838
    C           -1.508427717630    -0.533545082706     0.244681113622
    H           -1.151941222261     1.421657571958     0.831534478623
    H           -1.119524654449    -1.495131098899    -0.038081385839
    H           -2.537118986844    -0.514255552666     0.558822135859

  Mulliken Charges: (a.u.)
   Center  Symbol    Alpha    Beta     Spin     Total
       1     H     0.28094  0.28094  0.00000  0.43812
       2     O     4.36671  4.36671  0.00000 -0.73342
       3     C     2.99955  2.99955  0.00000  0.00089
       4     C     3.09811  3.09811  0.00000 -0.19623
       5     H     0.40661  0.40661  0.00000  0.18678
       6     H     0.42676  0.42676  0.00000  0.14649
       7     C     3.18785  3.18785  0.00000 -0.37569
       8     H     0.41198  0.41198  0.00000  0.17604
       9     H     0.40898  0.40898  0.00000  0.18204
      10     H     0.41251  0.41251  0.00000  0.17498

   Total alpha = 16.00000, Total beta = 16.00000, Total charge =  0.00000
