  ==> Input File <==

--------------------------------------------------------------------------
set {
	reference rhf
	basis 6-31G*
}

set_num_threads( 4 )
memory 2 gb

molecule MOL {
0 1

H	 -0.000158	 1.970498	 0.756846
O	 -0.000074	 1.880206	 -0.189275
C	 -0.000015	 0.544847	 -0.545111
C	 -1.278788	 -0.123820	 -0.051541
C	 1.278802	 -0.123718	 -0.051505
H	 -0.000001	 0.490777	 -1.623619
F	 -1.890615	 0.668309	 0.802710
F	 -2.114798	 -0.387591	 -1.033310
F	 -1.005483	 -1.257833	 0.573693
F	 2.323327	 0.466644	 -0.591854
F	 1.326242	 -1.401483	 -0.363667
F	 1.388946	 -0.015632	 1.262939

	symmetry c1
}
set optking {
	frozen_dihedral = ("
		7 4 3 6
	")
}

ee = optimize('scf')
oeprop('DIPOLE', 'QUADRUPOLE', 'MULLIKEN_CHARGES')
f=open( 'psi4out.xyz', 'w' )
f.write( "12  " )
f.write( str(ee) + "\n" )
f.write( MOL.save_string_xyz() )
f.close()
--------------------------------------------------------------------------

    Molecular point group: c1
  Charge       = 0
  Multiplicity = 1
  Basis Set: 6-31G*
  Basis Set:
  @DF-RHF Final Energy:  -786.27097927783063
    Total Energy =                       -786.2709792778309748
    Molecular point group: c1
  Basis Set: 6-31G*
  Basis Set:
  Basis Set: 6-31G*
  Basis Set:
  @DF-RHF Final Energy:  -786.27185781115202
    Total Energy =                       -786.2718578111519037
  Basis Set: 6-31G*
  Basis Set:
  Basis Set: 6-31G*
  Basis Set:
  @DF-RHF Final Energy:  -786.27274050913843
    Total Energy =                       -786.2727405091382025
  Basis Set: 6-31G*
  Basis Set:
  Basis Set: 6-31G*
  Basis Set:
  @DF-RHF Final Energy:  -786.27283867537199
    Total Energy =                       -786.2728386753719860
  Basis Set: 6-31G*
  Basis Set:
  Basis Set: 6-31G*
  Basis Set:
  @DF-RHF Final Energy:  -786.27285274382371
    Total Energy =                       -786.2728527438239325
  Basis Set: 6-31G*
  Basis Set:
  Charge       = 0
  Multiplicity = 1
  Basis Set: 6-31G*
  Basis Set:

    Orbital Energies (a.u.)
    -----------------------

    Doubly Occupied:

       1A    -26.364844     2A    -26.363189     3A    -26.361055
       4A    -26.359492     5A    -26.359102     6A    -26.355989
       7A    -20.615083     8A    -11.529490     9A    -11.523214
      10A    -11.349399    11A     -1.765511    12A     -1.757789
      13A     -1.661895    14A     -1.658069    15A     -1.657403
      16A     -1.653350    17A     -1.433635    18A     -1.098878
      19A     -0.996303    20A     -0.937126    21A     -0.866273
      22A     -0.859930    23A     -0.851157    24A     -0.845555
      25A     -0.833848    26A     -0.814221    27A     -0.734076
      28A     -0.730840    29A     -0.727076    30A     -0.722964
      31A     -0.687134    32A     -0.685944    33A     -0.681766
      34A     -0.676679    35A     -0.668343    36A     -0.662220
      37A     -0.656434    38A     -0.649055    39A     -0.617919
      40A     -0.550655    41A     -0.504497

  @DF-RHF Final Energy:  -786.27285391657688

   => Energetics <=

    Nuclear Repulsion Energy =            669.0175892564388960
    One-Electron Energy =               -2424.9260871583487642
    Two-Electron Energy =                 969.6356439853321945
    DFT Exchange-Correlation Energy =       0.0000000000000000
    Empirical Dispersion Energy =           0.0000000000000000
    PCM Polarization Energy =               0.0000000000000000
    EFP Energy =                            0.0000000000000000
    Total Energy =                       -786.2728539165776738
    Molecular point group: c1
  Basis Set: 6-31G*
  Basis Set:

  -Total Gradient:
     Atom            X                  Y                   Z
    ------   -----------------  -----------------  -----------------
       1        0.000006111708     0.000022939146    -0.000007048221
       2        0.000006092306    -0.000037304969     0.000035553111
       3        0.001472391007    -0.003238327363    -0.000450334832
       4        0.001604752305    -0.000986434302     0.002932426902
       5       -0.000047596534     0.000022229164    -0.000166931729
       6       -0.001622834623     0.002958848310    -0.000186501959
       7       -0.001458899335     0.001180315052    -0.002096998817
       8       -0.000071227364    -0.000015616239    -0.000168022660
       9        0.000025070514     0.000103506358    -0.000057024248
      10        0.000042113715    -0.000024952402     0.000004193200
      11        0.000024482036     0.000070233090     0.000086189061
      12        0.000019544270    -0.000055435851     0.000074500196

  **** Optimization is complete! (in 6 steps) ****
    Final optimized geometry and variables:
    Molecular point group: c1

    Geometry (in Angstrom), charge = 0, multiplicity = 1:

    H           -0.078966388723     2.035129225477     0.682310663536
    O            0.034067947373     1.894265673756    -0.249630259045
    C            0.007475648555     0.546476088420    -0.550817801878
    C           -1.282486661119    -0.123118356604    -0.023479966399
    C            1.284343408468    -0.124087632209    -0.060578870136
    H           -0.013136623271     0.478886356513    -1.627350000054
    F           -1.900070038524     0.664254264027     0.837528613629
    F           -2.115223214888    -0.346236232776    -1.022535744698
    F           -1.062581601893    -1.274969473770     0.575723404070
    F            2.333353384539     0.503766741715    -0.545532832572
    F            1.353375502827    -1.382329832118    -0.444048878193
    F            1.361455107466    -0.081675365559     1.260171995601

  Mulliken Charges: (a.u.)
   Center  Symbol    Alpha    Beta     Spin     Total
       1     H     0.26630  0.26630  0.00000  0.46741
       2     O     4.36040  4.36040  0.00000 -0.72080
       3     C     3.06929  3.06929  0.00000 -0.13858
       4     C     2.43371  2.43371  0.00000  1.13258
       5     C     2.43718  2.43718  0.00000  1.12564
       6     H     0.37087  0.37087  0.00000  0.25826
       7     F     4.67817  4.67817  0.00000 -0.35633
       8     F     4.67793  4.67793  0.00000 -0.35585
       9     F     4.67263  4.67263  0.00000 -0.34527
      10     F     4.67472  4.67472  0.00000 -0.34943
      11     F     4.67647  4.67647  0.00000 -0.35295
      12     F     4.68233  4.68233  0.00000 -0.36466

   Total alpha = 41.00000, Total beta = 41.00000, Total charge = -0.00000
