  ==> Input File <==

--------------------------------------------------------------------------
set {
	reference rhf
	basis 6-31G*
}

set_num_threads( 4 )
memory 2 gb

molecule MOL {
0 1

H	 1.241594	 1.550592	 0.856781
O	 0.428306	 1.057262	 0.900582
C	 0.489431	 0.077273	 0.000046
C	 -0.764129	 -0.759190	 0.000191
O	 1.436301	 -0.082777	 -0.698801
C	 -2.038368	 0.075731	 -0.000248
H	 -0.717284	 -1.412404	 -0.866059
H	 -0.717458	 -1.411724	 0.866967
H	 -2.086483	 0.712501	 -0.875098
H	 -2.908485	 -0.571682	 -0.000042
H	 -2.086576	 0.713280	 0.874068

	symmetry c1
}
set optking {
	frozen_dihedral = ("
		2 3 4 7
	")
}

ee = optimize('scf')
oeprop('DIPOLE', 'QUADRUPOLE', 'MULLIKEN_CHARGES')
f=open( 'psi4out.xyz', 'w' )
f.write( "11  " )
f.write( str(ee) + "\n" )
f.write( MOL.save_string_xyz() )
f.close()
--------------------------------------------------------------------------

    Molecular point group: c1
  Charge       = 0
  Multiplicity = 1
  Basis Set: 6-31G*
  Basis Set:
  @DF-RHF Final Energy:  -266.84398504651608
    Total Energy =                       -266.8439850465161385
    Molecular point group: c1
  Basis Set: 6-31G*
  Basis Set:
  Basis Set: 6-31G*
  Basis Set:
  @DF-RHF Final Energy:  -266.84405948691898
    Total Energy =                       -266.8440594869189226
  Basis Set: 6-31G*
  Basis Set:
  Basis Set: 6-31G*
  Basis Set:
  @DF-RHF Final Energy:  -266.84373977938361
    Total Energy =                       -266.8437397793836112
  Basis Set: 6-31G*
  Basis Set:
  Basis Set: 6-31G*
  Basis Set:
  @DF-RHF Final Energy:  -266.84433437314317
    Total Energy =                       -266.8443343731430559
  Basis Set: 6-31G*
  Basis Set:
  Basis Set: 6-31G*
  Basis Set:
  @DF-RHF Final Energy:  -266.84433860824754
    Total Energy =                       -266.8443386082479378
  Basis Set: 6-31G*
  Basis Set:
  Charge       = 0
  Multiplicity = 1
  Basis Set: 6-31G*
  Basis Set:

    Orbital Energies (a.u.)
    -----------------------

    Doubly Occupied:

       1A    -20.614615     2A    -20.550774     3A    -11.381516
       4A    -11.243697     5A    -11.227618     6A     -1.475702
       7A     -1.365659     8A     -1.067235     9A     -0.910652
      10A     -0.820103    11A     -0.701631    12A     -0.681923
      13A     -0.647950    14A     -0.608206    15A     -0.589685
      16A     -0.548415    17A     -0.525989    18A     -0.511317
      19A     -0.476384    20A     -0.440643

  @DF-RHF Final Energy:  -266.84433915308250

   => Energetics <=

    Nuclear Repulsion Energy =            180.0377472041073759
    One-Electron Energy =                -720.9847475206706804
    Two-Electron Energy =                 274.1026611634806613
    DFT Exchange-Correlation Energy =       0.0000000000000000
    Empirical Dispersion Energy =           0.0000000000000000
    PCM Polarization Energy =               0.0000000000000000
    EFP Energy =                            0.0000000000000000
    Total Energy =                       -266.8443391530826148
    Molecular point group: c1
  Basis Set: 6-31G*
  Basis Set:

  -Total Gradient:
     Atom            X                  Y                   Z
    ------   -----------------  -----------------  -----------------
       1       -0.000003430217    -0.000017157923    -0.000008360885
       2       -0.000264715136     0.000382314834    -0.000361143159
       3        0.000312357943    -0.000408981825     0.000414898154
       4        0.000293485267    -0.000431580196     0.000334997712
       5       -0.000023733197     0.000003515430     0.000000883168
       6        0.000006024069    -0.000010195627    -0.000004207679
       7       -0.000318242921     0.000485565815    -0.000367090890
       8        0.000000984587     0.000001953393    -0.000004959146
       9        0.000001242972     0.000002349981    -0.000002469213
      10       -0.000009896857    -0.000002021767     0.000000060580
      11        0.000005923489    -0.000005762112    -0.000002608643

  **** Optimization is complete! (in 6 steps) ****
    Final optimized geometry and variables:
    Molecular point group: c1

    Geometry (in Angstrom), charge = 0, multiplicity = 1:

    H            1.351452333879     1.431998585769     0.794837078860
    O            0.524198224806     0.962543737865     0.841300184845
    C            0.560038662091    -0.023004143060    -0.054720669929
    C           -0.696140276095    -0.856960501602    -0.054973632254
    O            1.504942135450    -0.206950774982    -0.750886558252
    C           -1.988866780450    -0.037342412984    -0.055044584716
    H           -0.642395480122    -1.501618655794    -0.921680929922
    H           -0.659304614385    -1.487703261562     0.829266777001
    H           -2.041283868987     0.611693206687    -0.922940540558
    H           -2.845248612550    -0.701668434164    -0.085008570336
    H           -2.065515154946     0.577707903539     0.832114023236

  Mulliken Charges: (a.u.)
   Center  Symbol    Alpha    Beta     Spin     Total
       1     H     0.26724  0.26724  0.00000  0.46553
       2     O     4.34723  4.34723  0.00000 -0.69446
       3     C     2.62775  2.62775  0.00000  0.74450
       4     C     3.20450  3.20450  0.00000 -0.40899
       5     O     4.27979  4.27979  0.00000 -0.55957
       6     C     3.24727  3.24727  0.00000 -0.49453
       7     H     0.39552  0.39552  0.00000  0.20895
       8     H     0.39985  0.39985  0.00000  0.20030
       9     H     0.41338  0.41338  0.00000  0.17323
      10     H     0.41290  0.41290  0.00000  0.17421
      11     H     0.40458  0.40458  0.00000  0.19083

   Total alpha = 20.00000, Total beta = 20.00000, Total charge =  0.00000
