                              Psi4 1.0.54 Driver

  ==> Input File <==

--------------------------------------------------------------------------
set {
	reference rhf
	basis cc-pvtz
}

set_num_threads( 4 )
memory 2 gb

molecule MOL {
0 1

O	 3.219313	 0.959291	 -0.614106
C	 2.698710	 0.058177	 -0.050237
C	 1.246364	 -0.005813	 0.348416
O	 3.344101	 -1.038700	 0.312317
C	 0.453207	 1.232821	 -0.049003
H	 0.839270	 -0.907818	 -0.092281
H	 1.216683	 -0.160521	 1.422434
C	 -0.998367	 1.217982	 0.432195
H	 0.481498	 1.345443	 -1.127236
H	 0.951413	 2.105557	 0.354893
C	 -1.882951	 0.151251	 -0.211235
H	 -1.429490	 2.193659	 0.228843
H	 -1.019755	 1.099323	 1.513279
C	 -3.342450	 0.243269	 0.226009
H	 -1.826223	 0.246578	 -1.293162
H	 -1.508033	 -0.839650	 0.027695
C	 -3.980114	 -1.114799	 0.504955
H	 -3.915619	 0.756354	 -0.542471
H	 -3.411681	 0.860699	 1.118675
C	 -5.438531	 -1.014716	 0.939443
H	 -3.911880	 -1.732806	 -0.386186
H	 -3.410037	 -1.627769	 1.274844
H	 -5.860313	 -1.995023	 1.129394
H	 -6.042667	 -0.537457	 0.175014
H	 -5.536886	 -0.430753	 1.848576
C	 4.720529	 -1.114346	 0.001449
H	 4.874321	 -1.055557	 -1.065852
H	 5.057824	 -2.067950	 0.373977
H	 5.264321	 -0.313596	 0.480350

	symmetry c1
}
set optking {
	frozen_dihedral = ("
		17 14 11 15
	")
}

ee,wfn = optimize('scf', return_wfn=True)
oeprop( wfn, 'DIPOLE', 'QUADRUPOLE', 'MULLIKEN_CHARGES')
f=open( 'psi4out.xyz', 'w' )
f.write( "29  " )
f.write( str(ee) + "\n" )
f.write( MOL.save_string_xyz() )
f.close()
--------------------------------------------------------------------------

    Molecular point group: c1
  Charge       = 0
  Multiplicity = 1
  Basis Set: CC-PVTZ
  Basis Set:
  @DF-RHF Final Energy:  -501.22057477818294
    Total Energy =                       -501.2205747781831633
    Molecular point group: c1
  Basis Set: CC-PVTZ
  Basis Set:
  Basis Set: CC-PVTZ
  Basis Set:
  @DF-RHF Final Energy:  -501.22080216715142
    Total Energy =                       -501.2208021671518736
  Basis Set: CC-PVTZ
  Basis Set:
  Basis Set: CC-PVTZ
  Basis Set:
  @DF-RHF Final Energy:  -501.22086207856341
    Total Energy =                       -501.2208620785631865
  Basis Set: CC-PVTZ
  Basis Set:
  Basis Set: CC-PVTZ
  Basis Set:
  @DF-RHF Final Energy:  -501.22062025338414
    Total Energy =                       -501.2206202533839132
  Basis Set: CC-PVTZ
  Basis Set:
  Basis Set: CC-PVTZ
  Basis Set:
  @DF-RHF Final Energy:  -501.22087812093571
    Total Energy =                       -501.2208781209353674
  Basis Set: CC-PVTZ
  Basis Set:
  Charge       = 0
  Multiplicity = 1
  Basis Set: CC-PVTZ
  Basis Set:

    Orbital Energies (a.u.)
    -----------------------

    Doubly Occupied:

       1A    -20.595990     2A    -20.533837     3A    -11.364245
       4A    -11.278244     5A    -11.232943     6A    -11.216832
       7A    -11.215736     8A    -11.214476     9A    -11.213634
      10A    -11.212168    11A    -11.207125    12A     -1.471868
      13A     -1.365478    14A     -1.098595    15A     -1.067368
      16A     -1.020449    17A     -0.977572    18A     -0.928709
      19A     -0.862773    20A     -0.801658    21A     -0.790550
      22A     -0.765679    23A     -0.702631    24A     -0.685434
      25A     -0.675988    26A     -0.644731    27A     -0.631359
      28A     -0.609689    29A     -0.595790    30A     -0.581727
      31A     -0.566087    32A     -0.553364    33A     -0.535928
      34A     -0.528290    35A     -0.519562    36A     -0.510358
      37A     -0.496735    38A     -0.477625    39A     -0.473722
      40A     -0.460807    41A     -0.459054    42A     -0.456220
      43A     -0.443528    44A     -0.436849

  @DF-RHF Final Energy:  -501.22087748805779

   => Energetics <=

    Nuclear Repulsion Energy =            612.2235651931787288
    One-Electron Energy =               -1895.9260766396894269
    Two-Electron Energy =                 782.4816339584535854
    DFT Exchange-Correlation Energy =       0.0000000000000000
    Empirical Dispersion Energy =           0.0000000000000000
    PCM Polarization Energy =               0.0000000000000000
    EFP Energy =                            0.0000000000000000
    Total Energy =                       -501.2208774880571127
    Molecular point group: c1
  Basis Set: CC-PVTZ
  Basis Set:

  -Total Gradient:
     Atom            X                  Y                   Z
    ------   -----------------  -----------------  -----------------
       1       -0.000068733638    -0.000034494901    -0.000137424279
       2        0.000122798524     0.000179408864     0.000342957807
       3       -0.000035142083    -0.000061724898    -0.000130538650
       4       -0.000034289331    -0.000089531188    -0.000086940383
       5        0.000053024087     0.000042333654     0.000073509633
       6       -0.000060173694    -0.000036369878     0.000005208639
       7        0.000029798544     0.000012669864    -0.000017457799
       8       -0.000042810272     0.000002944451    -0.000074446617
       9       -0.000009640514     0.000014525530     0.000004747891
      10        0.000022292425    -0.000019074393     0.000005507842
      11       -0.000159237653    -0.004327418536     0.000687479776
      12       -0.000008880491    -0.000000001426    -0.000020787660
      13       -0.000003777629     0.000012435539    -0.000008654774
      14       -0.000888885228     0.000480979324    -0.003478493886
      15        0.000356342556     0.003625922179     0.000283985322
      16        0.000039531627    -0.000042881090    -0.000015832207
      17        0.000760956558     0.000226142432     0.002608744920
      18       -0.000001243395    -0.000006840517    -0.000024347275
      19       -0.000006118768    -0.000012029592     0.000003040033
      20       -0.000048821746     0.000000678002    -0.000027411426
      21        0.000014051662     0.000026150083     0.000019590045
      22        0.000009322842     0.000015771769    -0.000015869016
      23       -0.000017427739    -0.000003824599    -0.000008789491
      24       -0.000010754136     0.000005763862     0.000017664999
      25        0.000002247643    -0.000011275262    -0.000003930745
      26        0.000000559990     0.000014927285    -0.000011993534
      27        0.000000137848    -0.000004248803     0.000008927974
      28       -0.000008157546    -0.000007920758     0.000001513143
      29       -0.000006970439    -0.000003016997     0.000000039718

  **** Optimization is complete! (in 6 steps) ****
    Final optimized geometry and variables:
    Molecular point group: c1

    Geometry (in Angstrom), charge = 0, multiplicity = 1:

    O            3.169598359706     1.022528885409    -0.806308736646
    C            2.661445130817     0.127951274609    -0.221078104537
    C            1.211620225792     0.056498086880     0.185392738200
    O            3.319722699901    -0.955338168439     0.158829370766
    C            0.403679967690     1.279169070142    -0.231424785352
    H            0.811937479054    -0.857699584612    -0.236732503975
    H            1.188167449191    -0.078649859225     1.262206019063
    C           -1.045287941623     1.256549262186     0.255839494457
    H            0.426434968569     1.371761766054    -1.311743382871
    H            0.893875483134     2.164796553761     0.153917127975
    C           -1.917587443300     0.155789699178    -0.350948249247
    H           -1.493678802844     2.218419774582     0.024476203580
    H           -1.062254327433     1.170477131031     1.340176819534
    C           -3.394147953332     0.267865416716     0.065885678793
    H           -1.837849878724     0.229152884800    -1.431747829556
    H           -1.533568913423    -0.818482191001    -0.069551300267
    C           -4.053350713742    -1.076763880905     0.362958059588
    H           -3.955887128019     0.788443096463    -0.703587617015
    H           -3.469375243215     0.884443027805     0.957834808262
    C           -5.523939765510    -0.953456300713     0.746222751539
    H           -3.960490058961    -1.725705414759    -0.504222482834
    H           -3.509682122276    -1.565347424154     1.166865794896
    H           -5.957676442674    -1.923777301128     0.959328484528
    H           -6.100584718068    -0.502270889742    -0.054379418905
    H           -5.647457163893    -0.334920267031     1.629148509138
    C            4.695029889900    -1.023577963029    -0.158608462248
    H            4.842150794302    -0.983916894586    -1.227720649181
    H            5.043819279924    -1.966508601142     0.230192569094
    H            5.233639298337    -0.208489508743     0.301593115009

  Mulliken Charges: (a.u.)
   Center  Symbol    Alpha    Beta     Spin     Total
       1     O     4.19699  4.19699  0.00000 -0.39398
       2     C     2.80512  2.80512  0.00000  0.38977
       3     C     3.10134  3.10134  0.00000 -0.20268
       4     O     4.14723  4.14723  0.00000 -0.29446
       5     C     3.09311  3.09311  0.00000 -0.18622
       6     H     0.43899  0.43899  0.00000  0.12201
       7     H     0.43983  0.43983  0.00000  0.12034
       8     C     3.10320  3.10320  0.00000 -0.20639
       9     H     0.44628  0.44628  0.00000  0.10744
      10     H     0.43958  0.43958  0.00000  0.12083
      11     C     3.09749  3.09749  0.00000 -0.19497
      12     H     0.44436  0.44436  0.00000  0.11127
      13     H     0.45419  0.45419  0.00000  0.09162
      14     C     3.08897  3.08897  0.00000 -0.17794
      15     H     0.45079  0.45079  0.00000  0.09843
      16     H     0.45271  0.45271  0.00000  0.09458
      17     C     3.08436  3.08436  0.00000 -0.16871
      18     H     0.45033  0.45033  0.00000  0.09934
      19     H     0.45535  0.45535  0.00000  0.08931
      20     C     3.15026  3.15026  0.00000 -0.30053
      21     H     0.45374  0.45374  0.00000  0.09253
      22     H     0.45535  0.45535  0.00000  0.08929
      23     H     0.44850  0.44850  0.00000  0.10300
      24     H     0.45485  0.45485  0.00000  0.09030
      25     H     0.45505  0.45505  0.00000  0.08989
      26     C     3.03818  3.03818  0.00000 -0.07636
      27     H     0.45435  0.45435  0.00000  0.09131
      28     H     0.44527  0.44527  0.00000  0.10946
      29     H     0.45423  0.45423  0.00000  0.09155

   Total alpha = 44.00000, Total beta = 44.00000, Total charge =  0.00000

*** Psi4 exiting successfully. Buy a developer a beer!
