                              Psi4 1.0.54 Driver

  ==> Input File <==

--------------------------------------------------------------------------
set {
	reference rhf
	basis cc-pvtz
}

set_num_threads( 4 )
memory 2 gb

molecule MOL {
0 1

H	 0.824708	 4.563238	 -1.505216
C	 1.681760	 4.649237	 -0.823342
C	 1.422172	 4.181030	 0.582819
O	 2.705560	 5.093168	 -1.213298
C	 0.824626	 2.771912	 0.637601
H	 2.345913	 4.244838	 1.143145
H	 0.717201	 4.885278	 1.019115
C	 1.787418	 1.679707	 0.176839
H	 0.512940	 2.571083	 1.656845
H	 -0.079226	 2.740622	 0.034057
C	 1.181757	 0.280428	 0.247371
H	 2.684796	 1.716655	 0.788767
H	 2.110427	 1.879404	 -0.841598
C	 2.151032	 -0.811012	 -0.202643
H	 0.853567	 0.090214	 1.264453
H	 0.289479	 0.244049	 -0.373769
C	 3.580021	 -0.656538	 0.320835
H	 2.170545	 -0.847575	 -1.289412
H	 1.766632	 -1.772905	 0.124928
C	 4.327657	 0.562694	 -0.213579
H	 4.138806	 -1.549270	 0.057813
H	 3.561991	 -0.620783	 1.406976
H	 4.355973	 0.557257	 -1.298551
H	 3.867136	 1.491650	 0.100501
H	 5.351524	 0.571613	 0.142204

	symmetry c1
}
set optking {
	frozen_dihedral = ("
		8 11 14 18
	")
}

ee,wfn = optimize('scf', return_wfn=True)
oeprop( wfn, 'DIPOLE', 'QUADRUPOLE', 'MULLIKEN_CHARGES')
f=open( 'psi4out.xyz', 'w' )
f.write( "25  " )
f.write( str(ee) + "\n" )
f.write( MOL.save_string_xyz() )
f.close()
--------------------------------------------------------------------------

    Molecular point group: c1
  Charge       = 0
  Multiplicity = 1
  Basis Set: CC-PVTZ
  Basis Set:
  @DF-RHF Final Energy:  -387.22911330211542
    Total Energy =                       -387.2291133021153655
    Molecular point group: c1
  Basis Set: CC-PVTZ
  Basis Set:
  Basis Set: CC-PVTZ
  Basis Set:
  @DF-RHF Final Energy:  -387.24662483583120
    Total Energy =                       -387.2466248358314260
  Basis Set: CC-PVTZ
  Basis Set:
  Basis Set: CC-PVTZ
  Basis Set:
  @DF-RHF Final Energy:  -387.25188030048474
    Total Energy =                       -387.2518803004850270
  Basis Set: CC-PVTZ
  Basis Set:
  Basis Set: CC-PVTZ
  Basis Set:
  @DF-RHF Final Energy:  -387.25306290553829
    Total Energy =                       -387.2530629055383997
  Basis Set: CC-PVTZ
  Basis Set:
  @DF-RHF Final Energy:  -387.25355272080174
    Total Energy =                       -387.2535527208017356
  @DF-RHF Final Energy:  -387.25384710598655
    Total Energy =                       -387.2538471059865515
  @DF-RHF Final Energy:  -387.25403443902775
    Total Energy =                       -387.2540344390275777
  Basis Set: CC-PVTZ
  Basis Set:
  @DF-RHF Final Energy:  -387.25399332107423
    Total Energy =                       -387.2539933210742902
  Basis Set: CC-PVTZ
  Basis Set:
  Basis Set: CC-PVTZ
  Basis Set:
  @DF-RHF Final Energy:  -387.25423613163190
    Total Energy =                       -387.2542361316324104
  Basis Set: CC-PVTZ
  Basis Set:
  Basis Set: CC-PVTZ
  Basis Set:
  @DF-RHF Final Energy:  -387.25423995069866
    Total Energy =                       -387.2542399506978654
  Basis Set: CC-PVTZ
  Basis Set:
  Charge       = 0
  Multiplicity = 1
  Basis Set: CC-PVTZ
  Basis Set:

    Orbital Energies (a.u.)
    -----------------------

    Doubly Occupied:

       1A    -20.551576     2A    -11.321151     3A    -11.233899
       4A    -11.232863     5A    -11.221200     6A    -11.218999
       7A    -11.216035     8A    -11.215292     9A    -11.205520
      10A     -1.406541    11A     -1.104604    12A     -1.067759
      13A     -1.011509    14A     -0.948101    15A     -0.873309
      16A     -0.826149    17A     -0.789267    18A     -0.775414
      19A     -0.668968    20A     -0.661544    21A     -0.629403
      22A     -0.624735    23A     -0.610184    24A     -0.594627
      25A     -0.570540    26A     -0.556363    27A     -0.534292
      28A     -0.523164    29A     -0.518967    30A     -0.494985
      31A     -0.487950    32A     -0.487060    33A     -0.458266
      34A     -0.451651    35A     -0.442734    36A     -0.411976

  @DF-RHF Final Energy:  -387.25423952405168

   => Energetics <=

    Nuclear Repulsion Energy =            451.0336670506122232
    One-Electron Energy =               -1418.6826189805810827
    Two-Electron Energy =                 580.3947124059170619
    DFT Exchange-Correlation Energy =       0.0000000000000000
    Empirical Dispersion Energy =           0.0000000000000000
    PCM Polarization Energy =               0.0000000000000000
    EFP Energy =                            0.0000000000000000
    Total Energy =                       -387.2542395240518545
    Molecular point group: c1
  Basis Set: CC-PVTZ
  Basis Set:

  -Total Gradient:
     Atom            X                  Y                   Z
    ------   -----------------  -----------------  -----------------
       1       -0.000020287172    -0.000014931806    -0.000001123017
       2        0.000008585380     0.000001733781    -0.000009280352
       3       -0.000029157024     0.000007717722    -0.000000543719
       4        0.000045429552     0.000011373825    -0.000004571934
       5        0.000053368247     0.000009127545     0.000056343406
       6        0.000006515502     0.000012858163     0.000027425394
       7       -0.000007940205     0.000018124822    -0.000029738006
       8        0.001054154889    -0.000321436046     0.003054981060
       9        0.000006162633    -0.000030704484     0.000004271668
      10       -0.000023291394     0.000000455324     0.000010292890
      11       -0.002283593586    -0.000220858002    -0.004560433851
      12       -0.000083383812     0.000011514192    -0.000001547556
      13       -0.000072277273     0.000043425407     0.000003335489
      14        0.004379450684     0.003523629237     0.001469699347
      15       -0.000056526997    -0.000010362084    -0.000008128647
      16        0.000029316709     0.000061506235     0.000007447492
      17        0.000122291073     0.000026447266     0.000267995121
      18       -0.003240373813    -0.003102072206    -0.000138498871
      19        0.000011109833     0.000043416740    -0.000051954753
      20       -0.000098699952    -0.000036142905    -0.000085965631
      21        0.000057590488     0.000044732982     0.000003411332
      22        0.000016397519    -0.000090595635     0.000030239539
      23        0.000031259169    -0.000012774413    -0.000058209461
      24        0.000040742369     0.000033482275     0.000003959582
      25        0.000053157182    -0.000009667932     0.000010593480

  **** Optimization is complete! (in 11 steps) ****
    Final optimized geometry and variables:
    Molecular point group: c1

    Geometry (in Angstrom), charge = 0, multiplicity = 1:

    H           -1.580201104262     2.618148260025    -1.368974312654
    C           -0.794604960169     2.756616551383    -0.613621999252
    C           -1.110323016770     2.184023021525     0.741433765873
    O            0.201581720568     3.328036825506    -0.893975617932
    C           -1.533597651441     0.713345338263     0.678169676485
    H           -0.250223032431     2.324173611195     1.383340017279
    H           -1.929369275588     2.774717662433     1.145753889023
    C           -0.413150766973    -0.227291070148     0.237378839420
    H           -1.888603838076     0.416339291588     1.659151326259
    H           -2.382515400328     0.611497417641     0.006648228195
    C           -0.858932742625    -1.687700426923     0.220984819851
    H            0.428999158519    -0.103508144298     0.908889562391
    H           -0.062619787390     0.062471295823    -0.749746216815
    C            0.171565198777    -2.731641717665    -0.235405979294
    H           -1.179989824103    -1.946517167072     1.227687723608
    H           -1.740230602812    -1.784893190050    -0.406416586867
    C            1.581668659538    -2.646041942213     0.365869149943
    H            0.223834197054    -2.745761775418    -1.321166808367
    H           -0.246219636018    -3.699074461495     0.027142354385
    C            2.571245481836    -1.779318630300    -0.411571921459
    H            1.989769505996    -3.650227404358     0.413939870156
    H            1.519737564933    -2.304183193422     1.395498266599
    H            2.685481482437    -2.147575663865    -1.425726136665
    H            2.261576050510    -0.744666400569    -0.472238946803
    H            3.548907704314    -1.801653528942     0.057032775295

  Mulliken Charges: (a.u.)
   Center  Symbol    Alpha    Beta     Spin     Total
       1     H     0.46388  0.46388  0.00000  0.07224
       2     C     2.90467  2.90467  0.00000  0.19065
       3     C     3.08937  3.08937  0.00000 -0.17874
       4     O     4.16648  4.16648  0.00000 -0.33295
       5     C     3.11698  3.11698  0.00000 -0.23395
       6     H     0.44289  0.44289  0.00000  0.11423
       7     H     0.44038  0.44038  0.00000  0.11925
       8     C     3.09945  3.09945  0.00000 -0.19890
       9     H     0.44301  0.44301  0.00000  0.11399
      10     H     0.44895  0.44895  0.00000  0.10210
      11     C     3.09573  3.09573  0.00000 -0.19146
      12     H     0.44593  0.44593  0.00000  0.10814
      13     H     0.44636  0.44636  0.00000  0.10729
      14     C     3.09813  3.09813  0.00000 -0.19626
      15     H     0.45233  0.45233  0.00000  0.09534
      16     H     0.44838  0.44838  0.00000  0.10324
      17     C     3.10133  3.10133  0.00000 -0.20267
      18     H     0.45286  0.45286  0.00000  0.09428
      19     H     0.44586  0.44586  0.00000  0.10827
      20     C     3.14962  3.14962  0.00000 -0.29924
      21     H     0.44432  0.44432  0.00000  0.11135
      22     H     0.45203  0.45203  0.00000  0.09594
      23     H     0.45425  0.45425  0.00000  0.09149
      24     H     0.44909  0.44909  0.00000  0.10183
      25     H     0.44773  0.44773  0.00000  0.10453

   Total alpha = 36.00000, Total beta = 36.00000, Total charge =  0.00000

*** Psi4 exiting successfully. Buy a developer a beer!
