                              Psi4 1.0.54 Driver

  ==> Input File <==

--------------------------------------------------------------------------
set {
	reference rhf
	basis cc-pvtz
}

set_num_threads( 4 )
memory 2 gb

molecule MOL {
0 1

H	 -4.082671	 0.305860	 0.970942
O	 -3.370356	 -0.248173	 0.710462
C	 -2.302264	 0.528872	 0.237390
C	 -1.175688	 -0.398187	 -0.171891
H	 -2.616038	 1.129130	 -0.614084
H	 -1.957104	 1.212374	 1.010383
C	 0.196029	 0.106276	 0.266738
H	 -1.201873	 -0.515469	 -1.250677
H	 -1.365975	 -1.378728	 0.252664
C	 1.330220	 -0.826136	 -0.155230
H	 0.359542	 1.097229	 -0.145561
H	 0.212134	 0.218135	 1.348778
C	 2.719700	 -0.407669	 0.328325
H	 1.339388	 -0.911200	 -1.239363
H	 1.119001	 -1.821953	 0.224128
C	 3.241564	 0.893452	 -0.276737
H	 3.418299	 -1.204729	 0.093035
H	 2.711776	 -0.323368	 1.411960
H	 3.254204	 0.841071	 -1.360784
H	 2.634460	 1.745075	 0.005842
H	 4.254264	 1.092401	 0.054971

	symmetry c1
}
set optking {
	frozen_dihedral = ("
		2 3 4 8
	")
}

ee,wfn = optimize('scf', return_wfn=True)
oeprop( wfn, 'DIPOLE', 'QUADRUPOLE', 'MULLIKEN_CHARGES')
f=open( 'psi4out.xyz', 'w' )
f.write( "21  " )
f.write( str(ee) + "\n" )
f.write( MOL.save_string_xyz() )
f.close()
--------------------------------------------------------------------------

    Molecular point group: c1
  Charge       = 0
  Multiplicity = 1
  Basis Set: CC-PVTZ
  Basis Set:
  @DF-RHF Final Energy:  -310.32814976215775
    Total Energy =                       -310.3281497621580911
    Molecular point group: c1
  Basis Set: CC-PVTZ
  Basis Set:
  Basis Set: CC-PVTZ
  Basis Set:
  @DF-RHF Final Energy:  -310.32849485956450
    Total Energy =                       -310.3284948595645574
  Basis Set: CC-PVTZ
  Basis Set:
  Basis Set: CC-PVTZ
  Basis Set:
  @DF-RHF Final Energy:  -310.32857622578973
    Total Energy =                       -310.3285762257899023
  Basis Set: CC-PVTZ
  Basis Set:
  Charge       = 0
  Multiplicity = 1
  Basis Set: CC-PVTZ
  Basis Set:

    Orbital Energies (a.u.)
    -----------------------

    Doubly Occupied:

       1A    -20.545210     2A    -11.265249     3A    -11.212593
       4A    -11.212116     5A    -11.210425     6A    -11.209055
       7A    -11.205822     8A     -1.362374     9A     -1.086248
      10A     -1.032689    11A     -0.954253    12A     -0.876326
      13A     -0.807944    14A     -0.778680    15A     -0.702003
      16A     -0.649480    17A     -0.629151    18A     -0.603618
      19A     -0.586592    20A     -0.574245    21A     -0.536358
      22A     -0.523441    23A     -0.509657    24A     -0.485661
      25A     -0.483525    26A     -0.460724    27A     -0.455225
      28A     -0.445774    29A     -0.430659

  @DF-RHF Final Energy:  -310.32857609759623

   => Energetics <=

    Nuclear Repulsion Energy =            312.9313748974540772
    One-Electron Energy =               -1040.8497143101619713
    Two-Electron Energy =                 417.5897633151118384
    DFT Exchange-Correlation Energy =       0.0000000000000000
    Empirical Dispersion Energy =           0.0000000000000000
    PCM Polarization Energy =               0.0000000000000000
    EFP Energy =                            0.0000000000000000
    Total Energy =                       -310.3285760975959988
    Molecular point group: c1
  Basis Set: CC-PVTZ
  Basis Set:

  -Total Gradient:
     Atom            X                  Y                   Z
    ------   -----------------  -----------------  -----------------
       1       -0.000030449294     0.000017862411     0.000025564248
       2        0.001116966747     0.000187444387     0.002691228290
       3       -0.000942967606     0.000521843194    -0.003590550458
       4       -0.002485604939    -0.003855963178     0.001303833948
       5       -0.000018810346    -0.000024677517     0.000010926404
       6        0.000021163746    -0.000003200143     0.000010106443
       7       -0.000054307077    -0.000007161513    -0.000046006557
       8        0.002365356220     0.003079150557    -0.000429690213
       9       -0.000033064025     0.000030848223     0.000017486696
      10        0.000001862115     0.000057702038    -0.000042641942
      11       -0.000042062030    -0.000073071485    -0.000006006256
      12        0.000008683838     0.000056208243     0.000029072855
      13       -0.000033633749     0.000037045258     0.000084718670
      14       -0.000010189267     0.000033373202    -0.000009264997
      15        0.000025200730    -0.000021701155    -0.000036220218
      16        0.000033564068    -0.000014788200    -0.000016689528
      17        0.000014655487    -0.000005089062     0.000030935247
      18       -0.000014998540     0.000025725564     0.000001698481
      19       -0.000013137984     0.000015315084    -0.000018991613
      20        0.000086234943    -0.000034922510     0.000011427732
      21        0.000005536952    -0.000021943398    -0.000020937232

  **** Optimization is complete! (in 4 steps) ****
    Final optimized geometry and variables:
    Molecular point group: c1

    Geometry (in Angstrom), charge = 0, multiplicity = 1:

    H           -4.141385251067     0.323698087273     0.789819003559
    O           -3.410017457315    -0.231621282070     0.591462747289
    C           -2.337035750356     0.538983513076     0.112549107732
    C           -1.194365080214    -0.394390069020    -0.286261834544
    H           -2.649065779571     1.144686315979    -0.733655751677
    H           -2.000894716197     1.218752553556     0.891782362064
    C            0.179018459144     0.136461869508     0.122503856810
    H           -1.196163577670    -0.537336143053    -1.361979594088
    H           -1.372013590165    -1.357853440582     0.174544276746
    C            1.321354728551    -0.772509366101    -0.325441038102
    H            0.313826028697     1.131806947485    -0.291291145908
    H            0.211568824024     0.247729209557     1.203801947066
    C            2.710202298501    -0.342832400251     0.150406298533
    H            1.321206859288    -0.841862553891    -1.410912909317
    H            1.127296603988    -1.776772072913     0.041011318357
    C            3.212548495917     0.969215795925    -0.447365496759
    H            3.415835925783    -1.129731152020    -0.097723838080
    H            2.710258985477    -0.268187301139     1.234657866336
    H            3.211894494424     0.928403520925    -1.532024696414
    H            2.601443792214     1.812129426221    -0.147961500832
    H            4.227562187251     1.173953859358    -0.126462122379

  Mulliken Charges: (a.u.)
   Center  Symbol    Alpha    Beta     Spin     Total
       1     H     0.39584  0.39584  0.00000  0.20832
       2     O     4.19654  4.19654  0.00000 -0.39308
       3     C     2.96438  2.96438  0.00000  0.07124
       4     C     3.08768  3.08768  0.00000 -0.17535
       5     H     0.47257  0.47257  0.00000  0.05486
       6     H     0.47596  0.47596  0.00000  0.04809
       7     C     3.10139  3.10139  0.00000 -0.20277
       8     H     0.45486  0.45486  0.00000  0.09028
       9     H     0.44410  0.44410  0.00000  0.11180
      10     C     3.09619  3.09619  0.00000 -0.19239
      11     H     0.45368  0.45368  0.00000  0.09265
      12     H     0.45330  0.45330  0.00000  0.09340
      13     C     3.08989  3.08989  0.00000 -0.17978
      14     H     0.45405  0.45405  0.00000  0.09190
      15     H     0.44833  0.44833  0.00000  0.10333
      16     C     3.15227  3.15227  0.00000 -0.30454
      17     H     0.44856  0.44856  0.00000  0.10288
      18     H     0.45458  0.45458  0.00000  0.09083
      19     H     0.45509  0.45509  0.00000  0.08981
      20     H     0.45423  0.45423  0.00000  0.09153
      21     H     0.44651  0.44651  0.00000  0.10697

   Total alpha = 29.00000, Total beta = 29.00000, Total charge = -0.00000

*** Psi4 exiting successfully. Buy a developer a beer!
