  ==> Input File <==

--------------------------------------------------------------------------
set {
	reference rhf
	basis cc-pvtz
}

set_num_threads( 4 )
memory 2 gb

molecule MOL {
0 1

H	 1.994877	 0.067648	 0.725780
C	 1.135054	 -0.484965	 0.412962
C	 1.127913	 -1.865065	 0.410338
C	 0.000000	 0.179985	 0.000046
H	 2.000659	 -2.400815	 0.727828
C	 -0.000001	 -2.552036	 -0.000007
N	 0.000000	 1.644631	 0.000076
C	 -1.135053	 -0.484948	 -0.412899
H	 -0.000000	 -3.625035	 -0.000032
C	 -1.127914	 -1.865048	 -0.410328
O	 1.050559	 2.194174	 -0.000073
O	 -1.050559	 2.194174	 -0.000074
H	 -1.994880	 0.067677	 -0.725686
H	 -2.000659	 -2.400786	 -0.727844

	symmetry c1
}
set optking {
	frozen_dihedral = ("
		2 4 7 11
	")
}

ee = optimize('scf')
oeprop('DIPOLE', 'QUADRUPOLE', 'MULLIKEN_CHARGES')
f=open( 'psi4out.xyz', 'w' )
f.write( "14  " )
f.write( str(ee) + "\n" )
f.write( MOL.save_string_xyz() )
f.close()
--------------------------------------------------------------------------

    Molecular point group: c1
  Charge       = 0
  Multiplicity = 1
  Basis Set: CC-PVTZ
  Basis Set:
  @DF-RHF Final Energy:  -434.32936079654110
    Total Energy =                       -434.3293607965412093
    Molecular point group: c1
  Basis Set: CC-PVTZ
  Basis Set:
  Basis Set: CC-PVTZ
  Basis Set:
  @DF-RHF Final Energy:  -434.32365727596488
    Total Energy =                       -434.3236572759653882
  Basis Set: CC-PVTZ
  Basis Set:
  Basis Set: CC-PVTZ
  Basis Set:
  @DF-RHF Final Energy:  -434.32931233993446
    Total Energy =                       -434.3293123399347451
  Basis Set: CC-PVTZ
  Basis Set:
  Basis Set: CC-PVTZ
  Basis Set:
  @DF-RHF Final Energy:  -434.32943325825170
    Total Energy =                       -434.3294332582515835
  Basis Set: CC-PVTZ
  Basis Set:
  Basis Set: CC-PVTZ
  Basis Set:
  @DF-RHF Final Energy:  -434.32943380862679
    Total Energy =                       -434.3294338086268453
  Basis Set: CC-PVTZ
  Basis Set:
  Charge       = 0
  Multiplicity = 1
  Basis Set: CC-PVTZ
  Basis Set:

    Orbital Energies (a.u.)
    -----------------------

    Doubly Occupied:

       1A    -20.592316     2A    -20.592255     3A    -15.847615
       4A    -11.302824     5A    -11.267460     6A    -11.267389
       7A    -11.264381     8A    -11.258531     9A    -11.258381
      10A     -1.641349    11A     -1.423884    12A     -1.204908
      13A     -1.096014    14A     -1.055372    15A     -0.959515
      16A     -0.868115    17A     -0.829135    18A     -0.788883
      19A     -0.740615    20A     -0.735371    21A     -0.712457
      22A     -0.658973    23A     -0.651886    24A     -0.626438
      25A     -0.556170    26A     -0.542178    27A     -0.531668
      28A     -0.493272    29A     -0.491337    30A     -0.457258
      31A     -0.377023    32A     -0.369559

  @DF-RHF Final Energy:  -434.32943490220902

   => Energetics <=

    Nuclear Repulsion Energy =            418.2146563346389598
    One-Electron Energy =               -1420.1631259908924676
    Two-Electron Energy =                 567.6190347540442644
    DFT Exchange-Correlation Energy =       0.0000000000000000
    Empirical Dispersion Energy =           0.0000000000000000
    PCM Polarization Energy =               0.0000000000000000
    EFP Energy =                            0.0000000000000000
    Total Energy =                       -434.3294349022093002
    Molecular point group: c1
  Basis Set: CC-PVTZ
  Basis Set:

  -Total Gradient:
     Atom            X                  Y                   Z
    ------   -----------------  -----------------  -----------------
       1        0.000001238454    -0.000001140833    -0.000002514875
       2       -0.000621780923    -0.000023159392     0.001675336941
       3        0.000007433146     0.000005090424    -0.000010952760
       4        0.000897479037     0.000037890491    -0.003175090997
       5       -0.000000004927     0.000000308981     0.000001735603
       6       -0.000005464163    -0.000001207537    -0.000004636009
       7       -0.000293053817    -0.000032214426     0.003549520720
       8        0.000008544472     0.000004955655    -0.000010709787
       9        0.000000509536     0.000000509666     0.000000727432
      10       -0.000001754286    -0.000006316470     0.000014773110
      11        0.000023853193     0.000015638133    -0.002036370722
      12       -0.000015889452    -0.000000800674    -0.000000456864
      13       -0.000001005962    -0.000000996708     0.000001001468
      14       -0.000000104312     0.000001442689    -0.000002363261

  **** Optimization is complete! (in 6 steps) ****
    Final optimized geometry and variables:
    Molecular point group: c1

    Geometry (in Angstrom), charge = 0, multiplicity = 1:

    H            1.999426647535     0.070391586916     0.712973926121
    C            1.137561001706    -0.483238542336     0.406143685722
    C            1.127079203927    -1.863385127351     0.412669701721
    C            0.003666457474     0.180022142861    -0.010058603771
    H            1.996611308325    -2.399439059673     0.738341650258
    C           -0.000231534042    -2.549977786915     0.000160849206
    N           -0.000307447287     1.643057376886     0.004471444433
    C           -1.136251890268    -0.482902750985    -0.410109418399
    H           -0.001216481907    -3.622914010073     0.002400503991
    C           -1.127263347404    -1.863045864030    -0.412766654545
    O            1.050046682511     2.193231542606     0.018702507798
    O           -1.052916334481     2.188631019143    -0.012800272402
    H           -1.999931852345     0.070707979564    -0.711611238897
    H           -1.999368227722    -2.398989774932    -0.731680847293

  Mulliken Charges: (a.u.)
   Center  Symbol    Alpha    Beta     Spin     Total
       1     H     0.40098  0.40098  0.00000  0.19803
       2     C     3.07939  3.07939  0.00000 -0.15877
       3     C     3.07204  3.07204  0.00000 -0.14408
       4     C     2.97006  2.97006  0.00000  0.05988
       5     H     0.41696  0.41696  0.00000  0.16609
       6     C     3.06529  3.06529  0.00000 -0.13058
       7     N     3.25849  3.25849  0.00000  0.48302
       8     C     3.07902  3.07902  0.00000 -0.15805
       9     H     0.41714  0.41714  0.00000  0.16573
      10     C     3.07179  3.07179  0.00000 -0.14359
      11     O     4.17534  4.17534  0.00000 -0.35068
      12     O     4.17547  4.17547  0.00000 -0.35094
      13     H     0.40105  0.40105  0.00000  0.19789
      14     H     0.41697  0.41697  0.00000  0.16605

   Total alpha = 32.00000, Total beta = 32.00000, Total charge = -0.00000
