  ==> Input File <==

--------------------------------------------------------------------------
set {
	reference rhf
	basis 6-31G*
}

set_num_threads( 1 )
memory 2 gb

molecule MOL {
0 1

H	 3.893188	 0.355400	 -0.101367
N	 3.092854	 -0.246221	 -0.068770
C	 1.865559	 0.531981	 0.018834
H	 3.199514	 -0.826043	 0.741946
C	 0.645745	 -0.382037	 -0.029944
H	 1.841966	 1.207024	 -0.831236
H	 1.815756	 1.155410	 0.915079
C	 -0.679275	 0.379305	 0.025956
H	 0.698998	 -0.976915	 -0.937203
H	 0.693479	 -1.083846	 0.802235
C	 -1.130897	 0.903939	 -1.338291
H	 -0.585883	 1.215722	 0.716995
H	 -1.454349	 -0.267495	 0.434314
C	 -2.453266	 1.667548	 -1.277037
H	 -0.358651	 1.551455	 -1.747649
H	 -1.227618	 0.070005	 -2.030284
H	 -2.378699	 2.528437	 -0.618533
H	 -2.746264	 2.026940	 -2.258665
H	 -3.254280	 1.035614	 -0.903639

	symmetry c1
}
set optking {
	frozen_dihedral = ("
		6 3 5 9,
		12 8 11 15,
		1 2 3 6
	")
}

ee = energy('scf')
oeprop('DIPOLE', 'QUADRUPOLE', 'MULLIKEN_CHARGES')
f=open( 'psi4out.xyz', 'w' )
f.write( "19  " )
f.write( str(ee) + "\n" )
f.write( MOL.save_string_xyz() )
f.close()
--------------------------------------------------------------------------

    Molecular point group: c1

    Geometry (in Angstrom), charge = 0, multiplicity = 1:

       Center              X                  Y                   Z               Mass
    ------------   -----------------  -----------------  -----------------  -----------------
           H          3.635772956802    -0.124656492461     0.335260014162     1.007825032070
           N          2.835438956802    -0.726277492461     0.367857014162    14.003074004780
           C          1.608143956802     0.051924507539     0.455461014162    12.000000000000
           H          2.942098956802    -1.306099492461     1.178573014162     1.007825032070
           C          0.388329956802    -0.862093492461     0.406683014162    12.000000000000
           H          1.584550956802     0.726967507539    -0.394608985838     1.007825032070
           H          1.558340956802     0.675353507539     1.351706014162     1.007825032070
           C         -0.936690043198    -0.100751492461     0.462583014162    12.000000000000
           H          0.441582956802    -1.456971492461    -0.500575985838     1.007825032070
           H          0.436063956802    -1.563902492461     1.238862014162     1.007825032070
           C         -1.388312043198     0.423882507539    -0.901663985838    12.000000000000
           H         -0.843298043198     0.735665507539     1.153622014162     1.007825032070
           H         -1.711764043198    -0.747551492461     0.870941014162     1.007825032070
           C         -2.710681043198     1.187491507539    -0.840409985838    12.000000000000
           H         -0.616066043198     1.071398507539    -1.311021985838     1.007825032070
           H         -1.485033043198    -0.410051492461    -1.593656985838     1.007825032070
           H         -2.636114043198     2.048380507539    -0.181905985838     1.007825032070
           H         -3.003679043198     1.546883507539    -1.822037985838     1.007825032070
           H         -3.511695043198     0.555557507539    -0.467011985838     1.007825032070

  Charge       = 0
  Multiplicity = 1
  Basis Set: 6-31G*
  Basis Set:

    Orbital Energies (a.u.)
    -----------------------

    Doubly Occupied:

       1A    -15.532501     2A    -11.239671     3A    -11.213347
       4A    -11.212077     5A    -11.208889     6A    -11.207228
       7A     -1.176677     8A     -1.073299     9A     -0.996947
      10A     -0.898930    11A     -0.824111    12A     -0.780626
      13A     -0.661845    14A     -0.635343    15A     -0.621038
      16A     -0.590815    17A     -0.570102    18A     -0.548745
      19A     -0.525937    20A     -0.498734    21A     -0.489007
      22A     -0.464945    23A     -0.454326    24A     -0.446362
      25A     -0.381366

  @DF-RHF Final Energy:  -251.34917646331206

   => Energetics <=

    Nuclear Repulsion Energy =            248.7366184936036575
    One-Electron Energy =                -831.6658192356194377
    Two-Electron Energy =                 331.5800242787043999
    DFT Exchange-Correlation Energy =       0.0000000000000000
    Empirical Dispersion Energy =           0.0000000000000000
    PCM Polarization Energy =               0.0000000000000000
    EFP Energy =                            0.0000000000000000
    Total Energy =                       -251.3491764633114371

  Mulliken Charges: (a.u.)
   Center  Symbol    Alpha    Beta     Spin     Total
       1     H     0.33258  0.33258  0.00000  0.33484
       2     N     3.92190  3.92190  0.00000 -0.84380
       3     C     3.06136  3.06136  0.00000 -0.12272
       4     H     0.33533  0.33533  0.00000  0.32935
       5     C     3.15419  3.15419  0.00000 -0.30838
       6     H     0.42009  0.42009  0.00000  0.15982
       7     H     0.43445  0.43445  0.00000  0.13109
       8     C     3.15771  3.15771  0.00000 -0.31542
       9     H     0.41249  0.41249  0.00000  0.17501
      10     H     0.42541  0.42541  0.00000  0.14919
      11     C     3.15232  3.15232  0.00000 -0.30464
      12     H     0.42452  0.42452  0.00000  0.15097
      13     H     0.42080  0.42080  0.00000  0.15841
      14     C     3.23914  3.23914  0.00000 -0.47828
      15     H     0.42263  0.42263  0.00000  0.15474
      16     H     0.42135  0.42135  0.00000  0.15729
      17     H     0.42241  0.42241  0.00000  0.15517
      18     H     0.41944  0.41944  0.00000  0.16113
      19     H     0.42188  0.42188  0.00000  0.15623

   Total alpha = 25.00000, Total beta = 25.00000, Total charge =  0.00000
