  ==> Input File <==

--------------------------------------------------------------------------
set {
	reference rhf
	basis 6-31G*
}

set_num_threads( 1 )
memory 2 gb

molecule MOL {
0 1

O	 -2.042549	 -1.228399	 -0.269030
C	 -1.653912	 -0.146171	 0.050137
C	 -0.332303	 0.024011	 0.778412
C	 -2.438579	 1.106236	 -0.272369
C	 0.830382	 -0.537217	 -0.055290
H	 -0.153631	 1.071657	 1.004016
H	 -0.401028	 -0.517264	 1.715546
C	 2.178590	 -0.413405	 0.656072
H	 0.880892	 -0.019599	 -1.011639
H	 0.625684	 -1.580421	 -0.276571
C	 3.335361	 -0.978864	 -0.166939
H	 2.373047	 0.632607	 0.882940
H	 2.127650	 -0.930121	 1.611571
H	 3.433509	 -0.458820	 -1.115608
H	 3.184600	 -2.032689	 -0.381803
H	 4.277447	 -0.880402	 0.362972
H	 -3.277823	 0.863061	 -0.908988
H	 -1.806773	 1.843019	 -0.759671
H	 -2.802853	 1.554979	 0.648059

	symmetry c1
}
set optking {
	frozen_dihedral = ("
		11 8 5 9,
		9 5 3 2
	")
}

ee = energy('scf')
oeprop('DIPOLE', 'QUADRUPOLE', 'MULLIKEN_CHARGES')
f=open( 'psi4out.xyz', 'w' )
f.write( "19  " )
f.write( str(ee) + "\n" )
f.write( MOL.save_string_xyz() )
f.close()
--------------------------------------------------------------------------

    Molecular point group: c1

    Geometry (in Angstrom), charge = 0, multiplicity = 1:

       Center              X                  Y                   Z               Mass
    ------------   -----------------  -----------------  -----------------  -----------------
           O         -2.031468816384    -0.914172054340    -0.362565375297    15.994914619560
           C         -1.642831816384     0.168055945660    -0.043398375297    12.000000000000
           C         -0.321222816384     0.338237945660     0.684876624703    12.000000000000
           C         -2.427498816384     1.420462945660    -0.365904375297    12.000000000000
           C          0.841462183616    -0.222990054340    -0.148825375297    12.000000000000
           H         -0.142550816384     1.385883945660     0.910480624703     1.007825032070
           H         -0.389947816384    -0.203037054340     1.622010624703     1.007825032070
           C          2.189670183616    -0.099178054340     0.562536624703    12.000000000000
           H          0.891972183616     0.294627945660    -1.105174375297     1.007825032070
           H          0.636764183616    -1.266194054340    -0.370106375297     1.007825032070
           C          3.346441183616    -0.664637054340    -0.260474375297    12.000000000000
           H          2.384127183616     0.946833945660     0.789404624703     1.007825032070
           H          2.138730183616    -0.615894054340     1.518035624703     1.007825032070
           H          3.444589183616    -0.144593054340    -1.209143375297     1.007825032070
           H          3.195680183616    -1.718462054340    -0.475338375297     1.007825032070
           H          4.288527183616    -0.566175054340     0.269436624703     1.007825032070
           H         -3.266742816384     1.177287945660    -1.002523375297     1.007825032070
           H         -1.795692816384     2.157245945660    -0.853206375297     1.007825032070
           H         -2.791772816384     1.869205945660     0.554523624703     1.007825032070

  Charge       = 0
  Multiplicity = 1
  Basis Set: 6-31G*
  Basis Set:

    Orbital Energies (a.u.)
    -----------------------

    Doubly Occupied:

       1A    -20.547855     2A    -11.325404     3A    -11.230043
       4A    -11.228519     5A    -11.225757     6A    -11.222228
       7A    -11.212788     8A     -1.393988     9A     -1.088339
      10A     -1.028911    11A     -0.984102    12A     -0.887962
      13A     -0.803799    14A     -0.732581    15A     -0.661946
      16A     -0.646232    17A     -0.622270    18A     -0.612079
      19A     -0.582178    20A     -0.572843    21A     -0.552437
      22A     -0.535623    23A     -0.514388    24A     -0.494305
      25A     -0.478689    26A     -0.473495    27A     -0.466291
      28A     -0.397460

  @DF-RHF Final Energy:  -309.06501411989575

   => Energetics <=

    Nuclear Repulsion Energy =            301.1771068141648584
    One-Electron Energy =               -1015.4394825580532142
    Two-Electron Energy =                 405.1973616239922080
    DFT Exchange-Correlation Energy =       0.0000000000000000
    Empirical Dispersion Energy =           0.0000000000000000
    PCM Polarization Energy =               0.0000000000000000
    EFP Energy =                            0.0000000000000000
    Total Energy =                       -309.0650141198961478

  Mulliken Charges: (a.u.)
   Center  Symbol    Alpha    Beta     Spin     Total
       1     O     4.26363  4.26363  0.00000 -0.52725
       2     C     2.73529  2.73529  0.00000  0.52943
       3     C     3.20308  3.20308  0.00000 -0.40615
       4     C     3.28948  3.28948  0.00000 -0.57895
       5     C     3.15752  3.15752  0.00000 -0.31503
       6     H     0.41630  0.41630  0.00000  0.16739
       7     H     0.40182  0.40182  0.00000  0.19636
       8     C     3.15226  3.15226  0.00000 -0.30451
       9     H     0.42097  0.42097  0.00000  0.15806
      10     H     0.40357  0.40357  0.00000  0.19287
      11     C     3.24001  3.24001  0.00000 -0.48002
      12     H     0.42344  0.42344  0.00000  0.15313
      13     H     0.42080  0.42080  0.00000  0.15840
      14     H     0.42111  0.42111  0.00000  0.15779
      15     H     0.41883  0.41883  0.00000  0.16234
      16     H     0.41817  0.41817  0.00000  0.16367
      17     H     0.39732  0.39732  0.00000  0.20536
      18     H     0.40976  0.40976  0.00000  0.18048
      19     H     0.40667  0.40667  0.00000  0.18665

   Total alpha = 28.00000, Total beta = 28.00000, Total charge =  0.00000
