  ==> Input File <==

--------------------------------------------------------------------------
set {
	reference rhf
	basis 6-31G*
}

set_num_threads( 1 )
memory 2 gb

molecule MOL {
0 1

O	 -0.940962	 1.557135	 2.354583
C	 -0.609338	 1.864630	 1.250089
C	 0.642605	 1.278223	 0.621542
C	 -1.428446	 2.821195	 0.412580
C	 0.379448	 -0.143569	 0.099626
H	 1.410728	 1.246437	 1.386580
H	 0.996651	 1.911077	 -0.187268
C	 1.631333	 -0.777471	 -0.511575
H	 0.011322	 -0.743658	 0.924103
H	 -0.411212	 -0.118682	 -0.648694
C	 2.915987	 -0.544314	 0.291766
H	 1.766672	 -0.399098	 -1.523130
H	 1.471257	 -1.849544	 -0.605828
C	 3.373361	 0.914346	 0.347591
H	 3.708709	 -1.142521	 -0.150311
H	 2.780642	 -0.921148	 1.303579
H	 3.506512	 1.320010	 -0.651625
H	 4.322697	 0.999599	 0.867103
H	 2.660624	 1.545032	 0.868198
H	 -0.863921	 3.734515	 0.243989
H	 -2.352963	 3.059162	 0.919950
H	 -1.642155	 2.392503	 -0.562281

	symmetry c1
}
set optking {
	frozen_dihedral = ("
		6 3 2 1,
		6 3 5 8,
		12 8 11 15
	")
}

ee = energy('scf')
oeprop('DIPOLE', 'QUADRUPOLE', 'MULLIKEN_CHARGES')
f=open( 'psi4out.xyz', 'w' )
f.write( "22  " )
f.write( str(ee) + "\n" )
f.write( MOL.save_string_xyz() )
f.close()
--------------------------------------------------------------------------

    Molecular point group: c1

    Geometry (in Angstrom), charge = 0, multiplicity = 1:

       Center              X                  Y                   Z               Mass
    ------------   -----------------  -----------------  -----------------  -----------------
           O         -1.688612341167     0.672132434617     1.741090445315    15.994914619560
           C         -1.356988341167     0.979627434617     0.636596445315    12.000000000000
           C         -0.105045341167     0.393220434617     0.008049445315    12.000000000000
           C         -2.176096341167     1.936192434617    -0.200912554685    12.000000000000
           C         -0.368202341167    -1.028571565383    -0.513866554685    12.000000000000
           H          0.663077658833     0.361434434617     0.773087445315     1.007825032070
           H          0.249000658833     1.026074434617    -0.800760554685     1.007825032070
           C          0.883682658833    -1.662473565383    -1.125067554685    12.000000000000
           H         -0.736328341167    -1.628660565383     0.310610445315     1.007825032070
           H         -1.158862341167    -1.003684565383    -1.262186554685     1.007825032070
           C          2.168336658833    -1.429316565383    -0.321726554685    12.000000000000
           H          1.019021658833    -1.284100565383    -2.136622554685     1.007825032070
           H          0.723606658833    -2.734546565383    -1.219320554685     1.007825032070
           C          2.625710658833     0.029343434617    -0.265901554685    12.000000000000
           H          2.961058658833    -2.027523565383    -0.763803554685     1.007825032070
           H          2.032991658833    -1.806150565383     0.690086445315     1.007825032070
           H          2.758861658833     0.435007434617    -1.265117554685     1.007825032070
           H          3.575046658833     0.114596434617     0.253610445315     1.007825032070
           H          1.912973658833     0.660029434617     0.254705445315     1.007825032070
           H         -1.611571341167     2.849512434617    -0.369503554685     1.007825032070
           H         -3.100613341167     2.174159434617     0.306457445315     1.007825032070
           H         -2.389805341167     1.507500434617    -1.175773554685     1.007825032070

  Charge       = 0
  Multiplicity = 1
  Basis Set: 6-31G*
  Basis Set:

    Orbital Energies (a.u.)
    -----------------------

    Doubly Occupied:

       1A    -20.546115     2A    -11.322482     3A    -11.230490
       4A    -11.227407     5A    -11.225822     6A    -11.222699
       7A    -11.221180     8A    -11.205818     9A     -1.391995
      10A     -1.103850    11A     -1.037177    12A     -0.996471
      13A     -0.955926    14A     -0.852346    15A     -0.786767
      16A     -0.741160    17A     -0.669736    18A     -0.656533
      19A     -0.624717    20A     -0.601753    21A     -0.593730
      22A     -0.591718    23A     -0.559655    24A     -0.557489
      25A     -0.537407    26A     -0.524115    27A     -0.496294
      28A     -0.482105    29A     -0.468397    30A     -0.467601
      31A     -0.444309    32A     -0.392227

  @DF-RHF Final Energy:  -348.06482865901461

   => Energetics <=

    Nuclear Repulsion Energy =            387.6382402632266917
    One-Electron Energy =               -1239.9352016327657111
    Two-Electron Energy =                 504.2321327105238424
    DFT Exchange-Correlation Energy =       0.0000000000000000
    Empirical Dispersion Energy =           0.0000000000000000
    PCM Polarization Energy =               0.0000000000000000
    EFP Energy =                            0.0000000000000000
    Total Energy =                       -348.0648286590152338

  Mulliken Charges: (a.u.)
   Center  Symbol    Alpha    Beta     Spin     Total
       1     O     4.26360  4.26360  0.00000 -0.52719
       2     C     2.73201  2.73201  0.00000  0.53599
       3     C     3.21988  3.21988  0.00000 -0.43977
       4     C     3.28978  3.28978  0.00000 -0.57956
       5     C     3.15764  3.15764  0.00000 -0.31527
       6     H     0.39296  0.39296  0.00000  0.21408
       7     H     0.41252  0.41252  0.00000  0.17496
       8     C     3.15393  3.15393  0.00000 -0.30786
       9     H     0.40536  0.40536  0.00000  0.18929
      10     H     0.41873  0.41873  0.00000  0.16254
      11     C     3.16091  3.16091  0.00000 -0.32182
      12     H     0.42276  0.42276  0.00000  0.15447
      13     H     0.41639  0.41639  0.00000  0.16721
      14     C     3.24337  3.24337  0.00000 -0.48675
      15     H     0.41666  0.41666  0.00000  0.16667
      16     H     0.41920  0.41920  0.00000  0.16160
      17     H     0.42291  0.42291  0.00000  0.15419
      18     H     0.41839  0.41839  0.00000  0.16322
      19     H     0.41821  0.41821  0.00000  0.16359
      20     H     0.40752  0.40752  0.00000  0.18497
      21     H     0.39727  0.39727  0.00000  0.20547
      22     H     0.41002  0.41002  0.00000  0.17997

   Total alpha = 32.00000, Total beta = 32.00000, Total charge =  0.00000
