                              Psi4 1.0.54 Driver

  ==> Input File <==

--------------------------------------------------------------------------
set {
	reference rhf
	basis cc-pvtz
}

set_num_threads( 4 )
memory 2 gb

molecule MOL {
0 1

H	 2.867608	 -0.456266	 0.875795
C	 2.403433	 -0.020417	 0.000000
N	 0.989835	 -0.304555	 0.000000
H	 2.867608	 -0.456266	 -0.875795
H	 2.620302	 1.051279	 -0.000000
C	 0.326982	 0.185016	 -1.191014
C	 0.326982	 0.185016	 1.191014
H	 0.417417	 1.272003	 -1.280596
H	 0.792418	 -0.255915	 -2.064900
C	 -1.142169	 -0.190352	 -1.160412
H	 0.792418	 -0.255915	 2.064900
H	 0.417417	 1.272003	 1.280596
C	 -1.142169	 -0.190352	 1.160412
H	 -1.663534	 0.249235	 -1.999202
H	 -1.242357	 -1.272228	 -1.220460
O	 -1.759697	 0.282140	 0.000000
H	 -1.663534	 0.249235	 1.999202
H	 -1.242357	 -1.272228	 1.220460

	symmetry c1
}
ee,wfn = energy('scf', return_wfn=True)
oeprop( wfn, 'DIPOLE', 'QUADRUPOLE', 'MULLIKEN_CHARGES')
oeprop( wfn, 'GRID_ESP')
f=open( 'psi4out.xyz', 'w' )
f.write( "18  " )
f.write( str(ee) + "\n" )
f.write( MOL.save_string_xyz() )
f.close()
--------------------------------------------------------------------------

    Molecular point group: c1

    Geometry (in Angstrom), charge = 0, multiplicity = 1:

       Center              X                  Y                   Z               Mass
    ------------   -----------------  -----------------  -----------------  -----------------
           H          2.867672478043    -0.456275355018     0.875795000000     1.007825032070
           C          2.403497478043    -0.020426355018     0.000000000000    12.000000000000
           N          0.989899478043    -0.304564355018     0.000000000000    14.003074004780
           H          2.867672478043    -0.456275355018    -0.875795000000     1.007825032070
           H          2.620366478043     1.051269644982     0.000000000000     1.007825032070
           C          0.327046478043     0.185006644982    -1.191014000000    12.000000000000
           C          0.327046478043     0.185006644982     1.191014000000    12.000000000000
           H          0.417481478043     1.271993644982    -1.280596000000     1.007825032070
           H          0.792482478043    -0.255924355018    -2.064900000000     1.007825032070
           C         -1.142104521957    -0.190361355018    -1.160412000000    12.000000000000
           H          0.792482478043    -0.255924355018     2.064900000000     1.007825032070
           H          0.417481478043     1.271993644982     1.280596000000     1.007825032070
           C         -1.142104521957    -0.190361355018     1.160412000000    12.000000000000
           H         -1.663469521957     0.249225644982    -1.999202000000     1.007825032070
           H         -1.242292521957    -1.272237355018    -1.220460000000     1.007825032070
           O         -1.759632521957     0.282130644982     0.000000000000    15.994914619560
           H         -1.663469521957     0.249225644982     1.999202000000     1.007825032070
           H         -1.242292521957    -1.272237355018     1.220460000000     1.007825032070

  Charge       = 0
  Multiplicity = 1
  Basis Set: CC-PVTZ
  Basis Set:

    Orbital Energies (a.u.)
    -----------------------

    Doubly Occupied:

       1A    -20.547619     2A    -15.544563     3A    -11.264423
       4A    -11.264402     5A    -11.242537     6A    -11.242524
       7A    -11.239230     8A     -1.386542     9A     -1.234329
      10A     -1.039280    11A     -0.982210    12A     -0.884162
      13A     -0.869561    14A     -0.774669    15A     -0.685227
      16A     -0.646791    17A     -0.645460    18A     -0.635421
      19A     -0.631215    20A     -0.574325    21A     -0.557200
      22A     -0.540527    23A     -0.527474    24A     -0.501861
      25A     -0.485395    26A     -0.454135    27A     -0.410823
      28A     -0.355847

  @DF-RHF Final Energy:  -325.14584392969402

   => Energetics <=

    Nuclear Repulsion Energy =            341.9768728888028591
    One-Electron Energy =               -1119.9106479753886561
    Two-Electron Energy =                 452.7879311568918865
    DFT Exchange-Correlation Energy =       0.0000000000000000
    Empirical Dispersion Energy =           0.0000000000000000
    PCM Polarization Energy =               0.0000000000000000
    EFP Energy =                            0.0000000000000000
    Total Energy =                       -325.1458439296939105

  Mulliken Charges: (a.u.)
   Center  Symbol    Alpha    Beta     Spin     Total
       1     H     0.45152  0.45152  0.00000  0.09696
       2     C     3.09493  3.09493  0.00000 -0.18986
       3     N     3.61707  3.61707  0.00000 -0.23415
       4     H     0.45152  0.45152  0.00000  0.09696
       5     H     0.46951  0.46951  0.00000  0.06098
       6     C     3.04096  3.04096  0.00000 -0.08191
       7     C     3.04096  3.04096  0.00000 -0.08191
       8     H     0.46882  0.46882  0.00000  0.06235
       9     H     0.45395  0.45395  0.00000  0.09211
      10     C     2.98353  2.98353  0.00000  0.03294
      11     H     0.45395  0.45395  0.00000  0.09211
      12     H     0.46882  0.46882  0.00000  0.06235
      13     C     2.98353  2.98353  0.00000  0.03293
      14     H     0.44971  0.44971  0.00000  0.10059
      15     H     0.46750  0.46750  0.00000  0.06500
      16     O     4.18651  4.18651  0.00000 -0.37303
      17     H     0.44970  0.44970  0.00000  0.10059
      18     H     0.46750  0.46750  0.00000  0.06500

   Total alpha = 28.00000, Total beta = 28.00000, Total charge = -0.00000

*** Psi4 exiting successfully. Buy a developer a beer!
