                              Psi4 1.0.54 Driver

  ==> Input File <==

--------------------------------------------------------------------------
set {
	reference rhf
	basis cc-pvtz
}

set_num_threads( 4 )
memory 2 gb

molecule MOL {
0 1

H	 0.725736	 0.067703	 -1.994834
C	 0.412930	 -0.484933	 -1.135022
C	 0.410334	 -1.865033	 -1.127909
C	 0.000000	 0.179985	 0.000046
H	 0.727835	 -2.400759	 -2.000666
C	 0.000003	 -2.552036	 -0.000009
N	 0.000000	 1.644631	 0.000076
C	 -0.412931	 -0.484980	 1.135086
H	 0.000000	 -3.625035	 -0.000032
C	 -0.410332	 -1.865080	 1.127918
O	 1.050559	 2.194174	 -0.000073
O	 -1.050559	 2.194174	 -0.000074
H	 -0.725730	 0.067622	 1.994923
H	 -0.727837	 -2.400841	 2.000652

	symmetry c1
}
set optking {
	frozen_dihedral = ("
		2 4 7 11
	")
}

ee,wfn = optimize('scf', return_wfn=True)
oeprop( wfn, 'DIPOLE', 'QUADRUPOLE', 'MULLIKEN_CHARGES')
f=open( 'psi4out.xyz', 'w' )
f.write( "14  " )
f.write( str(ee) + "\n" )
f.write( MOL.save_string_xyz() )
f.close()
--------------------------------------------------------------------------

    Molecular point group: c1
  Charge       = 0
  Multiplicity = 1
  Basis Set: CC-PVTZ
  Basis Set:
  @DF-RHF Final Energy:  -434.32124559990103
    Total Energy =                       -434.3212455999008625
    Molecular point group: c1
  Basis Set: CC-PVTZ
  Basis Set:
  Basis Set: CC-PVTZ
  Basis Set:
  @DF-RHF Final Energy:  -434.31466110260271
    Total Energy =                       -434.3146611026028268
  Basis Set: CC-PVTZ
  Basis Set:
  Basis Set: CC-PVTZ
  Basis Set:
  @DF-RHF Final Energy:  -434.32034728737978
    Total Energy =                       -434.3203472873794908
  Basis Set: CC-PVTZ
  Basis Set:
  Basis Set: CC-PVTZ
  Basis Set:
  @DF-RHF Final Energy:  -434.32152505398210
    Total Energy =                       -434.3215250539822136
  Basis Set: CC-PVTZ
  Basis Set:
  Basis Set: CC-PVTZ
  Basis Set:
  @DF-RHF Final Energy:  -434.32155364516120
    Total Energy =                       -434.3215536451610888
  Basis Set: CC-PVTZ
  Basis Set:
  Basis Set: CC-PVTZ
  Basis Set:
  @DF-RHF Final Energy:  -434.32164918028570
    Total Energy =                       -434.3216491802857036
  Basis Set: CC-PVTZ
  Basis Set:
  Charge       = 0
  Multiplicity = 1
  Basis Set: CC-PVTZ
  Basis Set:

    Orbital Energies (a.u.)
    -----------------------

    Doubly Occupied:

       1A    -20.597667     2A    -20.597600     3A    -15.848094
       4A    -11.307401     5A    -11.267624     6A    -11.267439
       7A    -11.260857     8A    -11.260359     9A    -11.258707
      10A     -1.645000    11A     -1.428143    12A     -1.206459
      13A     -1.096767    14A     -1.056810    15A     -0.959308
      16A     -0.874313    17A     -0.831158    18A     -0.786446
      19A     -0.740635    20A     -0.737950    21A     -0.717755
      22A     -0.652815    23A     -0.650683    24A     -0.625956
      25A     -0.561245    26A     -0.551781    27A     -0.533749
      28A     -0.499883    29A     -0.486603    30A     -0.458724
      31A     -0.372228    32A     -0.370511

  @DF-RHF Final Energy:  -434.32164943025299

   => Energetics <=

    Nuclear Repulsion Energy =            417.4853815830131794
    One-Electron Energy =               -1418.5927239167317566
    Two-Electron Energy =                 566.7856929034653604
    DFT Exchange-Correlation Energy =       0.0000000000000000
    Empirical Dispersion Energy =           0.0000000000000000
    PCM Polarization Energy =               0.0000000000000000
    EFP Energy =                            0.0000000000000000
    Total Energy =                       -434.3216494302532737
    Molecular point group: c1
  Basis Set: CC-PVTZ
  Basis Set:

  -Total Gradient:
     Atom            X                  Y                   Z
    ------   -----------------  -----------------  -----------------
       1       -0.000006814266    -0.000000791553     0.000003713856
       2       -0.003720582876    -0.000093972191    -0.001211879058
       3        0.000001393825     0.000019380252    -0.000021511635
       4        0.005504821034     0.000133287381     0.003421956948
       5       -0.000007961163    -0.000001799249    -0.000002654267
       6        0.000006395079    -0.000002230990     0.000023656918
       7       -0.001922928461    -0.000056875693    -0.006707031554
       8        0.000060120235     0.000018223589     0.000022575513
       9        0.000004558639     0.000000613774    -0.000000124733
      10       -0.000040873853    -0.000016391890    -0.000026253903
      11        0.000202476284    -0.000015700778     0.004503609746
      12       -0.000072082587     0.000016205902    -0.000001395747
      13       -0.000004439028    -0.000002942249    -0.000005048449
      14       -0.000004082862     0.000002993695     0.000000386365

  **** Optimization is complete! (in 7 steps) ****
    Final optimized geometry and variables:
    Molecular point group: c1

    Geometry (in Angstrom), charge = 0, multiplicity = 1:

    H            0.714328353964     0.070972725902    -2.006810115511
    C            0.402971929196    -0.479860362380    -1.141834409650
    C            0.375269187191    -1.861070869547    -1.140916470825
    C            0.027647534138     0.178256485801     0.004468968382
    H            0.659557201283    -2.397826033771    -2.024598113254
    C           -0.016493197432    -2.546698125202    -0.006406837182
    N            0.006461541390     1.642683113338    -0.003809458789
    C           -0.393042072070    -0.475874699139     1.137695882789
    H           -0.030134991442    -3.619250702171    -0.009084241905
    C           -0.396223801031    -1.856918463858     1.130241694363
    O            1.051699987388     2.198445436909    -0.050213028256
    O           -1.053177199450     2.167136931087     0.068228075295
    H           -0.707432140709     0.078056732099     1.999406279087
    H           -0.704195801784    -2.391062950962     2.007557613333

  Mulliken Charges: (a.u.)
   Center  Symbol    Alpha    Beta     Spin     Total
       1     H     0.41268  0.41268  0.00000  0.17465
       2     C     3.08688  3.08688  0.00000 -0.17376
       3     C     3.06517  3.06517  0.00000 -0.13035
       4     C     2.92583  2.92583  0.00000  0.14835
       5     H     0.41735  0.41735  0.00000  0.16530
       6     C     3.07594  3.07594  0.00000 -0.15189
       7     N     3.28885  3.28885  0.00000  0.42230
       8     C     3.08588  3.08588  0.00000 -0.17175
       9     H     0.41789  0.41789  0.00000  0.16421
      10     C     3.06485  3.06485  0.00000 -0.12969
      11     O     4.16450  4.16450  0.00000 -0.32900
      12     O     4.16421  4.16421  0.00000 -0.32841
      13     H     0.41265  0.41265  0.00000  0.17471
      14     H     0.41733  0.41733  0.00000  0.16533

   Total alpha = 32.00000, Total beta = 32.00000, Total charge = -0.00000

*** Psi4 exiting successfully. Buy a developer a beer!
