                              Psi4 1.0.54 Driver

  ==> Input File <==

--------------------------------------------------------------------------
set {
	reference rhf
	basis cc-pvtz
}

set_num_threads( 4 )
memory 2 gb

molecule MOL {
0 1

H	 -4.230259	 0.539112	 0.036360
O	 -3.515113	 -0.019339	 -0.206321
C	 -2.302264	 0.528872	 0.237390
C	 -1.175688	 -0.398187	 -0.171891
H	 -2.148018	 1.514076	 -0.197759
H	 -2.310727	 0.646384	 1.319032
C	 0.196029	 0.106276	 0.266738
H	 -1.201873	 -0.515469	 -1.250677
H	 -1.365975	 -1.378728	 0.252664
C	 1.330220	 -0.826136	 -0.155230
H	 0.359542	 1.097229	 -0.145561
H	 0.212134	 0.218135	 1.348778
C	 2.719700	 -0.407669	 0.328325
H	 1.339388	 -0.911200	 -1.239363
H	 1.119001	 -1.821953	 0.224128
C	 2.751439	 0.207047	 1.725635
H	 3.125109	 0.311567	 -0.376692
H	 3.383864	 -1.267548	 0.297828
H	 2.090634	 1.065815	 1.788206
H	 2.447008	 -0.500317	 2.487636
H	 3.751618	 0.542530	 1.975166

	symmetry c1
}
set optking {
	frozen_dihedral = ("
		16 13 10 14
	")
}

ee,wfn = optimize('scf', return_wfn=True)
oeprop( wfn, 'DIPOLE', 'QUADRUPOLE', 'MULLIKEN_CHARGES')
f=open( 'psi4out.xyz', 'w' )
f.write( "21  " )
f.write( str(ee) + "\n" )
f.write( MOL.save_string_xyz() )
f.close()
--------------------------------------------------------------------------

    Molecular point group: c1
  Charge       = 0
  Multiplicity = 1
  Basis Set: CC-PVTZ
  Basis Set:
  @DF-RHF Final Energy:  -310.32873067040276
    Total Energy =                       -310.3287306704029334
    Molecular point group: c1
  Basis Set: CC-PVTZ
  Basis Set:
  Basis Set: CC-PVTZ
  Basis Set:
  @DF-RHF Final Energy:  -310.32965030402841
    Total Energy =                       -310.3296503040286325
  Basis Set: CC-PVTZ
  Basis Set:
  Basis Set: CC-PVTZ
  Basis Set:
  @DF-RHF Final Energy:  -310.33035700946095
    Total Energy =                       -310.3303570094608403
  Basis Set: CC-PVTZ
  Basis Set:
  Basis Set: CC-PVTZ
  Basis Set:
  @DF-RHF Final Energy:  -310.33039353067056
    Total Energy =                       -310.3303935306707899
  Basis Set: CC-PVTZ
  Basis Set:
  Basis Set: CC-PVTZ
  Basis Set:
  @DF-RHF Final Energy:  -310.33039924919848
    Total Energy =                       -310.3303992491987628
  Basis Set: CC-PVTZ
  Basis Set:
  Basis Set: CC-PVTZ
  Basis Set:
  @DF-RHF Final Energy:  -310.33040189751694
    Total Energy =                       -310.3304018975167082
  Basis Set: CC-PVTZ
  Basis Set:
  Charge       = 0
  Multiplicity = 1
  Basis Set: CC-PVTZ
  Basis Set:

    Orbital Energies (a.u.)
    -----------------------

    Doubly Occupied:

       1A    -20.545327     2A    -11.264880     3A    -11.213319
       4A    -11.212943     5A    -11.211497     6A    -11.208775
       7A    -11.206140     8A     -1.363155     9A     -1.086906
      10A     -1.033381    11A     -0.954874    12A     -0.878893
      13A     -0.809072    14A     -0.774120    15A     -0.695735
      16A     -0.663943    17A     -0.628714    18A     -0.601829
      19A     -0.587128    20A     -0.574312    21A     -0.536195
      22A     -0.524652    23A     -0.509165    24A     -0.486810
      25A     -0.482890    26A     -0.457450    27A     -0.454183
      28A     -0.444607    29A     -0.437275

  @DF-RHF Final Energy:  -310.33040206933157

   => Energetics <=

    Nuclear Repulsion Energy =            313.8023836813904950
    One-Electron Energy =               -1042.5692219171396573
    Two-Electron Energy =                 418.4364361664177636
    DFT Exchange-Correlation Energy =       0.0000000000000000
    Empirical Dispersion Energy =           0.0000000000000000
    PCM Polarization Energy =               0.0000000000000000
    EFP Energy =                            0.0000000000000000
    Total Energy =                       -310.3304020693314556
    Molecular point group: c1
  Basis Set: CC-PVTZ
  Basis Set:

  -Total Gradient:
     Atom            X                  Y                   Z
    ------   -----------------  -----------------  -----------------
       1       -0.000004516133     0.000000492133    -0.000001292351
       2       -0.000006919696     0.000003062700     0.000004703593
       3        0.000013079709    -0.000004470780    -0.000003117770
       4       -0.000001075207     0.000005676813    -0.000006220378
       5       -0.000003587547    -0.000004608209     0.000002068785
       6       -0.000004504317     0.000001673239    -0.000002001867
       7        0.000002897093    -0.000004710598     0.000011092315
       8       -0.000003248877    -0.000000121540    -0.000002230232
       9       -0.000000067310     0.000001159321    -0.000000414213
      10        0.001441311990    -0.004744052254     0.000030111248
      11        0.000000303367    -0.000001165154     0.000000308935
      12       -0.000001197919    -0.000001396265    -0.000001961680
      13        0.000531731615    -0.004052759836     0.002454394797
      14       -0.001385930545     0.005196931777    -0.000666000132
      15        0.000011018444     0.000002635384    -0.000004438239
      16       -0.000586759341     0.003612466933    -0.001805355664
      17       -0.000003852385    -0.000005813998    -0.000001000938
      18       -0.000000449602    -0.000003824245     0.000001667838
      19        0.000006884390    -0.000008277566     0.000002809457
      20        0.000009890312     0.000010443461    -0.000009868190
      21       -0.000015008051    -0.000003341317    -0.000003255312

  **** Optimization is complete! (in 7 steps) ****
    Final optimized geometry and variables:
    Molecular point group: c1

    Geometry (in Angstrom), charge = 0, multiplicity = 1:

    H           -4.122834726071     0.824447361064    -0.524452830133
    O           -3.419628989409     0.232664545014    -0.717886418819
    C           -2.220861537322     0.710492572345    -0.167326666892
    C           -1.113267243014    -0.268888450202    -0.499378963272
    H           -1.980958566985     1.691803821761    -0.571466590586
    H           -2.312479909329     0.814360336890     0.911801808760
    C            0.242730980966     0.160430844928     0.053236160291
    H           -1.060943398416    -0.375356926073    -1.578165020556
    H           -1.385276070341    -1.242328779258    -0.103437927686
    C            1.349237990721    -0.844090157854    -0.272845074711
    H            0.507511981184     1.133061075599    -0.356319753797
    H            0.163871062347     0.291911054203     1.127610931446
    C            2.767112050238    -0.413210602904     0.131197827131
    H            1.336035628981    -0.986292805484    -1.349226192383
    H            1.105806501468    -1.798388840998     0.184697963608
    C            2.893330028915     0.284647600582     1.483630687500
    H            3.153109774332     0.260957492920    -0.628905589049
    H            3.413598882554    -1.284335109826     0.112226364268
    H            2.368997501189     1.231588260637     1.497249326492
    H            2.496468113124    -0.325689521212     2.289111739101
    H            3.934771122240     0.484594742285     1.708363159482

  Mulliken Charges: (a.u.)
   Center  Symbol    Alpha    Beta     Spin     Total
       1     H     0.39766  0.39766  0.00000  0.20468
       2     O     4.19410  4.19410  0.00000 -0.38820
       3     C     2.96318  2.96318  0.00000  0.07364
       4     C     3.08495  3.08495  0.00000 -0.16991
       5     H     0.47513  0.47513  0.00000  0.04974
       6     H     0.47498  0.47498  0.00000  0.05004
       7     C     3.10543  3.10543  0.00000 -0.21087
       8     H     0.45043  0.45043  0.00000  0.09914
       9     H     0.45112  0.45112  0.00000  0.09776
      10     C     3.09387  3.09387  0.00000 -0.18774
      11     H     0.45460  0.45460  0.00000  0.09081
      12     H     0.45199  0.45199  0.00000  0.09602
      13     C     3.08878  3.08878  0.00000 -0.17756
      14     H     0.45095  0.45095  0.00000  0.09811
      15     H     0.45124  0.45124  0.00000  0.09753
      16     C     3.15658  3.15658  0.00000 -0.31315
      17     H     0.45458  0.45458  0.00000  0.09085
      18     H     0.44895  0.44895  0.00000  0.10210
      19     H     0.45206  0.45206  0.00000  0.09588
      20     H     0.45417  0.45417  0.00000  0.09166
      21     H     0.44526  0.44526  0.00000  0.10948

   Total alpha = 29.00000, Total beta = 29.00000, Total charge = -0.00000

*** Psi4 exiting successfully. Buy a developer a beer!
