  ==> Input File <==

--------------------------------------------------------------------------
set {
	reference rhf
	basis 6-31G*
}

set_num_threads( 4 )
memory 2 gb

molecule MOL {
0 1

H	 2.465338	 -2.224223	 0.000000
O	 2.784187	 -1.332015	 0.000000
C	 1.765313	 -0.449364	 0.000000
C	 2.079711	 0.888926	 -0.214656
C	 0.452509	 -0.828613	 0.202112
H	 3.107502	 1.158389	 -0.369230
C	 1.080759	 1.840256	 -0.226109
H	 0.181782	 -1.852385	 0.369809
C	 -0.525603	 0.152610	 0.184269
H	 1.332410	 2.871189	 -0.392558
C	 -0.246235	 1.484343	 -0.025469
N	 -1.912770	 -0.253974	 0.398609
H	 -1.032113	 2.210817	 -0.031555
O	 -2.128571	 -1.414666	 0.578213
O	 -2.748474	 0.596660	 0.381729

	symmetry c1
}
set optking {
	frozen_dihedral = ("
		4 3 2 1
	")
}

ee = optimize('scf')
oeprop('DIPOLE', 'QUADRUPOLE', 'MULLIKEN_CHARGES')
f=open( 'psi4out.xyz', 'w' )
f.write( "15  " )
f.write( str(ee) + "\n" )
f.write( MOL.save_string_xyz() )
f.close()
--------------------------------------------------------------------------

    Molecular point group: c1
  Charge       = 0
  Multiplicity = 1
  Basis Set: 6-31G*
  Basis Set:
  @DF-RHF Final Energy:  -509.02761195782824
    Total Energy =                       -509.0276119578284124
    Molecular point group: c1
  Basis Set: 6-31G*
  Basis Set:
  Basis Set: 6-31G*
  Basis Set:
  @DF-RHF Final Energy:  -509.02760213988120
    Total Energy =                       -509.0276021398814237
  Basis Set: 6-31G*
  Basis Set:
  Basis Set: 6-31G*
  Basis Set:
  @DF-RHF Final Energy:  -509.02710353981195
    Total Energy =                       -509.0271035398120603
  Basis Set: 6-31G*
  Basis Set:
  Basis Set: 6-31G*
  Basis Set:
  @DF-RHF Final Energy:  -509.02761528679764
    Total Energy =                       -509.0276152867971859
  Basis Set: 6-31G*
  Basis Set:
  Charge       = 0
  Multiplicity = 1
  Basis Set: 6-31G*
  Basis Set:

    Orbital Energies (a.u.)
    -----------------------

    Doubly Occupied:

       1A    -20.615288     2A    -20.605168     3A    -20.604635
       4A    -15.859547     5A    -11.330278     6A    -11.311125
       7A    -11.267309     8A    -11.266809     9A    -11.263830
      10A    -11.260873    11A     -1.638334    12A     -1.435910
      13A     -1.421655    14A     -1.200561    15A     -1.095029
      16A     -1.046480    17A     -0.966154    18A     -0.878408
      19A     -0.828674    20A     -0.791202    21A     -0.751699
      22A     -0.737263    23A     -0.724070    24A     -0.707858
      25A     -0.673290    26A     -0.635341    27A     -0.617684
      28A     -0.592087    29A     -0.558487    30A     -0.544887
      31A     -0.515239    32A     -0.492204    33A     -0.490144
      34A     -0.455026    35A     -0.377434    36A     -0.343351

  @DF-RHF Final Energy:  -509.02761673371350

   => Energetics <=

    Nuclear Repulsion Energy =            503.4776566382510623
    One-Electron Energy =               -1693.2038774475786340
    Two-Electron Energy =                 680.6986040756135026
    DFT Exchange-Correlation Energy =       0.0000000000000000
    Empirical Dispersion Energy =           0.0000000000000000
    PCM Polarization Energy =               0.0000000000000000
    EFP Energy =                            0.0000000000000000
    Total Energy =                       -509.0276167337140123
    Molecular point group: c1
  Basis Set: 6-31G*
  Basis Set:

  -Total Gradient:
     Atom            X                  Y                   Z
    ------   -----------------  -----------------  -----------------
       1        0.000012329081    -0.000017799244    -0.001031129647
       2       -0.000082670387    -0.000014732205     0.000939661115
       3        0.000127676520     0.000076604048     0.000820276560
       4       -0.000093086567    -0.000045271225    -0.000720778525
       5        0.000026838536    -0.000001514419     0.000034708735
       6       -0.000003610893    -0.000001909800     0.000015024696
       7        0.000020673074    -0.000013617714    -0.000028509994
       8       -0.000011004574    -0.000011091862    -0.000029952682
       9       -0.000006842495     0.000040730163     0.000019294635
      10       -0.000004894234     0.000002361157    -0.000002477165
      11       -0.000031480194    -0.000032615633    -0.000019762281
      12       -0.000063395655    -0.000006042604    -0.000000008053
      13       -0.000003732337     0.000008090322     0.000011341523
      14        0.000064497999    -0.000034260940    -0.000001486431
      15        0.000048702135     0.000051069961    -0.000006202488

  **** Optimization is complete! (in 5 steps) ****
    Final optimized geometry and variables:
    Molecular point group: c1

    Geometry (in Angstrom), charge = 0, multiplicity = 1:

    H            2.456977628200    -2.233704951004    -0.135495422517
    O            2.776177078744    -1.341650651278    -0.137206518163
    C            1.757214363352    -0.458277668601    -0.140438686466
    C            2.071155611845     0.879491639792    -0.357726525714
    C            0.444600624049    -0.837652236829     0.062570791183
    H            3.098532964825     1.148489778501    -0.516230134395
    C            1.072584162793     1.831459933497    -0.365389318488
    H            0.174799938958    -1.861104169047     0.233630660210
    C           -0.533600187718     0.143244311390     0.043807869266
    H            1.323947837417     2.862277264992    -0.532992654979
    C           -0.254221759161     1.475368250230    -0.164405885039
    N           -1.920784081870    -0.263493446954     0.256713623499
    H           -1.040158005943     2.201745378468    -0.170012106362
    O           -2.137803395161    -1.425752529857     0.424085714810
    O           -2.755113524543     0.588700278162     0.250421170278

  Mulliken Charges: (a.u.)
   Center  Symbol    Alpha    Beta     Spin     Total
       1     H     0.26733  0.26733  0.00000  0.46533
       2     O     4.37610  4.37610  0.00000 -0.75219
       3     C     2.79203  2.79203  0.00000  0.41593
       4     C     3.10831  3.10831  0.00000 -0.21662
       5     C     3.13646  3.13646  0.00000 -0.27293
       6     H     0.38088  0.38088  0.00000  0.23824
       7     C     3.10071  3.10071  0.00000 -0.20143
       8     H     0.36768  0.36768  0.00000  0.26463
       9     C     2.91385  2.91385  0.00000  0.17230
      10     H     0.38656  0.38656  0.00000  0.22687
      11     C     3.09759  3.09759  0.00000 -0.19517
      12     N     3.24013  3.24013  0.00000  0.51975
      13     H     0.36516  0.36516  0.00000  0.26969
      14     O     4.23549  4.23549  0.00000 -0.47099
      15     O     4.23171  4.23171  0.00000 -0.46342

   Total alpha = 36.00000, Total beta = 36.00000, Total charge =  0.00000
