                              Psi4 1.0.54 Driver

  ==> Input File <==

--------------------------------------------------------------------------
set {
	reference rhf
	basis cc-pvtz
}

set_num_threads( 4 )
memory 2 gb

molecule MOL {
0 1

H	 -2.123894	 -0.667238	 -0.609809
O	 -2.041679	 -0.058866	 0.103463
C	 -0.959304	 0.780994	 -0.094939
C	 0.354905	 0.037902	 -0.006215
H	 -0.985899	 1.279578	 -1.057596
H	 -0.969809	 1.529522	 0.682889
F	 1.294357	 0.653307	 -0.702273
F	 0.762056	 -0.023527	 1.244405
F	 0.269767	 -1.188883	 -0.461982

	symmetry c1
}
set optking {
	frozen_dihedral = ("
		7 4 3 5
	")
}

ee,wfn = optimize('scf', return_wfn=True)
oeprop( wfn, 'DIPOLE', 'QUADRUPOLE', 'MULLIKEN_CHARGES')
f=open( 'psi4out.xyz', 'w' )
f.write( "9  " )
f.write( str(ee) + "\n" )
f.write( MOL.save_string_xyz() )
f.close()
--------------------------------------------------------------------------

    Molecular point group: c1
  Charge       = 0
  Multiplicity = 1
  Basis Set: CC-PVTZ
  Basis Set:
  @DF-RHF Final Energy:  -450.84408681731651
    Total Energy =                       -450.8440868173163381
    Molecular point group: c1
  Basis Set: CC-PVTZ
  Basis Set:
  Basis Set: CC-PVTZ
  Basis Set:
  @DF-RHF Final Energy:  -450.84463815776593
    Total Energy =                       -450.8446381577659849
  Basis Set: CC-PVTZ
  Basis Set:
  Basis Set: CC-PVTZ
  Basis Set:
  @DF-RHF Final Energy:  -450.84485698126446
    Total Energy =                       -450.8448569812643996
  Basis Set: CC-PVTZ
  Basis Set:
  Basis Set: CC-PVTZ
  Basis Set:
  @DF-RHF Final Energy:  -450.84487927679214
    Total Energy =                       -450.8448792767921987
  Basis Set: CC-PVTZ
  Basis Set:
  Basis Set: CC-PVTZ
  Basis Set:
  @DF-RHF Final Energy:  -450.84488172761871
    Total Energy =                       -450.8448817276187697
  Basis Set: CC-PVTZ
  Basis Set:
  Charge       = 0
  Multiplicity = 1
  Basis Set: CC-PVTZ
  Basis Set:

    Orbital Energies (a.u.)
    -----------------------

    Doubly Occupied:

       1A    -26.339388     2A    -26.339352     3A    -26.337991
       4A    -20.583792     5A    -11.495360     6A    -11.309845
       7A     -1.748674     8A     -1.644979     9A     -1.643978
      10A     -1.407707    11A     -1.048929    12A     -0.930510
      13A     -0.838493    14A     -0.836070    15A     -0.814985
      16A     -0.730024    17A     -0.718944    18A     -0.705151
      19A     -0.671277    20A     -0.667697    21A     -0.649909
      22A     -0.632261    23A     -0.620358    24A     -0.531201
      25A     -0.484769

  @DF-RHF Final Energy:  -450.84488194081712

   => Energetics <=

    Nuclear Repulsion Energy =            277.3825617972016744
    One-Electron Energy =               -1176.9915975682743010
    Two-Electron Energy =                 448.7641538302550543
    DFT Exchange-Correlation Energy =       0.0000000000000000
    Empirical Dispersion Energy =           0.0000000000000000
    PCM Polarization Energy =               0.0000000000000000
    EFP Energy =                            0.0000000000000000
    Total Energy =                       -450.8448819408175723
    Molecular point group: c1
  Basis Set: CC-PVTZ
  Basis Set:

  -Total Gradient:
     Atom            X                  Y                   Z
    ------   -----------------  -----------------  -----------------
       1       -0.000014249895     0.000006637362     0.000014624845
       2        0.000050209043     0.000004616741    -0.000020383350
       3       -0.002994214261    -0.005882908607    -0.003723700882
       4        0.001724618056     0.003939584679     0.005191786499
       5        0.002178692446     0.004254410867     0.002170276851
       6        0.000002448364     0.000001621468    -0.000001200392
       7       -0.000942480587    -0.002302385514    -0.003559458716
       8        0.000003275943     0.000022988075    -0.000070718930
       9       -0.000008299103    -0.000044565065    -0.000001225924

  **** Optimization is complete! (in 6 steps) ****
    Final optimized geometry and variables:
    Molecular point group: c1

    Geometry (in Angstrom), charge = 0, multiplicity = 1:

    H           -2.104235910437    -0.712416713770    -0.554350641751
    O           -2.056535404658    -0.037288892067     0.099287755490
    C           -0.964900335928     0.779456911838    -0.121939934602
    C            0.358094640686     0.038590073676    -0.003298156243
    H           -0.975901745212     1.282505576979    -1.082241176023
    H           -0.972182008650     1.545793274789     0.639407578573
    F            1.301008657374     0.666345968784    -0.675969387531
    F            0.761766891822    -0.087450340633     1.238438291740
    F            0.266883697757    -1.176449539973    -0.514057195850

  Mulliken Charges: (a.u.)
   Center  Symbol    Alpha    Beta     Spin     Total
       1     H     0.38540  0.38540  0.00000  0.22919
       2     O     4.19013  4.19013  0.00000 -0.38027
       3     C     2.99570  2.99570  0.00000  0.00860
       4     C     2.68045  2.68045  0.00000  0.63910
       5     H     0.46286  0.46286  0.00000  0.07428
       6     H     0.44962  0.44962  0.00000  0.10075
       7     F     4.61156  4.61156  0.00000 -0.22311
       8     F     4.60738  4.60738  0.00000 -0.21477
       9     F     4.61689  4.61689  0.00000 -0.23377

   Total alpha = 25.00000, Total beta = 25.00000, Total charge =  0.00000

*** Psi4 exiting successfully. Buy a developer a beer!
