  ==> Input File <==

--------------------------------------------------------------------------
set {
	reference rhf
	basis 6-31G*
}

set_num_threads( 4 )
memory 2 gb

molecule MOL {
0 1

H	 3.276176	 0.174363	 -0.109463
N	 2.434251	 -0.367735	 -0.081097
C	 1.267428	 0.496480	 0.024474
H	 2.501951	 -0.965776	 0.720575
C	 -0.016086	 -0.325158	 -0.029487
H	 1.288818	 1.183521	 -0.816092
H	 1.267576	 1.109062	 0.929528
C	 -1.282277	 0.529072	 0.046735
H	 -0.012495	 -0.908639	 -0.945788
H	 -0.015903	 -1.041248	 0.791956
C	 -1.209113	 1.779787	 -0.828515
H	 -1.456830	 0.823254	 1.079680
H	 -2.142493	 -0.067559	 -0.249938
H	 -0.379204	 2.415515	 -0.533861
H	 -2.119146	 2.366876	 -0.753097
H	 -1.069355	 1.518837	 -1.873787

	symmetry c1
}
set optking {
	frozen_dihedral = ("
		12 8 5 9
	")
}

ee = optimize('scf')
oeprop('DIPOLE', 'QUADRUPOLE', 'MULLIKEN_CHARGES')
f=open( 'psi4out.xyz', 'w' )
f.write( "16  " )
f.write( str(ee) + "\n" )
f.write( MOL.save_string_xyz() )
f.close()
--------------------------------------------------------------------------

    Molecular point group: c1
  Charge       = 0
  Multiplicity = 1
  Basis Set: 6-31G*
  Basis Set:
  @DF-RHF Final Energy:  -212.31226365177912
    Total Energy =                       -212.3122636517789488
    Molecular point group: c1
  Basis Set: 6-31G*
  Basis Set:
  Basis Set: 6-31G*
  Basis Set:
  @DF-RHF Final Energy:  -212.31333928837029
    Total Energy =                       -212.3133392883702868
  Basis Set: 6-31G*
  Basis Set:
  Basis Set: 6-31G*
  Basis Set:
  @DF-RHF Final Energy:  -212.31416189322138
    Total Energy =                       -212.3141618932212964
  Basis Set: 6-31G*
  Basis Set:
  Basis Set: 6-31G*
  Basis Set:
  @DF-RHF Final Energy:  -212.31425506665096
    Total Energy =                       -212.3142550666508441
  Basis Set: 6-31G*
  Basis Set:
  Basis Set: 6-31G*
  Basis Set:
  @DF-RHF Final Energy:  -212.31426336732903
    Total Energy =                       -212.3142633673288628
  Basis Set: 6-31G*
  Basis Set:
  Basis Set: 6-31G*
  Basis Set:
  @DF-RHF Final Energy:  -212.31426623084764
    Total Energy =                       -212.3142662308476929
  Basis Set: 6-31G*
  Basis Set:
  Charge       = 0
  Multiplicity = 1
  Basis Set: 6-31G*
  Basis Set:

    Orbital Energies (a.u.)
    -----------------------

    Doubly Occupied:

       1A    -15.532622     2A    -11.239647     3A    -11.215292
       4A    -11.209897     5A    -11.208454     6A     -1.176808
       7A     -1.057918     8A     -0.954486     9A     -0.861786
      10A     -0.776590    11A     -0.664683    12A     -0.631103
      13A     -0.605400    14A     -0.593683    15A     -0.547681
      16A     -0.526027    17A     -0.515563    18A     -0.466642
      19A     -0.461369    20A     -0.456959    21A     -0.381070

  @DF-RHF Final Energy:  -212.31426640127140

   => Energetics <=

    Nuclear Repulsion Energy =            188.9452505480988123
    One-Electron Energy =                -660.3516764963208061
    Two-Electron Energy =                 259.0921595469507110
    DFT Exchange-Correlation Energy =       0.0000000000000000
    Empirical Dispersion Energy =           0.0000000000000000
    PCM Polarization Energy =               0.0000000000000000
    EFP Energy =                            0.0000000000000000
    Total Energy =                       -212.3142664012713112
    Molecular point group: c1
  Basis Set: 6-31G*
  Basis Set:

  -Total Gradient:
     Atom            X                  Y                   Z
    ------   -----------------  -----------------  -----------------
       1        0.000012723448    -0.000005902458     0.000001220503
       2        0.000020539722     0.000000785042    -0.000004798583
       3       -0.000012378987    -0.000011181664     0.000000488409
       4       -0.000000791333     0.000002229109     0.000000018487
       5        0.001694459801     0.002895140548    -0.002148815808
       6        0.000001631233    -0.000002456005    -0.000000151067
       7       -0.000006941197     0.000003329025    -0.000003153534
       8        0.002136419310     0.003226098389    -0.000254616452
       9       -0.001763552440    -0.002914419501     0.001841564639
      10        0.000002874001    -0.000002734291     0.000000940680
      11       -0.000000702751     0.000000235878     0.000003591901
      12       -0.002078220063    -0.003195184310     0.000558456206
      13       -0.000006284419     0.000002550406     0.000001444256
      14        0.000003426624     0.000001716539     0.000000468960
      15       -0.000003852006     0.000002133915    -0.000000448967
      16        0.000000649056    -0.000002340623     0.000003790371

  **** Optimization is complete! (in 7 steps) ****
    Final optimized geometry and variables:
    Molecular point group: c1

    Geometry (in Angstrom), charge = 0, multiplicity = 1:

    H            3.038316780769    -0.368079168748     0.138092845331
    N            2.169579169492    -0.866744253072     0.145094463936
    C            1.044165105806     0.055895283903     0.181377411043
    H            2.174999119927    -1.448588082748     0.961223378339
    C           -0.268939131737    -0.714033768390     0.089444857942
    H            1.143793929717     0.722806895312    -0.667608674178
    H            1.032507618668     0.685128854232     1.075741718618
    C           -1.539649225835     0.136605503774     0.221894639503
    H           -0.290777978282    -1.283180522259    -0.835519345376
    H           -0.282908212454    -1.460272429308     0.883282038875
    C           -1.591758686456     1.377409495971    -0.670058309072
    H           -1.685396170636     0.415159656103     1.263437522619
    H           -2.388166840892    -0.498975151908    -0.020666829212
    H           -0.839862886878     2.109451408759    -0.393802961236
    H           -2.560145751951     1.862321331580    -0.595779572830
    H           -1.432597837759     1.116300412659    -1.712819749594

  Mulliken Charges: (a.u.)
   Center  Symbol    Alpha    Beta     Spin     Total
       1     H     0.33240  0.33240  0.00000  0.33520
       2     N     3.92200  3.92200  0.00000 -0.84400
       3     C     3.06278  3.06278  0.00000 -0.12556
       4     H     0.33530  0.33530  0.00000  0.32940
       5     C     3.15133  3.15133  0.00000 -0.30266
       6     H     0.41828  0.41828  0.00000  0.16344
       7     H     0.43515  0.43515  0.00000  0.12970
       8     C     3.15596  3.15596  0.00000 -0.31192
       9     H     0.41380  0.41380  0.00000  0.17239
      10     H     0.42666  0.42666  0.00000  0.14668
      11     C     3.24295  3.24295  0.00000 -0.48590
      12     H     0.42337  0.42337  0.00000  0.15326
      13     H     0.42012  0.42012  0.00000  0.15977
      14     H     0.42074  0.42074  0.00000  0.15851
      15     H     0.41890  0.41890  0.00000  0.16220
      16     H     0.42024  0.42024  0.00000  0.15952

   Total alpha = 21.00000, Total beta = 21.00000, Total charge = -0.00000
