  ==> Input File <==

--------------------------------------------------------------------------
set {
	reference rhf
	basis 6-31G*
}

set_num_threads( 1 )
memory 2 gb

molecule MOL {
0 1

O	 -2.327918	 -0.241716	 -1.119571
C	 -1.921153	 0.064240	 -0.045697
C	 -2.784051	 0.402793	 1.139687
O	 -0.632575	 0.154573	 0.251549
H	 -2.567363	 1.410722	 1.474463
H	 -3.825160	 0.319774	 0.865762
H	 -2.560735	 -0.270399	 1.959259
C	 0.160891	 -1.019931	 0.106212
C	 1.589627	 -0.672828	 0.480843
H	 0.089836	 -1.367806	 -0.916050
H	 -0.238459	 -1.792301	 0.749618
C	 2.246377	 0.346236	 -0.452210
H	 2.163194	 -1.597435	 0.473358
H	 1.604769	 -0.303424	 1.502885
C	 3.691736	 0.652107	 -0.061850
H	 2.219579	 -0.032311	 -1.472055
H	 1.666466	 1.263317	 -0.447249
H	 4.134505	 1.377213	 -0.737283
H	 4.305508	 -0.243868	 -0.089969
H	 3.748266	 1.059562	 0.943567

	symmetry c1
}
set optking {
	frozen_dihedral = ("
		16 12 9 8,
		2 4 8 10,
		12 9 8 10
	")
}

ee = energy('scf')
oeprop('DIPOLE', 'QUADRUPOLE', 'MULLIKEN_CHARGES')
f=open( 'psi4out.xyz', 'w' )
f.write( "20  " )
f.write( str(ee) + "\n" )
f.write( MOL.save_string_xyz() )
f.close()
--------------------------------------------------------------------------

    Molecular point group: c1

    Geometry (in Angstrom), charge = 0, multiplicity = 1:

       Center              X                  Y                   Z               Mass
    ------------   -----------------  -----------------  -----------------  -----------------
           O         -2.321653050142    -0.204667039349    -1.157990554740    15.994914619560
           C         -1.914888050142     0.101288960651    -0.084116554740    12.000000000000
           C         -2.777786050142     0.439841960651     1.101267445260    12.000000000000
           O         -0.626310050142     0.191621960651     0.213129445260    15.994914619560
           H         -2.561098050142     1.447770960651     1.436043445260     1.007825032070
           H         -3.818895050142     0.356822960651     0.827342445260     1.007825032070
           H         -2.554470050142    -0.233350039349     1.920839445260     1.007825032070
           C          0.167155949858    -0.982882039349     0.067792445260    12.000000000000
           C          1.595891949858    -0.635779039349     0.442423445260    12.000000000000
           H          0.096100949858    -1.330757039349    -0.954469554740     1.007825032070
           H         -0.232194050142    -1.755252039349     0.711198445260     1.007825032070
           C          2.252641949858     0.383284960651    -0.490629554740    12.000000000000
           H          2.169458949858    -1.560386039349     0.434938445260     1.007825032070
           H          1.611033949858    -0.266375039349     1.464465445260     1.007825032070
           C          3.698000949858     0.689155960651    -0.100269554740    12.000000000000
           H          2.225843949858     0.004737960651    -1.510474554740     1.007825032070
           H          1.672730949858     1.300365960651    -0.485668554740     1.007825032070
           H          4.140769949858     1.414261960651    -0.775702554740     1.007825032070
           H          4.311772949858    -0.206819039349    -0.128388554740     1.007825032070
           H          3.754530949858     1.096610960651     0.905147445260     1.007825032070

  Charge       = 0
  Multiplicity = 1
  Basis Set: 6-31G*
  Basis Set:

    Orbital Energies (a.u.)
    -----------------------

    Doubly Occupied:

       1A    -20.588165     2A    -20.550325     3A    -11.375160
       4A    -11.290856     5A    -11.233383     6A    -11.227990
       7A    -11.219642     8A    -11.212859     9A     -1.463814
      10A     -1.364104    11A     -1.085984    12A     -1.024519
      13A     -0.985515    14A     -0.882843    15A     -0.810658
      16A     -0.777671    17A     -0.694964    18A     -0.681852
      19A     -0.659194    20A     -0.631783    21A     -0.608424
      22A     -0.592134    23A     -0.576062    24A     -0.557812
      25A     -0.543193    26A     -0.533196    27A     -0.496474
      28A     -0.485597    29A     -0.478073    30A     -0.474181
      31A     -0.447852    32A     -0.435580

  @DF-RHF Final Energy:  -383.93106487140432

   => Energetics <=

    Nuclear Repulsion Energy =            384.7847336444829693
    One-Electron Energy =               -1285.4518034241727946
    Two-Electron Energy =                 516.7360049082853948
    DFT Exchange-Correlation Energy =       0.0000000000000000
    Empirical Dispersion Energy =           0.0000000000000000
    PCM Polarization Energy =               0.0000000000000000
    EFP Energy =                            0.0000000000000000
    Total Energy =                       -383.9310648714044873

  Mulliken Charges: (a.u.)
   Center  Symbol    Alpha    Beta     Spin     Total
       1     O     4.26633  4.26633  0.00000 -0.53266
       2     C     2.62241  2.62241  0.00000  0.75518
       3     C     3.28361  3.28361  0.00000 -0.56722
       4     O     4.31274  4.31274  0.00000 -0.62548
       5     H     0.39931  0.39931  0.00000  0.20138
       6     H     0.39889  0.39889  0.00000  0.20223
       7     H     0.40565  0.40565  0.00000  0.18871
       8     C     3.00451  3.00451  0.00000 -0.00901
       9     C     3.16404  3.16404  0.00000 -0.32809
      10     H     0.40541  0.40541  0.00000  0.18917
      11     H     0.41891  0.41891  0.00000  0.16217
      12     C     3.15483  3.15483  0.00000 -0.30965
      13     H     0.41892  0.41892  0.00000  0.16216
      14     H     0.41439  0.41439  0.00000  0.17122
      15     C     3.24079  3.24079  0.00000 -0.48158
      16     H     0.42084  0.42084  0.00000  0.15831
      17     H     0.40855  0.40855  0.00000  0.18291
      18     H     0.41665  0.41665  0.00000  0.16669
      19     H     0.42227  0.42227  0.00000  0.15546
      20     H     0.42095  0.42095  0.00000  0.15809

   Total alpha = 32.00000, Total beta = 32.00000, Total charge =  0.00000
