                              Psi4 1.0.54 Driver

  ==> Input File <==

--------------------------------------------------------------------------
set {
	reference rhf
	basis cc-pvtz
}

set_num_threads( 4 )
memory 2 gb

molecule MOL {
0 1

O	 -0.016094	 -0.192708	 2.019704
C	 -0.124478	 0.426553	 1.000152
C	 -1.136797	 1.549058	 0.900019
N	 0.622280	 0.144970	 -0.099307
H	 -1.854829	 1.363572	 0.111114
H	 -1.651589	 1.603892	 1.844728
H	 -0.654974	 2.498254	 0.700400
C	 1.664396	 -0.854993	 0.000772
C	 0.688385	 0.990333	 -1.267531
H	 2.462727	 -0.615153	 -0.690869
H	 1.261798	 -1.821849	 -0.240651
H	 2.081615	 -0.891605	 1.003877
H	 0.837154	 0.373927	 -2.144769
H	 -0.223306	 1.544696	 -1.410348
H	 1.514698	 1.695450	 -1.212207

	symmetry c1
}
set optking {
	frozen_dihedral = ("
		2 4 8 10
	")
}

ee,wfn = optimize('scf', return_wfn=True)
oeprop( wfn, 'DIPOLE', 'QUADRUPOLE', 'MULLIKEN_CHARGES')
f=open( 'psi4out.xyz', 'w' )
f.write( "15  " )
f.write( str(ee) + "\n" )
f.write( MOL.save_string_xyz() )
f.close()
--------------------------------------------------------------------------

    Molecular point group: c1
  Charge       = 0
  Multiplicity = 1
  Basis Set: CC-PVTZ
  Basis Set:
  @DF-RHF Final Energy:  -286.13376665904468
    Total Energy =                       -286.1337666590445110
    Molecular point group: c1
  Basis Set: CC-PVTZ
  Basis Set:
  Basis Set: CC-PVTZ
  Basis Set:
  @DF-RHF Final Energy:  -286.13440736073363
    Total Energy =                       -286.1344073607332348
  Basis Set: CC-PVTZ
  Basis Set:
  Basis Set: CC-PVTZ
  Basis Set:
  @DF-RHF Final Energy:  -286.13453436609313
    Total Energy =                       -286.1345343660929075
  Basis Set: CC-PVTZ
  Basis Set:
  Basis Set: CC-PVTZ
  Basis Set:
  @DF-RHF Final Energy:  -286.13469406220963
    Total Energy =                       -286.1346940622096326
  Basis Set: CC-PVTZ
  Basis Set:
  @DF-RHF Final Energy:  -286.13494279800386
    Total Energy =                       -286.1349427980036353
  @DF-RHF Final Energy:  -286.13510676409544
    Total Energy =                       -286.1351067640954966
  @DF-RHF Final Energy:  -286.13518251321250
    Total Energy =                       -286.1351825132123849
  @DF-RHF Final Energy:  -286.13522750475045
    Total Energy =                       -286.1352275047504463
  @DF-RHF Final Energy:  -286.13527256253684
    Total Energy =                       -286.1352725625371249
  @DF-RHF Final Energy:  -286.13531450478217
    Total Energy =                       -286.1353145047821727
  @DF-RHF Final Energy:  -286.13537954095659
    Total Energy =                       -286.1353795409567056
  @DF-RHF Final Energy:  -286.13546103559634
    Total Energy =                       -286.1354610355963359
  @DF-RHF Final Energy:  -286.13553104961250
    Total Energy =                       -286.1355310496124389
  @DF-RHF Final Energy:  -286.13555202889268
    Total Energy =                       -286.1355520288926755
  Basis Set: CC-PVTZ
  Basis Set:
  @DF-RHF Final Energy:  -286.13557861799967
    Total Energy =                       -286.1355786179995562
  Basis Set: CC-PVTZ
  Basis Set:
  Basis Set: CC-PVTZ
  Basis Set:
  @DF-RHF Final Energy:  -286.13559552299319
    Total Energy =                       -286.1355955229934125
  Basis Set: CC-PVTZ
  Basis Set:
  Basis Set: CC-PVTZ
  Basis Set:
  @DF-RHF Final Energy:  -286.13560863379246
    Total Energy =                       -286.1356086337926286
  Basis Set: CC-PVTZ
  Basis Set:
  Charge       = 0
  Multiplicity = 1
  Basis Set: CC-PVTZ
  Basis Set:

    Orbital Energies (a.u.)
    -----------------------

    Doubly Occupied:

       1A    -20.504403     2A    -15.578195     3A    -11.334818
       4A    -11.263920     5A    -11.246509     6A    -11.226558
       7A     -1.387962     8A     -1.245986     9A     -1.015043
      10A     -0.973166    11A     -0.920333    12A     -0.738879
      13A     -0.683116    14A     -0.661597    15A     -0.653870
      16A     -0.590163    17A     -0.578336    18A     -0.568223
      19A     -0.562008    20A     -0.547982    21A     -0.530473
      22A     -0.506309    23A     -0.414388    24A     -0.371007

  @DF-RHF Final Energy:  -286.13560904727274

   => Energetics <=

    Nuclear Repulsion Energy =            252.9791409105984883
    One-Electron Energy =                -890.0230105892221673
    Two-Electron Energy =                 350.9082606313506858
    DFT Exchange-Correlation Energy =       0.0000000000000000
    Empirical Dispersion Energy =           0.0000000000000000
    PCM Polarization Energy =               0.0000000000000000
    EFP Energy =                            0.0000000000000000
    Total Energy =                       -286.1356090472729647
    Molecular point group: c1
  Basis Set: CC-PVTZ
  Basis Set:

  -Total Gradient:
     Atom            X                  Y                   Z
    ------   -----------------  -----------------  -----------------
       1        0.000006484214    -0.000000310445     0.000010693819
       2       -0.000069269176    -0.000105924568    -0.000149412512
       3       -0.000037930360    -0.000045281271    -0.000021934588
       4        0.000173275028     0.000183582588     0.000178759195
       5        0.000005740534     0.000020296278     0.000020891176
       6        0.000008502827     0.000003716139    -0.000005085092
       7        0.000019000858    -0.000006307747    -0.000001076925
       8        0.000014329887     0.000040458266     0.000198604305
       9       -0.000013891876    -0.000033614112    -0.000011209436
      10       -0.000078688148    -0.000066527937    -0.000186142198
      11        0.000006525268    -0.000008498011    -0.000006949776
      12       -0.000029764526     0.000019352349    -0.000021585527
      13        0.000009341922     0.000020662348    -0.000015974808
      14        0.000009108976    -0.000016159355    -0.000004399385
      15       -0.000022765428    -0.000005444522     0.000014821752

  **** Optimization is complete! (in 18 steps) ****
    Final optimized geometry and variables:
    Molecular point group: c1

    Geometry (in Angstrom), charge = 0, multiplicity = 1:

    O           -0.394001066881    -0.680099197297     1.520115324520
    C           -0.419030993976     0.060313229376     0.579114518727
    C           -1.465245290324     1.152755023810     0.501233985503
    N            0.486980928983    -0.029008337248    -0.429786874723
    H           -2.120542950413     1.008939877766    -0.349082443573
    H           -2.046322300443     1.107761000388     1.407265426240
    H           -1.010384862567     2.131316679245     0.414311189888
    C            1.423950707835    -1.133127703874    -0.414874077639
    C            0.349308383867     0.650351271888    -1.696236999671
    H            2.345135081803    -0.824413840780    -0.892164686738
    H            1.034079968364    -1.995368839867    -0.949882277531
    H            1.627062154681    -1.424247993738     0.600050521965
    H           -0.148391516467     0.029572293418    -2.437968089113
    H           -0.203361687763     1.568569349901    -1.596169812804
    H            1.331388055660     0.899131664890    -2.076970399615

  Mulliken Charges: (a.u.)
   Center  Symbol    Alpha    Beta     Spin     Total
       1     O     4.21981  4.21981  0.00000 -0.43962
       2     C     2.84512  2.84512  0.00000  0.30975
       3     C     3.16083  3.16083  0.00000 -0.32167
       4     N     3.56320  3.56320  0.00000 -0.12640
       5     H     0.44902  0.44902  0.00000  0.10196
       6     H     0.42864  0.42864  0.00000  0.14271
       7     H     0.44887  0.44887  0.00000  0.10226
       8     C     3.09661  3.09661  0.00000 -0.19322
       9     C     3.09558  3.09558  0.00000 -0.19116
      10     H     0.45726  0.45726  0.00000  0.08548
      11     H     0.45713  0.45713  0.00000  0.08573
      12     H     0.42828  0.42828  0.00000  0.14344
      13     H     0.45534  0.45534  0.00000  0.08932
      14     H     0.44521  0.44521  0.00000  0.10959
      15     H     0.44908  0.44908  0.00000  0.10183

   Total alpha = 24.00000, Total beta = 24.00000, Total charge = -0.00000

*** Psi4 exiting successfully. Buy a developer a beer!
