  ==> Input File <==

--------------------------------------------------------------------------
set {
	reference rhf
	basis cc-pvtz
}

set_num_threads( 4 )
memory 2 gb

molecule MOL {
0 1

O	 0.618137	 0.032412	 -2.335168
C	 0.141653	 0.470944	 -1.327512
C	 -1.019584	 1.441140	 -1.398806
N	 0.622280	 0.144970	 -0.099307
H	 -0.773018	 2.386568	 -0.932205
H	 -1.239395	 1.604568	 -2.440663
H	 -1.898043	 1.041915	 -0.906970
C	 1.664396	 -0.854993	 0.000772
C	 -0.045426	 0.466488	 1.139462
H	 2.462727	 -0.615153	 -0.690869
H	 1.261798	 -1.821849	 -0.240651
H	 2.081615	 -0.891605	 1.003877
H	 0.695891	 0.632572	 1.910502
H	 -0.632780	 1.364611	 1.054112
H	 -0.695834	 -0.339699	 1.471238

	symmetry c1
}
set optking {
	frozen_dihedral = ("
		2 4 8 10
	")
}

ee = optimize('scf')
oeprop('DIPOLE', 'QUADRUPOLE', 'MULLIKEN_CHARGES')
f=open( 'psi4out.xyz', 'w' )
f.write( "15  " )
f.write( str(ee) + "\n" )
f.write( MOL.save_string_xyz() )
f.close()
--------------------------------------------------------------------------

    Molecular point group: c1
  Charge       = 0
  Multiplicity = 1
  Basis Set: CC-PVTZ
  Basis Set:
  @DF-RHF Final Energy:  -286.13427783343320
    Total Energy =                       -286.1342778334334298
    Molecular point group: c1
  Basis Set: CC-PVTZ
  Basis Set:
  Basis Set: CC-PVTZ
  Basis Set:
  @DF-RHF Final Energy:  -286.13509151410813
    Total Energy =                       -286.1350915141080691
  Basis Set: CC-PVTZ
  Basis Set:
  Basis Set: CC-PVTZ
  Basis Set:
  @DF-RHF Final Energy:  -286.13513700837109
    Total Energy =                       -286.1351370083709753
  Basis Set: CC-PVTZ
  Basis Set:
  Basis Set: CC-PVTZ
  Basis Set:
  @DF-RHF Final Energy:  -286.13521466062866
    Total Energy =                       -286.1352146606288329
  Basis Set: CC-PVTZ
  Basis Set:
  Basis Set: CC-PVTZ
  Basis Set:
  @DF-RHF Final Energy:  -286.13525485240848
    Total Energy =                       -286.1352548524084227
  Basis Set: CC-PVTZ
  Basis Set:
  Basis Set: CC-PVTZ
  Basis Set:
  @DF-RHF Final Energy:  -286.13526022113308
    Total Energy =                       -286.1352602211335352
  Basis Set: CC-PVTZ
  Basis Set:
  Basis Set: CC-PVTZ
  Basis Set:
  @DF-RHF Final Energy:  -286.13526334184155
    Total Energy =                       -286.1352633418415508
  Basis Set: CC-PVTZ
  Basis Set:
  Charge       = 0
  Multiplicity = 1
  Basis Set: CC-PVTZ
  Basis Set:

    Orbital Energies (a.u.)
    -----------------------

    Doubly Occupied:

       1A    -20.504792     2A    -15.577462     3A    -11.333490
       4A    -11.264180     5A    -11.246939     6A    -11.226594
       7A     -1.388284     8A     -1.244713     9A     -1.014708
      10A     -0.973487    11A     -0.919512    12A     -0.738345
      13A     -0.682123    14A     -0.660716    15A     -0.653705
      16A     -0.589152    17A     -0.577812    18A     -0.569743
      19A     -0.564680    20A     -0.547105    21A     -0.530448
      22A     -0.503494    23A     -0.414751    24A     -0.371281

  @DF-RHF Final Energy:  -286.13526366133306

   => Energetics <=

    Nuclear Repulsion Energy =            253.1070961395909933
    One-Electron Energy =                -890.2896830785520024
    Two-Electron Energy =                 351.0473232776281520
    DFT Exchange-Correlation Energy =       0.0000000000000000
    Empirical Dispersion Energy =           0.0000000000000000
    PCM Polarization Energy =               0.0000000000000000
    EFP Energy =                            0.0000000000000000
    Total Energy =                       -286.1352636613328286
    Molecular point group: c1
  Basis Set: CC-PVTZ
  Basis Set:

  -Total Gradient:
     Atom            X                  Y                   Z
    ------   -----------------  -----------------  -----------------
       1        0.000030563953    -0.000015269603     0.000002429172
       2       -0.000531936221    -0.000509791478     0.000122167690
       3        0.000004065557     0.000000764507     0.000008755243
       4        0.000801838380     0.000869501442     0.000003392046
       5       -0.000003050169     0.000003986440     0.000007954716
       6        0.000003489654    -0.000002316178     0.000005692725
       7       -0.000005172256     0.000002185588     0.000002916541
       8       -0.000764419533    -0.000831491363    -0.000724697670
       9        0.000024401128     0.000005954247    -0.000031773717
      10        0.000443810467     0.000468096334     0.000609698212
      11        0.000001231313     0.000006477960    -0.000000787246
      12        0.000004149895    -0.000003029505    -0.000005210772
      13        0.000002929302     0.000007391533     0.000002255537
      14       -0.000016133706     0.000002967799    -0.000003490662
      15        0.000004232236    -0.000005427722     0.000000698179

  **** Optimization is complete! (in 8 steps) ****
    Final optimized geometry and variables:
    Molecular point group: c1

    Geometry (in Angstrom), charge = 0, multiplicity = 1:

    O            0.277817827538    -0.282911735029    -1.652112379540
    C           -0.190178648800     0.194274953313    -0.658249183912
    C           -1.341145785420     1.173688382342    -0.749759801497
    N            0.306569057505    -0.104582359439     0.570153093922
    H           -1.103023122677     2.112901041844    -0.266981777428
    H           -1.535651722430     1.347100515144    -1.795165009709
    H           -2.233480728717     0.772374465903    -0.284746550984
    C            1.331604806236    -1.128958589341     0.631585299870
    C           -0.382327154264     0.187213265706     1.805802875928
    H            2.107744351066    -0.922679724841    -0.087050705327
    H            0.930498913322    -2.116196511733     0.426284716586
    H            1.763508174815    -1.128742745296     1.622604895176
    H            0.342426360366     0.389107469807     2.583351784190
    H           -1.007564135972     1.058378122619     1.710214670606
    H           -1.002875164532    -0.644029011645     2.133161884565

  Mulliken Charges: (a.u.)
   Center  Symbol    Alpha    Beta     Spin     Total
       1     O     4.21893  4.21893  0.00000 -0.43785
       2     C     2.84500  2.84500  0.00000  0.30999
       3     C     3.16028  3.16028  0.00000 -0.32056
       4     N     3.56454  3.56454  0.00000 -0.12909
       5     H     0.44883  0.44883  0.00000  0.10234
       6     H     0.42881  0.42881  0.00000  0.14237
       7     H     0.44902  0.44902  0.00000  0.10197
       8     C     3.09156  3.09156  0.00000 -0.18311
       9     C     3.09669  3.09669  0.00000 -0.19338
      10     H     0.43523  0.43523  0.00000  0.12955
      11     H     0.45341  0.45341  0.00000  0.09319
      12     H     0.45802  0.45802  0.00000  0.08396
      13     H     0.44844  0.44844  0.00000  0.10311
      14     H     0.44567  0.44567  0.00000  0.10866
      15     H     0.45557  0.45557  0.00000  0.08886

   Total alpha = 24.00000, Total beta = 24.00000, Total charge = -0.00000
