  ==> Input File <==

--------------------------------------------------------------------------
set {
	reference rhf
	basis 6-31G*
}

set_num_threads( 4 )
memory 2 gb

molecule MOL {
0 1

O	 -1.969636	 1.622530	 -0.941240
C	 -1.983454	 0.547394	 -0.423240
C	 -0.889235	 -0.467034	 -0.705952
C	 -3.064018	 0.153092	 0.558740
C	 0.379448	 -0.143569	 0.099626
H	 -0.665673	 -0.422696	 -1.766309
H	 -1.230348	 -1.471919	 -0.473840
C	 1.631333	 -0.777471	 -0.511575
H	 0.482768	 0.934507	 0.149241
H	 0.263088	 -0.495696	 1.123449
C	 2.915987	 -0.544314	 0.291766
H	 1.766672	 -0.399098	 -1.523130
H	 1.471257	 -1.849544	 -0.605828
C	 3.373361	 0.914346	 0.347591
H	 3.708709	 -1.142521	 -0.150311
H	 2.780642	 -0.921148	 1.303579
H	 3.506512	 1.320010	 -0.651625
H	 4.322697	 0.999599	 0.867103
H	 2.660624	 1.545032	 0.868198
H	 -3.663850	 -0.650080	 0.138762
H	 -3.698956	 1.001924	 0.771156
H	 -2.627915	 -0.221441	 1.480339

	symmetry c1
}
set optking {
	frozen_dihedral = ("
		6 3 5 8
	")
}

ee = optimize('scf')
oeprop('DIPOLE', 'QUADRUPOLE', 'MULLIKEN_CHARGES')
f=open( 'psi4out.xyz', 'w' )
f.write( "22  " )
f.write( str(ee) + "\n" )
f.write( MOL.save_string_xyz() )
f.close()
--------------------------------------------------------------------------

    Molecular point group: c1
  Charge       = 0
  Multiplicity = 1
  Basis Set: 6-31G*
  Basis Set:
  @DF-RHF Final Energy:  -348.09681159620970
    Total Energy =                       -348.0968115962096476
    Molecular point group: c1
  Basis Set: 6-31G*
  Basis Set:
  Basis Set: 6-31G*
  Basis Set:
  @DF-RHF Final Energy:  -348.09686374526342
    Total Energy =                       -348.0968637452635335
  Basis Set: 6-31G*
  Basis Set:
  Basis Set: 6-31G*
  Basis Set:
  @DF-RHF Final Energy:  -348.09693872428051
    Total Energy =                       -348.0969387242805624
  Basis Set: 6-31G*
  Basis Set:
  Basis Set: 6-31G*
  Basis Set:
  @DF-RHF Final Energy:  -348.09701500784541
    Total Energy =                       -348.0970150078451297
  Basis Set: 6-31G*
  Basis Set:
  @DF-RHF Final Energy:  -348.09700149781503
    Total Energy =                       -348.0970014978148015
  @DF-RHF Final Energy:  -348.09702184445706
    Total Energy =                       -348.0970218444570037
  @DF-RHF Final Energy:  -348.09702365001419
    Total Energy =                       -348.0970236500144210
  @DF-RHF Final Energy:  -348.09702634527355
    Total Energy =                       -348.0970263452736617
  @DF-RHF Final Energy:  -348.09703227715278
    Total Energy =                       -348.0970322771530618
  @DF-RHF Final Energy:  -348.09698010556087
    Total Energy =                       -348.0969801055610446
  @DF-RHF Final Energy:  -348.09703788881365
    Total Energy =                       -348.0970378888133041
  Basis Set: 6-31G*
  Basis Set:
  @DF-RHF Final Energy:  -348.09704300704516
    Total Energy =                       -348.0970430070451584
  Basis Set: 6-31G*
  Basis Set:
  Basis Set: 6-31G*
  Basis Set:
  @DF-RHF Final Energy:  -348.09705044541022
    Total Energy =                       -348.0970504454099341
  Basis Set: 6-31G*
  Basis Set:
  Basis Set: 6-31G*
  Basis Set:
  @DF-RHF Final Energy:  -348.09705203384198
    Total Energy =                       -348.0970520338422602
  Basis Set: 6-31G*
  Basis Set:
  Charge       = 0
  Multiplicity = 1
  Basis Set: 6-31G*
  Basis Set:

    Orbital Energies (a.u.)
    -----------------------

    Doubly Occupied:

       1A    -20.547399     2A    -11.324242     3A    -11.231344
       4A    -11.229051     5A    -11.227797     6A    -11.223103
       7A    -11.221238     8A    -11.211971     9A     -1.392857
      10A     -1.096462    11A     -1.044744    12A     -0.998384
      13A     -0.937986    14A     -0.859678    15A     -0.787244
      16A     -0.733941    17A     -0.662128    18A     -0.641703
      19A     -0.628971    20A     -0.618068    21A     -0.598815
      22A     -0.587577    23A     -0.558563    24A     -0.538127
      25A     -0.534689    26A     -0.524400    27A     -0.497892
      28A     -0.487374    29A     -0.470455    30A     -0.465006
      31A     -0.461557    32A     -0.396375

  @DF-RHF Final Energy:  -348.09705195433764

   => Energetics <=

    Nuclear Repulsion Energy =            373.1999970378176386
    One-Electron Energy =               -1211.1158143982756883
    Two-Electron Energy =                 489.8187654061203489
    DFT Exchange-Correlation Energy =       0.0000000000000000
    Empirical Dispersion Energy =           0.0000000000000000
    PCM Polarization Energy =               0.0000000000000000
    EFP Energy =                            0.0000000000000000
    Total Energy =                       -348.0970519543377009
    Molecular point group: c1
  Basis Set: 6-31G*
  Basis Set:

  -Total Gradient:
     Atom            X                  Y                   Z
    ------   -----------------  -----------------  -----------------
       1        0.000023036353     0.000019398303    -0.000016500681
       2       -0.000041411426     0.000010373986     0.000094194247
       3       -0.000893137906     0.004857686697    -0.000801284668
       4       -0.000160475735    -0.000023917222    -0.000127192373
       5       -0.000358326480    -0.004221504054     0.002304343430
       6        0.000804440887    -0.003226241078     0.000023144763
       7        0.000080998626     0.000073540765     0.000028266511
       8        0.000448100614     0.002285678257    -0.001496571484
       9        0.000146909081    -0.000058183599    -0.000222579763
      10       -0.000067103925     0.000234611253     0.000138128752
      11       -0.000022575267     0.000050049695    -0.000037546654
      12        0.000040883019    -0.000011590151    -0.000014184312
      13       -0.000063971241     0.000020006692     0.000023593390
      14       -0.000008688944    -0.000022062029    -0.000011477702
      15       -0.000001286101     0.000014780217    -0.000006923122
      16       -0.000006082091    -0.000012937660     0.000008154130
      17       -0.000011966125    -0.000012054649     0.000013167548
      18        0.000006840627    -0.000007713013     0.000006952507
      19       -0.000015754361     0.000008120136    -0.000002452803
      20        0.000021232643    -0.000003380808     0.000039888895
      21        0.000024029461     0.000005342147     0.000034590844
      22        0.000054308287     0.000019996114     0.000022288546

  **** Optimization is complete! (in 15 steps) ****
    Final optimized geometry and variables:
    Molecular point group: c1

    Geometry (in Angstrom), charge = 0, multiplicity = 1:

    O           -2.214286513476     1.312828072102    -1.001654441841
    C           -2.053375273504     0.342430065387    -0.325967698768
    C           -0.915531863685    -0.622807824870    -0.598041994723
    C           -2.958528550155     0.036119008455     0.847652888630
    C            0.336575535095    -0.285590666036     0.235324410367
    H           -0.677136483176    -0.581502420920    -1.654324796771
    H           -1.228881517862    -1.640431922244    -0.378073822015
    C            1.602713153889    -0.914056100776    -0.353154720665
    H            0.454599331151     0.793285291439     0.263009387655
    H            0.200281297363    -0.613444246511     1.263129419215
    C            2.862235912044    -0.720510369978     0.498261721959
    H            1.770875734238    -0.502193053963    -1.345867030147
    H            1.436822296768    -1.981153837932    -0.488936355824
    C            3.314273174018     0.733841016214     0.641958497156
    H            3.668989472802    -1.294634317473     0.049728531700
    H            2.698685155357    -1.148452220021     1.485297119447
    H            3.470114176736     1.192065822925    -0.330784820146
    H            4.250488175836     0.792726999910     1.188211432822
    H            2.587506188071     1.335264379186     1.177886633382
    H           -3.533916150634    -0.862262343407     0.640777475891
    H           -3.634209451176     0.862881024153     1.016999177401
    H           -2.378336864644    -0.154073439871     1.745676424200

  Mulliken Charges: (a.u.)
   Center  Symbol    Alpha    Beta     Spin     Total
       1     O     4.26124  4.26124  0.00000 -0.52248
       2     C     2.73785  2.73785  0.00000  0.52430
       3     C     3.20078  3.20078  0.00000 -0.40157
       4     C     3.28970  3.28970  0.00000 -0.57940
       5     C     3.16504  3.16504  0.00000 -0.33008
       6     H     0.40009  0.40009  0.00000  0.19981
       7     H     0.41627  0.41627  0.00000  0.16747
       8     C     3.15331  3.15331  0.00000 -0.30663
       9     H     0.40732  0.40732  0.00000  0.18537
      10     H     0.41989  0.41989  0.00000  0.16023
      11     C     3.15366  3.15366  0.00000 -0.30731
      12     H     0.41845  0.41845  0.00000  0.16311
      13     H     0.42127  0.42127  0.00000  0.15747
      14     C     3.24218  3.24218  0.00000 -0.48435
      15     H     0.41912  0.41912  0.00000  0.16176
      16     H     0.42314  0.42314  0.00000  0.15373
      17     H     0.41998  0.41998  0.00000  0.16005
      18     H     0.41807  0.41807  0.00000  0.16386
      19     H     0.41943  0.41943  0.00000  0.16114
      20     H     0.40697  0.40697  0.00000  0.18605
      21     H     0.39690  0.39690  0.00000  0.20619
      22     H     0.40935  0.40935  0.00000  0.18130

   Total alpha = 32.00000, Total beta = 32.00000, Total charge = -0.00000
