                              Psi4 1.0.54 Driver

  ==> Input File <==

--------------------------------------------------------------------------
set {
	reference rhf
	basis cc-pvtz
}

set_num_threads( 4 )
memory 2 gb

molecule MOL {
0 1

O	 0.749630	 1.305591	 -0.000460
C	 0.576499	 0.134701	 -0.003900
C	 -0.765656	 -0.550508	 -0.002152
O	 1.564816	 -0.744612	 -0.000631
C	 -1.945526	 0.411052	 0.000603
H	 -0.794329	 -1.203792	 -0.868145
H	 -0.791555	 -1.205429	 0.862701
C	 -3.282915	 -0.321280	 0.002596
H	 -1.880300	 1.059126	 -0.864925
H	 -1.877207	 1.057892	 0.866807
H	 -3.388495	 -0.952755	 -0.873419
H	 -4.107811	 0.380864	 0.004116
H	 -3.385717	 -0.953283	 0.878571
C	 1.898238	 -1.341558	 1.236501
H	 2.205204	 -0.592101	 1.950742
H	 2.713454	 -2.015918	 1.030710
H	 1.055699	 -1.885816	 1.636444

	symmetry c1
}
set optking {
	frozen_dihedral = ("
		14 4 2 1
	")
}

ee,wfn = optimize('scf', return_wfn=True)
oeprop( wfn, 'DIPOLE', 'QUADRUPOLE', 'MULLIKEN_CHARGES')
f=open( 'psi4out.xyz', 'w' )
f.write( "17  " )
f.write( str(ee) + "\n" )
f.write( MOL.save_string_xyz() )
f.close()
--------------------------------------------------------------------------

    Molecular point group: c1
  Charge       = 0
  Multiplicity = 1
  Basis Set: CC-PVTZ
  Basis Set:
  @DF-RHF Final Energy:  -345.01309117805437
    Total Energy =                       -345.0130911780540259
    Molecular point group: c1
  Basis Set: CC-PVTZ
  Basis Set:
  Basis Set: CC-PVTZ
  Basis Set:
  @DF-RHF Final Energy:  -344.84746143105946
    Total Energy =                       -344.8474614310593438
  Basis Set: CC-PVTZ
  Basis Set:
  Basis Set: CC-PVTZ
  Basis Set:
  @DF-RHF Final Energy:  -344.96080297610484
    Total Energy =                       -344.9608029761050147
  Basis Set: CC-PVTZ
  Basis Set:
  Basis Set: CC-PVTZ
  Basis Set:
  @DF-RHF Final Energy:  -345.00973053307450
    Total Energy =                       -345.0097305330745030
  Basis Set: CC-PVTZ
  Basis Set:
  @DF-RHF Final Energy:  -344.99826695255319
    Total Energy =                       -344.9982669525529673
  @DF-RHF Final Energy:  -345.01406208080942
    Total Energy =                       -345.0140620808094809
  @DF-RHF Final Energy:  -345.01500136557911
    Total Energy =                       -345.0150013655791099
  @DF-RHF Final Energy:  -345.01525865179997
    Total Energy =                       -345.0152586518000817
  Basis Set: CC-PVTZ
  Basis Set:
  @DF-RHF Final Energy:  -345.01528160747182
    Total Energy =                       -345.0152816074716497
  Basis Set: CC-PVTZ
  Basis Set:
  Basis Set: CC-PVTZ
  Basis Set:
  @DF-RHF Final Energy:  -345.01529054101030
    Total Energy =                       -345.0152905410104722
  Basis Set: CC-PVTZ
  Basis Set:
  Basis Set: CC-PVTZ
  Basis Set:
  @DF-RHF Final Energy:  -345.01529217448768
    Total Energy =                       -345.0152921744873993
  Basis Set: CC-PVTZ
  Basis Set:
  Charge       = 0
  Multiplicity = 1
  Basis Set: CC-PVTZ
  Basis Set:

    Orbital Energies (a.u.)
    -----------------------

    Doubly Occupied:

       1A    -20.578743     2A    -20.545635     3A    -11.368183
       4A    -11.290193     5A    -11.239534     6A    -11.223668
       7A    -11.215902     8A     -1.461783     9A     -1.370554
      10A     -1.082892    11A     -0.990978    12A     -0.955700
      13A     -0.836125    14A     -0.766901    15A     -0.701885
      16A     -0.681879    17A     -0.676400    18A     -0.637282
      19A     -0.619159    20A     -0.579847    21A     -0.567155
      22A     -0.542521    23A     -0.520226    24A     -0.497639
      25A     -0.492358    26A     -0.483091    27A     -0.457549
      28A     -0.438381

  @DF-RHF Final Energy:  -345.01529240850516

   => Energetics <=

    Nuclear Repulsion Energy =            313.1254923758634732
    One-Electron Energy =               -1090.6372409365458225
    Two-Electron Energy =                 432.4964561521773021
    DFT Exchange-Correlation Energy =       0.0000000000000000
    Empirical Dispersion Energy =           0.0000000000000000
    PCM Polarization Energy =               0.0000000000000000
    EFP Energy =                            0.0000000000000000
    Total Energy =                       -345.0152924085050472
    Molecular point group: c1
  Basis Set: CC-PVTZ
  Basis Set:

  -Total Gradient:
     Atom            X                  Y                   Z
    ------   -----------------  -----------------  -----------------
       1        0.000214087566     0.000025371445    -0.001453313566
       2       -0.000661881439    -0.000495788065     0.001945311979
       3        0.000011450708    -0.000004314033    -0.000007309984
       4        0.000965566629     0.001457216509    -0.000145545514
       5        0.000002445123    -0.000001781966     0.000019749950
       6        0.000002031635    -0.000001344853     0.000005267265
       7        0.000003228497     0.000014355072    -0.000008750126
       8        0.000004030083     0.000000097810    -0.000014496758
       9       -0.000001985059    -0.000002588632     0.000004372196
      10        0.000001370796    -0.000001204922    -0.000006437363
      11       -0.000001643608     0.000001649046     0.000010437161
      12       -0.000000657394    -0.000000778985    -0.000003182487
      13       -0.000000737219     0.000003767881    -0.000000458070
      14       -0.000542772551    -0.000986758507    -0.000372821150
      15        0.000004290287    -0.000000941301     0.000012330142
      16        0.000002229676    -0.000001080200     0.000007614232
      17       -0.000001053731    -0.000005876297     0.000007232097

  **** Optimization is complete! (in 12 steps) ****
    Final optimized geometry and variables:
    Molecular point group: c1

    Geometry (in Angstrom), charge = 0, multiplicity = 1:

    O            0.620367035413     1.586722877042     0.003041291224
    C            0.658825903627     0.412117892721    -0.028374366333
    C           -0.521060909684    -0.478481399370    -0.327369860919
    O            1.825297772579    -0.251921530253     0.123947412192
    C           -1.840122605108     0.266003000701    -0.478513967357
    H           -0.271344950481    -1.021820280361    -1.234057436535
    H           -0.589036435680    -1.229947789579     0.452815616479
    C           -2.998434536951    -0.672576992999    -0.798304893549
    H           -1.740271929160     1.010263275028    -1.258611288533
    H           -2.048798287449     0.812363163040     0.433894580075
    H           -2.826943254769    -1.208735745925    -1.725847875539
    H           -3.924785865140    -0.120954433653    -0.903017841698
    H           -3.139921361970    -1.408572765759    -0.013456772485
    C            2.108096587826    -0.801426608146     1.389209077247
    H            2.132985513488    -0.026598225077     2.145516128651
    H            3.081234377391    -1.259188460137     1.317274541033
    H            1.383188781079    -1.557439648788     1.667661989292

  Mulliken Charges: (a.u.)
   Center  Symbol    Alpha    Beta     Spin     Total
       1     O     4.16734  4.16734  0.00000 -0.33467
       2     C     2.78865  2.78865  0.00000  0.42270
       3     C     3.11569  3.11569  0.00000 -0.23137
       4     O     4.16605  4.16605  0.00000 -0.33209
       5     C     3.08038  3.08038  0.00000 -0.16075
       6     H     0.43859  0.43859  0.00000  0.12283
       7     H     0.44541  0.44541  0.00000  0.10918
       8     C     3.15001  3.15001  0.00000 -0.30001
       9     H     0.44342  0.44342  0.00000  0.11317
      10     H     0.44784  0.44784  0.00000  0.10432
      11     H     0.45502  0.45502  0.00000  0.08995
      12     H     0.44488  0.44488  0.00000  0.11024
      13     H     0.45670  0.45670  0.00000  0.08660
      14     C     3.03603  3.03603  0.00000 -0.07206
      15     H     0.45647  0.45647  0.00000  0.08706
      16     H     0.44143  0.44143  0.00000  0.11714
      17     H     0.46611  0.46611  0.00000  0.06777

   Total alpha = 28.00000, Total beta = 28.00000, Total charge = -0.00000

*** Psi4 exiting successfully. Buy a developer a beer!
