  ==> Input File <==

--------------------------------------------------------------------------
set {
	reference rhf
	basis cc-pvtz
}

set_num_threads( 4 )
memory 2 gb

molecule MOL {
0 1

H	 2.583711	 1.695997	 -1.195640
C	 1.867201	 1.521464	 -0.403534
C	 1.322304	 0.099773	 -0.484271
H	 2.367851	 1.698614	 0.541631
H	 1.074475	 2.253885	 -0.505932
C	 0.308557	 -0.162619	 0.622645
H	 2.130978	 -0.615109	 -0.396386
H	 0.845249	 -0.062824	 -1.442873
N	 -1.069352	 -0.004081	 0.085342
H	 0.371632	 -1.172932	 0.991288
H	 0.400391	 0.548875	 1.426218
O	 -1.584901	 -0.965470	 -0.377818
O	 -1.548033	 1.079343	 0.130056

	symmetry c1
}
set optking {
	frozen_dihedral = ("
		7 3 6 9
	")
}

ee = optimize('scf')
oeprop('DIPOLE', 'QUADRUPOLE', 'MULLIKEN_CHARGES')
f=open( 'psi4out.xyz', 'w' )
f.write( "13  " )
f.write( str(ee) + "\n" )
f.write( MOL.save_string_xyz() )
f.close()
--------------------------------------------------------------------------

    Molecular point group: c1
  Charge       = 0
  Multiplicity = 1
  Basis Set: CC-PVTZ
  Basis Set:
  @DF-RHF Final Energy:  -321.85706767736770
    Total Energy =                       -321.8570676773675245
    Molecular point group: c1
  Basis Set: CC-PVTZ
  Basis Set:
  Basis Set: CC-PVTZ
  Basis Set:
  @DF-RHF Final Energy:  -321.85670505838925
    Total Energy =                       -321.8567050583893661
  Basis Set: CC-PVTZ
  Basis Set:
  Basis Set: CC-PVTZ
  Basis Set:
  @DF-RHF Final Energy:  -321.85284590863296
    Total Energy =                       -321.8528459086329008
  Basis Set: CC-PVTZ
  Basis Set:
  Basis Set: CC-PVTZ
  Basis Set:
  @DF-RHF Final Energy:  -321.85755699083120
    Total Energy =                       -321.8575569908311991
  Basis Set: CC-PVTZ
  Basis Set:
  Basis Set: CC-PVTZ
  Basis Set:
  @DF-RHF Final Energy:  -321.85769952604062
    Total Energy =                       -321.8576995260406761
  Basis Set: CC-PVTZ
  Basis Set:
  Basis Set: CC-PVTZ
  Basis Set:
  @DF-RHF Final Energy:  -321.85780011420729
    Total Energy =                       -321.8578001142075209
  Basis Set: CC-PVTZ
  Basis Set:
  Basis Set: CC-PVTZ
  Basis Set:
  @DF-RHF Final Energy:  -321.85780158469612
    Total Energy =                       -321.8578015846958920
  Basis Set: CC-PVTZ
  Basis Set:
  Charge       = 0
  Multiplicity = 1
  Basis Set: CC-PVTZ
  Basis Set:

    Orbital Energies (a.u.)
    -----------------------

    Doubly Occupied:

       1A    -20.590776     2A    -20.590653     3A    -15.837062
       4A    -11.297622     5A    -11.255186     6A    -11.229904
       7A     -1.636197     8A     -1.420387     9A     -1.131853
      10A     -1.024159    11A     -0.888050    12A     -0.831562
      13A     -0.763244    14A     -0.737906    15A     -0.727287
      16A     -0.649090    17A     -0.623946    18A     -0.593387
      19A     -0.530002    20A     -0.525612    21A     -0.514311
      22A     -0.484708    23A     -0.473475    24A     -0.453976

  @DF-RHF Final Energy:  -321.85780195982159

   => Energetics <=

    Nuclear Repulsion Energy =            250.7979758590680888
    One-Electron Energy =                -935.6908372117911767
    Two-Electron Energy =                 363.0350593929019283
    DFT Exchange-Correlation Energy =       0.0000000000000000
    Empirical Dispersion Energy =           0.0000000000000000
    PCM Polarization Energy =               0.0000000000000000
    EFP Energy =                            0.0000000000000000
    Total Energy =                       -321.8578019598211881
    Molecular point group: c1
  Basis Set: CC-PVTZ
  Basis Set:

  -Total Gradient:
     Atom            X                  Y                   Z
    ------   -----------------  -----------------  -----------------
       1        0.000004116707     0.000003880239    -0.000003014097
       2        0.000013532480     0.000011216983    -0.000002449743
       3        0.002163107732     0.001866166608     0.002544484313
       4       -0.000003907421    -0.000003993819    -0.000001176703
       5       -0.000000549338     0.000003624921     0.000000145072
       6       -0.000326149226     0.002985975494     0.000492317868
       7       -0.001801558988    -0.002255914287    -0.002297654827
       8        0.000000757816     0.000001287294     0.000011753996
       9       -0.000036487873    -0.002600988614    -0.000719049211
      10        0.000002034783    -0.000005339346     0.000003004735
      11        0.000002566983    -0.000000466864    -0.000009628409
      12        0.000002088158     0.000010800965    -0.000008258842
      13       -0.000019551814    -0.000016249573    -0.000010474154

  **** Optimization is complete! (in 8 steps) ****
    Final optimized geometry and variables:
    Molecular point group: c1

    Geometry (in Angstrom), charge = 0, multiplicity = 1:

    H            2.738855304128     1.423758038211    -1.159215971220
    C            2.030757898241     1.269395216772    -0.354610486148
    C            1.483814814668    -0.151842646245    -0.391378323662
    H            2.541997491110     1.466520732021     0.581098419516
    H            1.234907269059     1.995519398089    -0.461919482827
    C            0.448265884716    -0.448117416988     0.703095527527
    H            2.280097909310    -0.879418893656    -0.297524906371
    H            1.030362590060    -0.352611273397    -1.354921938688
    N           -0.926482226434    -0.273950634262     0.161365844323
    H            0.494218429649    -1.473246172471     1.026842841639
    H            0.531519442767     0.222149869801     1.541880299928
    O           -1.441309050946    -1.223522346908    -0.325843802398
    O           -1.404429137230     0.809731859345     0.224551026458

  Mulliken Charges: (a.u.)
   Center  Symbol    Alpha    Beta     Spin     Total
       1     H     0.44607  0.44607  0.00000  0.10787
       2     C     3.14498  3.14498  0.00000 -0.28995
       3     C     3.09282  3.09282  0.00000 -0.18565
       4     H     0.45507  0.45507  0.00000  0.08985
       5     H     0.44251  0.44251  0.00000  0.11497
       6     C     3.04636  3.04636  0.00000 -0.09273
       7     H     0.44449  0.44449  0.00000  0.11103
       8     H     0.44030  0.44030  0.00000  0.11939
       9     N     3.27768  3.27768  0.00000  0.44465
      10     H     0.42752  0.42752  0.00000  0.14496
      11     H     0.43610  0.43610  0.00000  0.12780
      12     O     4.17179  4.17179  0.00000 -0.34358
      13     O     4.17431  4.17431  0.00000 -0.34862

   Total alpha = 24.00000, Total beta = 24.00000, Total charge = -0.00000
