  ==> Input File <==

--------------------------------------------------------------------------
set {
	reference rhf
	basis 6-31G*
}

set_num_threads( 4 )
memory 2 gb

molecule MOL {
0 1

H	 1.899215	 -1.590850	 0.102346
O	 1.223589	 -1.011073	 -0.218709
C	 1.135793	 0.118896	 0.612333
C	 0.031547	 1.023609	 0.088541
H	 2.077119	 0.665517	 0.612390
H	 0.934080	 -0.177462	 1.639263
C	 -1.134819	 0.293262	 -0.585751
H	 0.474374	 1.714721	 -0.623187
H	 -0.338529	 1.620940	 0.920081
C	 -1.917817	 -0.639439	 0.339494
H	 -0.758119	 -0.268455	 -1.433105
H	 -1.813832	 1.041889	 -0.986690
H	 -2.777680	 -1.057197	 -0.174994
H	 -1.310268	 -1.471279	 0.680599
H	 -2.283753	 -0.111424	 1.216626

	symmetry c1
}
set optking {
	frozen_dihedral = ("
		2 3 4 8
	")
}

ee = optimize('scf')
oeprop('DIPOLE', 'QUADRUPOLE', 'MULLIKEN_CHARGES')
f=open( 'psi4out.xyz', 'w' )
f.write( "15  " )
f.write( str(ee) + "\n" )
f.write( MOL.save_string_xyz() )
f.close()
--------------------------------------------------------------------------

    Molecular point group: c1
  Charge       = 0
  Multiplicity = 1
  Basis Set: 6-31G*
  Basis Set:
  @DF-RHF Final Energy:  -232.14023344461515
    Total Energy =                       -232.1402334446150348
    Molecular point group: c1
  Basis Set: 6-31G*
  Basis Set:
  Basis Set: 6-31G*
  Basis Set:
  @DF-RHF Final Energy:  -232.14078565080061
    Total Energy =                       -232.1407856508003533
  Basis Set: 6-31G*
  Basis Set:
  Basis Set: 6-31G*
  Basis Set:
  @DF-RHF Final Energy:  -232.14099832410335
    Total Energy =                       -232.1409983241032933
  Basis Set: 6-31G*
  Basis Set:
  Basis Set: 6-31G*
  Basis Set:
  @DF-RHF Final Energy:  -232.14101226372543
    Total Energy =                       -232.1410122637252016
  Basis Set: 6-31G*
  Basis Set:
  Basis Set: 6-31G*
  Basis Set:
  @DF-RHF Final Energy:  -232.14101349537452
    Total Energy =                       -232.1410134953745228
  Basis Set: 6-31G*
  Basis Set:
  Basis Set: 6-31G*
  Basis Set:
  @DF-RHF Final Energy:  -232.14101459136361
    Total Energy =                       -232.1410145913635006
  Basis Set: 6-31G*
  Basis Set:
  Charge       = 0
  Multiplicity = 1
  Basis Set: 6-31G*
  Basis Set:

    Orbital Energies (a.u.)
    -----------------------

    Doubly Occupied:

       1A    -20.554188     2A    -11.268690     3A    -11.212850
       4A    -11.206749     5A    -11.199649     6A     -1.360632
       7A     -1.061022     8A     -0.967893     9A     -0.866364
      10A     -0.773210    11A     -0.702911    12A     -0.649659
      13A     -0.606650    14A     -0.569701    15A     -0.562646
      16A     -0.526750    17A     -0.507084    18A     -0.475095
      19A     -0.462429    20A     -0.451153    21A     -0.428751

  @DF-RHF Final Energy:  -232.14101466333952

   => Energetics <=

    Nuclear Repulsion Energy =            193.2994315564951933
    One-Electron Energy =                -698.0527402915942048
    Two-Electron Energy =                 272.6122940717594361
    DFT Exchange-Correlation Energy =       0.0000000000000000
    Empirical Dispersion Energy =           0.0000000000000000
    PCM Polarization Energy =               0.0000000000000000
    EFP Energy =                            0.0000000000000000
    Total Energy =                       -232.1410146633396039
    Molecular point group: c1
  Basis Set: 6-31G*
  Basis Set:

  -Total Gradient:
     Atom            X                  Y                   Z
    ------   -----------------  -----------------  -----------------
       1       -0.000003540009     0.000005703025    -0.000001752847
       2       -0.003126659017    -0.002299756535     0.002464248451
       3        0.004284724925     0.003840140305    -0.002185604109
       4       -0.002034690866    -0.005282009095    -0.004795411235
       5       -0.000010938382     0.000018502088    -0.000002580626
       6        0.000010719427     0.000014371101     0.000011980164
       7        0.000018098349    -0.000016387037    -0.000002394015
       8        0.000875441002     0.003733868524     0.004507161798
       9       -0.000010706252    -0.000016578904     0.000003220889
      10       -0.000004743131     0.000003424282    -0.000003209591
      11       -0.000004564532    -0.000001414007    -0.000002069891
      12        0.000002391396    -0.000002553229     0.000010374445
      13       -0.000001675514    -0.000001764954    -0.000001635214
      14        0.000004315735     0.000002631681    -0.000000830975
      15        0.000001826868     0.000001822755    -0.000001497243

  **** Optimization is complete! (in 7 steps) ****
    Final optimized geometry and variables:
    Molecular point group: c1

    Geometry (in Angstrom), charge = 0, multiplicity = 1:

    H            2.068488624392    -1.479443721583     0.050874314673
    O            1.368181787251    -0.933369493393    -0.276561326033
    C            1.217321701992     0.186211941692     0.560351525266
    C            0.117537614634     1.099506969469     0.014225801019
    H            2.149289066208     0.741596914263     0.636809521324
    H            0.955371222183    -0.144395321811     1.563534256851
    C           -1.065038177756     0.384505028186    -0.642646823105
    H            0.554489821156     1.823074131929    -0.668550703015
    H           -0.247675014333     1.693994042019     0.850937040312
    C           -1.834894613331    -0.533933190347     0.306670016772
    H           -0.713178698300    -0.186927932443    -1.493047726463
    H           -1.740609811198     1.142951394968    -1.031057331065
    H           -2.694464659723    -0.970977918924    -0.192434989759
    H           -1.210218614216    -1.347568390860     0.657688556685
    H           -2.200468027098     0.011328708923     1.173500485291

  Mulliken Charges: (a.u.)
   Center  Symbol    Alpha    Beta     Spin     Total
       1     H     0.28041  0.28041  0.00000  0.43918
       2     O     4.37041  4.37041  0.00000 -0.74081
       3     C     2.99648  2.99648  0.00000  0.00705
       4     C     3.16727  3.16727  0.00000 -0.33454
       5     H     0.42814  0.42814  0.00000  0.14373
       6     H     0.43087  0.43087  0.00000  0.13827
       7     C     3.14820  3.14820  0.00000 -0.29640
       8     H     0.41754  0.41754  0.00000  0.16492
       9     H     0.42411  0.42411  0.00000  0.15177
      10     C     3.24337  3.24337  0.00000 -0.48675
      11     H     0.40736  0.40736  0.00000  0.18528
      12     H     0.42448  0.42448  0.00000  0.15105
      13     H     0.42073  0.42073  0.00000  0.15854
      14     H     0.41370  0.41370  0.00000  0.17259
      15     H     0.42693  0.42693  0.00000  0.14614

   Total alpha = 21.00000, Total beta = 21.00000, Total charge =  0.00000
