  ==> Input File <==

--------------------------------------------------------------------------
set {
	reference rhf
	basis cc-pvtz
}

set_num_threads( 4 )
memory 2 gb

molecule MOL {
0 1

H	 3.273419	 0.176595	 -0.102789
N	 2.433987	 -0.362316	 -0.080024
C	 1.263552	 0.494993	 0.021953
H	 2.497638	 -0.973615	 0.707122
C	 -0.016533	 -0.325589	 -0.026925
H	 1.280915	 1.180773	 -0.818522
H	 1.263064	 1.106893	 0.925038
C	 -1.280353	 0.525521	 0.047747
H	 -0.016686	 -0.912532	 -0.939714
H	 -0.014099	 -1.037598	 0.796369
C	 -1.328422	 1.414988	 1.285700
H	 -2.151484	 -0.124110	 0.039042
H	 -1.354012	 1.144851	 -0.842129
H	 -1.290584	 0.822934	 2.193868
H	 -2.238414	 2.003361	 1.311848
H	 -0.489378	 2.102570	 1.306108

	symmetry c1
}
set optking {
	frozen_dihedral = ("
		12 8 5 9
	")
}

ee = optimize('scf')
oeprop('DIPOLE', 'QUADRUPOLE', 'MULLIKEN_CHARGES')
f=open( 'psi4out.xyz', 'w' )
f.write( "16  " )
f.write( str(ee) + "\n" )
f.write( MOL.save_string_xyz() )
f.close()
--------------------------------------------------------------------------

    Molecular point group: c1
  Charge       = 0
  Multiplicity = 1
  Basis Set: CC-PVTZ
  Basis Set:
  @DF-RHF Final Energy:  -212.39676361926192
    Total Energy =                       -212.3967636192619466
    Molecular point group: c1
  Basis Set: CC-PVTZ
  Basis Set:
  Basis Set: CC-PVTZ
  Basis Set:
  @DF-RHF Final Energy:  -212.39748859671579
    Total Energy =                       -212.3974885967159594
  Basis Set: CC-PVTZ
  Basis Set:
  Basis Set: CC-PVTZ
  Basis Set:
  @DF-RHF Final Energy:  -212.39805842821201
    Total Energy =                       -212.3980584282120390
  Basis Set: CC-PVTZ
  Basis Set:
  Basis Set: CC-PVTZ
  Basis Set:
  @DF-RHF Final Energy:  -212.39809174322926
    Total Energy =                       -212.3980917432293154
  Basis Set: CC-PVTZ
  Basis Set:
  Basis Set: CC-PVTZ
  Basis Set:
  @DF-RHF Final Energy:  -212.39809889224821
    Total Energy =                       -212.3980988922480719
  Basis Set: CC-PVTZ
  Basis Set:
  Charge       = 0
  Multiplicity = 1
  Basis Set: CC-PVTZ
  Basis Set:

    Orbital Energies (a.u.)
    -----------------------

    Doubly Occupied:

       1A    -15.526250     2A    -11.237316     3A    -11.213548
       4A    -11.208352     5A    -11.206535     6A     -1.177902
       7A     -1.059659     8A     -0.956033     9A     -0.859701
      10A     -0.779640    11A     -0.655726    12A     -0.639979
      13A     -0.622810    14A     -0.568069    15A     -0.560988
      16A     -0.536109    17A     -0.502775    18A     -0.467457
      19A     -0.465434    20A     -0.459840    21A     -0.383292

  @DF-RHF Final Energy:  -212.39809971642001

   => Energetics <=

    Nuclear Repulsion Energy =            189.0410688586145511
    One-Electron Energy =                -660.7035077863309880
    Two-Electron Energy =                 259.2643392112965444
    DFT Exchange-Correlation Energy =       0.0000000000000000
    Empirical Dispersion Energy =           0.0000000000000000
    PCM Polarization Energy =               0.0000000000000000
    EFP Energy =                            0.0000000000000000
    Total Energy =                       -212.3980997164198925
    Molecular point group: c1
  Basis Set: CC-PVTZ
  Basis Set:

  -Total Gradient:
     Atom            X                  Y                   Z
    ------   -----------------  -----------------  -----------------
       1        0.000006799952     0.000001547598    -0.000010098699
       2        0.000009938504    -0.000017795414     0.000009083161
       3       -0.000007874413    -0.000003887324    -0.000001286383
       4        0.000010797907     0.000005886288     0.000000851863
       5       -0.001057869903    -0.001618855401     0.001428487471
       6        0.000003403561    -0.000003567111     0.000005932887
       7       -0.000007733574     0.000009445348     0.000007135292
       8        0.000179597738     0.000385762482    -0.002331218169
       9        0.000839404431     0.001315634478    -0.000838530684
      10        0.000010568148     0.000002655939    -0.000006430891
      11        0.000008979584    -0.000015857935    -0.000018521654
      12       -0.000000987221    -0.000060536728     0.001764192342
      13        0.000000762789     0.000010053881     0.000008054782
      14        0.000004445302    -0.000005013497    -0.000005893172
      15       -0.000005884898    -0.000007229081    -0.000008052028
      16        0.000005652090     0.000001756477    -0.000003706118

  **** Optimization is complete! (in 6 steps) ****
    Final optimized geometry and variables:
    Molecular point group: c1

    Geometry (in Angstrom), charge = 0, multiplicity = 1:

    H            3.044330284001    -0.238185709253    -0.433460602191
    N            2.189331745630    -0.752717298630    -0.420279512333
    C            1.051085712567     0.131520499609    -0.215047951734
    H            2.259702380786    -1.418012758197     0.321472629137
    C           -0.249456391860    -0.661612226613    -0.245413571087
    H            1.044881470905     0.856689913392    -1.022813688683
    H            1.123616812731     0.694720991940     0.713273979367
    C           -1.521496122037     0.186717853955    -0.206580168029
    H           -0.244605904340    -1.250749975383    -1.155744127357
    H           -0.257488610467    -1.363974702729     0.585852046691
    C           -1.659491659511     1.091307885517     1.017102959177
    H           -2.374135572464    -0.484676892713    -0.226909057728
    H           -1.580450679148     0.789525130789    -1.108374203652
    H           -1.569224934364     0.521062736335     1.936426664508
    H           -2.628715012904     1.576752333072     1.025461705321
    H           -0.906638791760     1.869844579783     1.036205858776

  Mulliken Charges: (a.u.)
   Center  Symbol    Alpha    Beta     Spin     Total
       1     H     0.43009  0.43009  0.00000  0.13983
       2     N     3.69063  3.69063  0.00000 -0.38127
       3     C     3.02690  3.02690  0.00000 -0.05379
       4     H     0.43081  0.43081  0.00000  0.13837
       5     C     3.09055  3.09055  0.00000 -0.18110
       6     H     0.45724  0.45724  0.00000  0.08551
       7     H     0.46487  0.46487  0.00000  0.07026
       8     C     3.09377  3.09377  0.00000 -0.18753
       9     H     0.44416  0.44416  0.00000  0.11168
      10     H     0.45882  0.45882  0.00000  0.08237
      11     C     3.15470  3.15470  0.00000 -0.30939
      12     H     0.44898  0.44898  0.00000  0.10204
      13     H     0.45300  0.45300  0.00000  0.09400
      14     H     0.45505  0.45505  0.00000  0.08991
      15     H     0.44620  0.44620  0.00000  0.10760
      16     H     0.45425  0.45425  0.00000  0.09151

   Total alpha = 21.00000, Total beta = 21.00000, Total charge =  0.00000
