                              Psi4 1.0.54 Driver

  ==> Input File <==

--------------------------------------------------------------------------
set {
	reference rhf
	basis cc-pvtz
}

set_num_threads( 4 )
memory 2 gb

molecule MOL {
0 1

H	 -2.123894	 -0.667238	 -0.609809
O	 -2.041679	 -0.058866	 0.103463
C	 -0.959304	 0.780994	 -0.094939
C	 0.354905	 0.037902	 -0.006215
H	 -0.985899	 1.279578	 -1.057596
H	 -0.969809	 1.529522	 0.682889
F	 0.558009	 -0.419878	 1.216478
F	 0.352234	 -0.995121	 -0.822581
F	 1.380824	 0.793384	 -0.317198

	symmetry c1
}
set optking {
	frozen_dihedral = ("
		7 4 3 5
	")
}

ee,wfn = optimize('scf', return_wfn=True)
oeprop( wfn, 'DIPOLE', 'QUADRUPOLE', 'MULLIKEN_CHARGES')
f=open( 'psi4out.xyz', 'w' )
f.write( "9  " )
f.write( str(ee) + "\n" )
f.write( MOL.save_string_xyz() )
f.close()
--------------------------------------------------------------------------

    Molecular point group: c1
  Charge       = 0
  Multiplicity = 1
  Basis Set: CC-PVTZ
  Basis Set:
  @DF-RHF Final Energy:  -450.84679161944990
    Total Energy =                       -450.8467916194497889
    Molecular point group: c1
  Basis Set: CC-PVTZ
  Basis Set:
  Basis Set: CC-PVTZ
  Basis Set:
  @DF-RHF Final Energy:  -450.84712183013028
    Total Energy =                       -450.8471218301303907
  Basis Set: CC-PVTZ
  Basis Set:
  Basis Set: CC-PVTZ
  Basis Set:
  @DF-RHF Final Energy:  -450.84718410707649
    Total Energy =                       -450.8471841070762594
  Basis Set: CC-PVTZ
  Basis Set:
  Basis Set: CC-PVTZ
  Basis Set:
  @DF-RHF Final Energy:  -450.84719009959446
    Total Energy =                       -450.8471900995946271
  Basis Set: CC-PVTZ
  Basis Set:
  Charge       = 0
  Multiplicity = 1
  Basis Set: CC-PVTZ
  Basis Set:

    Orbital Energies (a.u.)
    -----------------------

    Doubly Occupied:

       1A    -26.340410     2A    -26.339204     3A    -26.335730
       4A    -20.583934     5A    -11.493879     6A    -11.309994
       7A     -1.747962     8A     -1.645145     9A     -1.642946
      10A     -1.407538    11A     -1.050572    12A     -0.929960
      13A     -0.838152    14A     -0.836233    15A     -0.812094
      16A     -0.731719    17A     -0.718994    18A     -0.703948
      19A     -0.672039    20A     -0.666035    21A     -0.649427
      22A     -0.632967    23A     -0.619714    24A     -0.533936
      25A     -0.484803

  @DF-RHF Final Energy:  -450.84719058500002

   => Energetics <=

    Nuclear Repulsion Energy =            277.6807571160901489
    One-Electron Energy =               -1177.6012265756739907
    Two-Electron Energy =                 449.0732788745835933
    DFT Exchange-Correlation Energy =       0.0000000000000000
    Empirical Dispersion Energy =           0.0000000000000000
    PCM Polarization Energy =               0.0000000000000000
    EFP Energy =                            0.0000000000000000
    Total Energy =                       -450.8471905850002486
    Molecular point group: c1
  Basis Set: CC-PVTZ
  Basis Set:

  -Total Gradient:
     Atom            X                  Y                   Z
    ------   -----------------  -----------------  -----------------
       1        0.000009460903    -0.000005587629    -0.000010855151
       2        0.000042320057     0.000054101656    -0.000006481684
       3       -0.000446158900    -0.000898018212    -0.000456425082
       4       -0.000469580654    -0.000907600678    -0.000235753272
       5        0.000481424280     0.000903092543     0.000447879529
       6        0.000004066172     0.000004139882     0.000016785965
       7        0.000433480672     0.000844036742     0.000253238740
       8       -0.000018098952     0.000000457400    -0.000016920281
       9       -0.000036913575     0.000005378299     0.000008531237

  **** Optimization is complete! (in 5 steps) ****
    Final optimized geometry and variables:
    Molecular point group: c1

    Geometry (in Angstrom), charge = 0, multiplicity = 1:

    H           -2.121921826302    -0.691697862123    -0.581757119791
    O           -2.042715570785    -0.067600883969     0.118111706577
    C           -0.965247981262     0.772874560675    -0.098967228145
    C            0.354213347522     0.038312212697    -0.009984292803
    H           -0.998988168729     1.266698255621    -1.063875271693
    H           -0.972063314254     1.529520869838     0.671241308236
    F            0.592268219335    -0.421807342566     1.195327307369
    F            0.384782212680    -0.987827253275    -0.840480756463
    F            1.345801503908     0.842536403648    -0.333779132286

  Mulliken Charges: (a.u.)
   Center  Symbol    Alpha    Beta     Spin     Total
       1     H     0.38625  0.38625  0.00000  0.22751
       2     O     4.19232  4.19232  0.00000 -0.38465
       3     C     2.99093  2.99093  0.00000  0.01815
       4     C     2.68351  2.68351  0.00000  0.63297
       5     H     0.46217  0.46217  0.00000  0.07567
       6     H     0.44769  0.44769  0.00000  0.10462
       7     F     4.60778  4.60778  0.00000 -0.21557
       8     F     4.61700  4.61700  0.00000 -0.23399
       9     F     4.61235  4.61235  0.00000 -0.22470

   Total alpha = 25.00000, Total beta = 25.00000, Total charge = -0.00000

*** Psi4 exiting successfully. Buy a developer a beer!
