                              Psi4 1.0.54 Driver

  ==> Input File <==

--------------------------------------------------------------------------
set {
	reference rhf
	basis cc-pvtz
}

set_num_threads( 4 )
memory 2 gb

molecule MOL {
0 1

H	 3.951972	 -0.470856	 2.173382
C	 3.369280	 -0.774779	 1.311866
C	 2.067229	 0.013681	 1.224425
H	 3.980826	 -0.619884	 0.429224
H	 3.181213	 -1.839620	 1.399973
C	 1.215950	 -0.382441	 0.027187
H	 2.277711	 1.075686	 1.164370
H	 1.493627	 -0.136689	 2.135987
N	 0.000002	 0.398953	 -0.040851
H	 1.778502	 -0.209473	 -0.885384
H	 1.014298	 -1.457120	 0.065729
C	 -1.215959	 -0.382435	 0.027143
H	 -0.000012	 1.086078	 0.683841
C	 -2.451944	 0.502410	 -0.038737
H	 -1.221867	 -1.069392	 -0.813828
H	 -1.259993	 -0.999709	 0.929424
C	 -3.752217	 -0.292550	 0.005776
H	 -2.407325	 1.093801	 -0.946480
H	 -2.431979	 1.206234	 0.790023
H	 -3.817783	 -0.982946	 -0.828547
H	 -4.612613	 0.364348	 -0.042306
H	 -3.830160	 -0.871666	 0.919868

	symmetry c1
}
set optking {
	frozen_dihedral = ("
		10 6 9 12
	")
}

ee,wfn = optimize('scf', return_wfn=True)
oeprop( wfn, 'DIPOLE', 'QUADRUPOLE', 'MULLIKEN_CHARGES')
f=open( 'psi4out.xyz', 'w' )
f.write( "22  " )
f.write( str(ee) + "\n" )
f.write( MOL.save_string_xyz() )
f.close()
--------------------------------------------------------------------------

    Molecular point group: c1
  Charge       = 0
  Multiplicity = 1
  Basis Set: CC-PVTZ
  Basis Set:
  @DF-RHF Final Energy:  -290.48415616671059
    Total Energy =                       -290.4841561667107044
    Molecular point group: c1
  Basis Set: CC-PVTZ
  Basis Set:
  Basis Set: CC-PVTZ
  Basis Set:
  @DF-RHF Final Energy:  -290.48477547454797
    Total Energy =                       -290.4847754745482575
  Basis Set: CC-PVTZ
  Basis Set:
  Basis Set: CC-PVTZ
  Basis Set:
  @DF-RHF Final Energy:  -290.48489174300926
    Total Energy =                       -290.4848917430089728
  Basis Set: CC-PVTZ
  Basis Set:
  Basis Set: CC-PVTZ
  Basis Set:
  @DF-RHF Final Energy:  -290.48489816283296
    Total Energy =                       -290.4848981628329057
  Basis Set: CC-PVTZ
  Basis Set:
  Basis Set: CC-PVTZ
  Basis Set:
  @DF-RHF Final Energy:  -290.48489978483735
    Total Energy =                       -290.4848997848372960
  Basis Set: CC-PVTZ
  Basis Set:
  Charge       = 0
  Multiplicity = 1
  Basis Set: CC-PVTZ
  Basis Set:

    Orbital Energies (a.u.)
    -----------------------

    Doubly Occupied:

       1A    -15.524347     2A    -11.236300     3A    -11.235740
       4A    -11.216375     5A    -11.211247     6A    -11.209913
       7A    -11.207230     8A     -1.202979     9A     -1.060869
      10A     -1.027647    11A     -0.929205    12A     -0.869471
      13A     -0.813094    14A     -0.799078    15A     -0.651618
      16A     -0.645054    17A     -0.615754    18A     -0.609064
      19A     -0.574892    20A     -0.555769    21A     -0.546048
      22A     -0.521600    23A     -0.517071    24A     -0.486125
      25A     -0.483104    26A     -0.477131    27A     -0.470767
      28A     -0.455159    29A     -0.353290

  @DF-RHF Final Energy:  -290.48489994306021

   => Energetics <=

    Nuclear Repulsion Energy =            314.7887670887998866
    One-Electron Energy =               -1015.5354553170672034
    Two-Electron Energy =                 410.2617882852072171
    DFT Exchange-Correlation Energy =       0.0000000000000000
    Empirical Dispersion Energy =           0.0000000000000000
    PCM Polarization Energy =               0.0000000000000000
    EFP Energy =                            0.0000000000000000
    Total Energy =                       -290.4848999430600998
    Molecular point group: c1
  Basis Set: CC-PVTZ
  Basis Set:

  -Total Gradient:
     Atom            X                  Y                   Z
    ------   -----------------  -----------------  -----------------
       1        0.000003914790    -0.000004605106     0.000001102597
       2        0.000007856232    -0.000003435575     0.000003993985
       3       -0.000034706808     0.000020333868    -0.000015315945
       4       -0.000004541064     0.000003182464    -0.000001732737
       5       -0.000001651055     0.000000855138     0.000001248013
       6       -0.000199479068    -0.000374981548    -0.000076366142
       7        0.000002189116    -0.000008603075     0.000006073417
       8        0.000005852413     0.000002695060    -0.000003289412
       9        0.000034080139     0.000052045477    -0.000395961675
      10        0.000171400255     0.000308281129     0.000176693169
      11       -0.000013039726    -0.000005577109    -0.000000198932
      12        0.000010074668     0.000011975597     0.000306460784
      13        0.000013408019    -0.000004078667    -0.000000048048
      14       -0.000003080674     0.000004155033     0.000004505440
      15       -0.000005842431    -0.000003351730    -0.000003352792
      16       -0.000001128080     0.000006677957    -0.000002854083
      17        0.000005942376    -0.000003067899    -0.000001572596
      18        0.000001700736    -0.000002745335    -0.000002567587
      19        0.000001166706    -0.000001557508     0.000003182758
      20       -0.000000827469    -0.000000763670    -0.000001348857
      21        0.000005881519     0.000002543002    -0.000000288018
      22        0.000000829400     0.000000022497     0.000001636662

  **** Optimization is complete! (in 6 steps) ****
    Final optimized geometry and variables:
    Molecular point group: c1

    Geometry (in Angstrom), charge = 0, multiplicity = 1:

    H            4.080158521354    -0.429255485429     1.804846713209
    C            3.493309086465    -0.700385506694     0.935219098754
    C            2.188078280378     0.085613418618     0.885076475728
    H            4.098570318045    -0.510011944850     0.055540398680
    H            3.306351322326    -1.767978982076     0.982567943099
    C            1.333613423707    -0.258463678629    -0.329824103782
    H            2.408679362834     1.150011609522     0.869685564834
    H            1.613665614539    -0.099539057906     1.788958279958
    N            0.109844228117     0.526582790803    -0.410435740594
    H            1.925579929966    -0.106475203048    -1.228425560917
    H            1.088219379350    -1.316365817134    -0.298634594705
    C           -1.125397122195    -0.225716824111    -0.353028482174
    H            0.107313933153     1.237323667087     0.287976414800
    C           -2.336237257480     0.693213026100    -0.411742959238
    H           -1.151649881905    -0.902225372887    -1.201695968590
    H           -1.190700909076    -0.850872778522     0.542570543852
    C           -3.658013353437    -0.066110382106    -0.380782682999
    H           -2.272262054206     1.294037603681    -1.312177398269
    H           -2.299594695305     1.386082110656     0.425756003293
    H           -3.739525360016    -0.744645625611    -1.223358158877
    H           -4.499756955719     0.614882187986    -0.424063929020
    H           -3.755249488407    -0.653256170949     0.526319938819

  Mulliken Charges: (a.u.)
   Center  Symbol    Alpha    Beta     Spin     Total
       1     H     0.44779  0.44779  0.00000  0.10441
       2     C     3.15261  3.15261  0.00000 -0.30523
       3     C     3.09071  3.09071  0.00000 -0.18143
       4     H     0.45392  0.45392  0.00000  0.09215
       5     H     0.45454  0.45454  0.00000  0.09093
       6     C     3.02474  3.02474  0.00000 -0.04948
       7     H     0.45442  0.45442  0.00000  0.09116
       8     H     0.45408  0.45408  0.00000  0.09184
       9     N     3.64405  3.64405  0.00000 -0.28809
      10     H     0.45553  0.45553  0.00000  0.08893
      11     H     0.46456  0.46456  0.00000  0.07088
      12     C     3.02067  3.02067  0.00000 -0.04134
      13     H     0.44408  0.44408  0.00000  0.11183
      14     C     3.08263  3.08263  0.00000 -0.16526
      15     H     0.45847  0.45847  0.00000  0.08306
      16     H     0.47656  0.47656  0.00000  0.04687
      17     C     3.15308  3.15308  0.00000 -0.30615
      18     H     0.44896  0.44896  0.00000  0.10208
      19     H     0.45987  0.45987  0.00000  0.08025
      20     H     0.45473  0.45473  0.00000  0.09054
      21     H     0.44775  0.44775  0.00000  0.10449
      22     H     0.45622  0.45622  0.00000  0.08755

   Total alpha = 29.00000, Total beta = 29.00000, Total charge = -0.00000

*** Psi4 exiting successfully. Buy a developer a beer!
