  ==> Input File <==

--------------------------------------------------------------------------
set {
	reference rhf
	basis cc-pvtz
}

set_num_threads( 4 )
memory 2 gb

molecule MOL {
0 1

H	 -3.436473	 1.252944	 -1.023892
O	 -3.458596	 0.315260	 -0.960865
C	 -3.176635	 -0.080824	 0.355601
C	 -1.763371	 0.265266	 0.799691
H	 -3.321825	 -1.153438	 0.379502
H	 -3.895468	 0.357385	 1.043382
C	 -0.673390	 -0.426948	 -0.013392
H	 -1.631049	 1.344913	 0.747560
H	 -1.664587	 -0.001624	 1.849167
C	 0.737842	 -0.043159	 0.423759
H	 -0.806103	 -0.190518	 -1.063345
H	 -0.797221	 -1.503753	 0.074146
C	 1.824000	 -0.743224	 -0.390623
H	 0.850588	 1.033777	 0.343840
H	 0.868587	 -0.286314	 1.476203
C	 3.255957	 -0.453067	 0.062319
H	 1.718250	 -0.470599	 -1.438164
H	 1.658105	 -1.815850	 -0.339904
C	 4.181631	 -1.667242	 0.069447
H	 3.220886	 -0.037591	 1.064778
H	 3.682226	 0.320929	 -0.570646
H	 3.777752	 -2.460734	 0.690196
H	 5.156760	 -1.404856	 0.463807
H	 4.331262	 -2.069481	 -0.925248

	symmetry c1
}
set optking {
	frozen_dihedral = ("
		20 16 13 17
	")
}

ee = optimize('scf')
oeprop('DIPOLE', 'QUADRUPOLE', 'MULLIKEN_CHARGES')
f=open( 'psi4out.xyz', 'w' )
f.write( "24  " )
f.write( str(ee) + "\n" )
f.write( MOL.save_string_xyz() )
f.close()
--------------------------------------------------------------------------

    Molecular point group: c1
  Charge       = 0
  Multiplicity = 1
  Basis Set: CC-PVTZ
  Basis Set:
  @DF-RHF Final Energy:  -349.37738159294946
    Total Energy =                       -349.3773815929496891
    Molecular point group: c1
  Basis Set: CC-PVTZ
  Basis Set:
  Basis Set: CC-PVTZ
  Basis Set:
  @DF-RHF Final Energy:  -349.37809959888705
    Total Energy =                       -349.3780995988871609
  Basis Set: CC-PVTZ
  Basis Set:
  Basis Set: CC-PVTZ
  Basis Set:
  @DF-RHF Final Energy:  -349.37815979601271
    Total Energy =                       -349.3781597960120280
  Basis Set: CC-PVTZ
  Basis Set:
  Basis Set: CC-PVTZ
  Basis Set:
  @DF-RHF Final Energy:  -349.37816163107954
    Total Energy =                       -349.3781616310796494
  Basis Set: CC-PVTZ
  Basis Set:
  Basis Set: CC-PVTZ
  Basis Set:
  @DF-RHF Final Energy:  -349.37816336140469
    Total Energy =                       -349.3781633614045177
  Basis Set: CC-PVTZ
  Basis Set:
  Charge       = 0
  Multiplicity = 1
  Basis Set: CC-PVTZ
  Basis Set:

    Orbital Energies (a.u.)
    -----------------------

    Doubly Occupied:

       1A    -20.546311     2A    -11.265532     3A    -11.215218
       4A    -11.211407     5A    -11.210747     6A    -11.209070
       7A    -11.208825     8A    -11.205849     9A     -1.364164
      10A     -1.089081    11A     -1.049130    12A     -0.989108
      13A     -0.914751    14A     -0.843160    15A     -0.798542
      16A     -0.788338    17A     -0.681687    18A     -0.656951
      19A     -0.629231    20A     -0.616108    21A     -0.593253
      22A     -0.587830    23A     -0.554339    24A     -0.538854
      25A     -0.529940    26A     -0.503933    27A     -0.495663
      28A     -0.474135    29A     -0.465714    30A     -0.460515
      31A     -0.456938    32A     -0.454452    33A     -0.420220

  @DF-RHF Final Energy:  -349.37816348643184

   => Energetics <=

    Nuclear Repulsion Energy =            381.0406681770590467
    One-Electron Energy =               -1228.7796751033715736
    Two-Electron Energy =                 498.3608434398805116
    DFT Exchange-Correlation Energy =       0.0000000000000000
    Empirical Dispersion Energy =           0.0000000000000000
    PCM Polarization Energy =               0.0000000000000000
    EFP Energy =                            0.0000000000000000
    Total Energy =                       -349.3781634864320154
    Molecular point group: c1
  Basis Set: CC-PVTZ
  Basis Set:

  -Total Gradient:
     Atom            X                  Y                   Z
    ------   -----------------  -----------------  -----------------
       1        0.000000626165    -0.000000876069     0.000000875079
       2        0.000002229440    -0.000002985972    -0.000000817156
       3       -0.000000712725     0.000004362503    -0.000000611991
       4        0.000007906499    -0.000003243927     0.000001586337
       5        0.000000211171     0.000000273962    -0.000001011487
       6        0.000000754322    -0.000000471621     0.000000994147
       7        0.000002942801     0.000015920026    -0.000009168596
       8       -0.000002670765    -0.000001366083    -0.000001137717
       9        0.000000599871     0.000000977122     0.000002176249
      10       -0.000021528817    -0.000002855374     0.000010483750
      11       -0.000004805700    -0.000000119254    -0.000007608127
      12        0.000002933850     0.000002252583     0.000003484520
      13        0.001492243392    -0.003642250784    -0.001609058931
      14       -0.000006126754    -0.000005369913     0.000000438803
      15       -0.000000106168    -0.000010192478    -0.000001327045
      16        0.000344087458    -0.003678282474     0.002247350825
      17       -0.001311018080     0.003659394598     0.001005638693
      18        0.000010604299     0.000008237240     0.000002624608
      19        0.000002421333     0.000010665525    -0.000004824788
      20       -0.000527920324     0.003632992023    -0.001629957935
      21        0.000013963690     0.000006842797    -0.000015462235
      22       -0.000000236602     0.000006885866     0.000005512315
      23       -0.000010851247    -0.000003952769    -0.000004442419
      24        0.000004452886     0.000003162474     0.000004263097

  **** Optimization is complete! (in 6 steps) ****
    Final optimized geometry and variables:
    Molecular point group: c1

    Geometry (in Angstrom), charge = 0, multiplicity = 1:

    H           -3.445512728551     1.670884007396    -1.060592352173
    O           -3.496797173112     0.733408467496    -1.013818473684
    C           -3.247683207339     0.307579097752     0.299906249693
    C           -1.831519223201     0.602624213075     0.770824860240
    H           -3.426001522751    -0.760296852538     0.303367158531
    H           -3.963486530476     0.756373199751     0.984017509796
    C           -0.750579121145    -0.107960895490    -0.038580213638
    H           -1.665728762933     1.678474667659     0.739929441998
    H           -1.756792159195     0.314668180781     1.816679459314
    C            0.664164459996     0.225074493256     0.425146319918
    H           -0.861137468755     0.149529985310    -1.086126735098
    H           -0.907394193965    -1.182104943376     0.028847168868
    C            1.749382997683    -0.500492752262    -0.369127763606
    H            0.823999971114     1.298574320297     0.348892192694
    H            0.768131774546    -0.021917342938     1.479284894659
    C            3.174459181539    -0.108309366567     0.054600225906
    H            1.606162387137    -0.263883239327    -1.419150530771
    H            1.609872212393    -1.572125442218    -0.262760139752
    C            4.169180264823    -1.262285461445     0.013097331731
    H            3.153175948329     0.332796826435     1.046582478339
    H            3.529536821405     0.686439696354    -0.595198723211
    H            3.881699247992    -2.050144448441     0.701433010886
    H            5.166669898634    -0.933665541330     0.282098569048
    H            4.220571103637    -1.696694838349    -0.979978987946

  Mulliken Charges: (a.u.)
   Center  Symbol    Alpha    Beta     Spin     Total
       1     H     0.39531  0.39531  0.00000  0.20937
       2     O     4.20370  4.20370  0.00000 -0.40740
       3     C     2.97776  2.97776  0.00000  0.04447
       4     C     3.10222  3.10222  0.00000 -0.20443
       5     H     0.45889  0.45889  0.00000  0.08222
       6     H     0.46026  0.46026  0.00000  0.07948
       7     C     3.08862  3.08862  0.00000 -0.17725
       8     H     0.45903  0.45903  0.00000  0.08194
       9     H     0.45333  0.45333  0.00000  0.09335
      10     C     3.08962  3.08962  0.00000 -0.17924
      11     H     0.44650  0.44650  0.00000  0.10699
      12     H     0.45519  0.45519  0.00000  0.08961
      13     C     3.08909  3.08909  0.00000 -0.17817
      14     H     0.45461  0.45461  0.00000  0.09078
      15     H     0.45597  0.45597  0.00000  0.08805
      16     C     3.08648  3.08648  0.00000 -0.17297
      17     H     0.45275  0.45275  0.00000  0.09450
      18     H     0.45440  0.45440  0.00000  0.09121
      19     C     3.14801  3.14801  0.00000 -0.29602
      20     H     0.45511  0.45511  0.00000  0.08978
      21     H     0.45342  0.45342  0.00000  0.09316
      22     H     0.45594  0.45594  0.00000  0.08812
      23     H     0.44967  0.44967  0.00000  0.10066
      24     H     0.45411  0.45411  0.00000  0.09177

   Total alpha = 33.00000, Total beta = 33.00000, Total charge = -0.00000
