  ==> Input File <==

--------------------------------------------------------------------------
set {
	reference rhf
	basis 6-31G*
}

set_num_threads( 1 )
memory 2 gb

molecule MOL {
0 1

H	 -3.581306	 -0.272170	 0.702178
C	 -3.377600	 -0.051814	 -0.353080
C	 -2.525885	 1.167999	 -0.596485
O	 -3.818757	 -0.752290	 -1.205409
C	 -1.220012	 1.144545	 0.209990
H	 -2.335782	 1.245689	 -1.660691
H	 -3.115294	 2.034282	 -0.298482
C	 -0.252658	 0.041456	 -0.226725
H	 -0.735193	 2.110853	 0.107597
H	 -1.450926	 1.032563	 1.268241
C	 1.180775	 0.282413	 0.250794
H	 -0.266029	 -0.034465	 -1.312038
H	 -0.597733	 -0.921000	 0.146291
C	 2.148627	 -0.814315	 -0.201312
H	 1.516199	 1.249228	 -0.115937
H	 1.192670	 0.346017	 1.338083
C	 3.580890	 -0.659131	 0.322722
H	 2.166869	 -0.852443	 -1.289387
H	 1.762857	 -1.776509	 0.128956
C	 4.324889	 0.564933	 -0.213704
H	 4.142010	 -1.551473	 0.056605
H	 3.564836	 -0.624694	 1.410140
H	 4.342616	 0.565491	 -1.300421
H	 3.866655	 1.493402	 0.110242
H	 5.353900	 0.572371	 0.132816

	symmetry c1
}
set optking {
	frozen_dihedral = ("
		6 3 5 8,
		6 3 2 4,
		12 8 11 14,
		8 11 14 18,
		20 17 14 18
	")
}

ee = energy('scf')
oeprop('DIPOLE', 'QUADRUPOLE', 'MULLIKEN_CHARGES')
f=open( 'psi4out.xyz', 'w' )
f.write( "25  " )
f.write( str(ee) + "\n" )
f.write( MOL.save_string_xyz() )
f.close()
--------------------------------------------------------------------------

    Molecular point group: c1

    Geometry (in Angstrom), charge = 0, multiplicity = 1:

       Center              X                  Y                   Z               Mass
    ------------   -----------------  -----------------  -----------------  -----------------
           H         -3.590499017969    -0.371557117721     0.932854710790     1.007825032070
           C         -3.386793017969    -0.151201117721    -0.122403289210    12.000000000000
           C         -2.535078017969     1.068611882279    -0.365808289210    12.000000000000
           O         -3.827950017969    -0.851677117721    -0.974732289210    15.994914619560
           C         -1.229205017969     1.045157882279     0.440666710790    12.000000000000
           H         -2.344975017969     1.146301882279    -1.430014289210     1.007825032070
           H         -3.124487017969     1.934894882279    -0.067805289210     1.007825032070
           C         -0.261851017969    -0.057931117721     0.003951710790    12.000000000000
           H         -0.744386017969     2.011465882279     0.338273710790     1.007825032070
           H         -1.460119017969     0.933175882279     1.498917710790     1.007825032070
           C          1.171581982031     0.183025882279     0.481470710790    12.000000000000
           H         -0.275222017969    -0.133852117721    -1.081361289210     1.007825032070
           H         -0.606926017969    -1.020387117721     0.376967710790     1.007825032070
           C          2.139433982031    -0.913702117721     0.029364710790    12.000000000000
           H          1.507005982031     1.149840882279     0.114739710790     1.007825032070
           H          1.183476982031     0.246629882279     1.568759710790     1.007825032070
           C          3.571696982031    -0.758518117721     0.553398710790    12.000000000000
           H          2.157675982031    -0.951830117721    -1.058710289210     1.007825032070
           H          1.753663982031    -1.875896117721     0.359632710790     1.007825032070
           C          4.315695982031     0.465545882279     0.016972710790    12.000000000000
           H          4.132816982031    -1.650860117721     0.287281710790     1.007825032070
           H          3.555642982031    -0.724081117721     1.640816710790     1.007825032070
           H          4.333422982031     0.466103882279    -1.069744289210     1.007825032070
           H          3.857461982031     1.394014882279     0.340918710790     1.007825032070
           H          5.344706982031     0.472983882279     0.363492710790     1.007825032070

  Charge       = 0
  Multiplicity = 1
  Basis Set: 6-31G*
  Basis Set:

    Orbital Energies (a.u.)
    -----------------------

    Doubly Occupied:

       1A    -20.561875     2A    -11.326020     3A    -11.235155
       4A    -11.234571     5A    -11.223560     6A    -11.219958
       7A    -11.218013     8A    -11.216932     9A    -11.210668
      10A     -1.401817    11A     -1.103993    12A     -1.069701
      13A     -1.013349    14A     -0.942430    15A     -0.875084
      16A     -0.820945    17A     -0.787669    18A     -0.781723
      19A     -0.664812    20A     -0.660832    21A     -0.633229
      22A     -0.625883    23A     -0.600556    24A     -0.595143
      25A     -0.576805    26A     -0.547354    27A     -0.536792
      28A     -0.524696    29A     -0.508488    30A     -0.495760
      31A     -0.491889    32A     -0.478272    33A     -0.464406
      34A     -0.459251    35A     -0.441040    36A     -0.409280

  @DF-RHF Final Energy:  -387.12100461671861

   => Energetics <=

    Nuclear Repulsion Energy =            438.8960619069103473
    One-Electron Energy =               -1394.1182259317238277
    Two-Electron Energy =                 568.1011594080938494
    DFT Exchange-Correlation Energy =       0.0000000000000000
    Empirical Dispersion Energy =           0.0000000000000000
    PCM Polarization Energy =               0.0000000000000000
    EFP Energy =                            0.0000000000000000
    Total Energy =                       -387.1210046167196879

  Mulliken Charges: (a.u.)
   Center  Symbol    Alpha    Beta     Spin     Total
       1     H     0.43268  0.43268  0.00000  0.13464
       2     C     2.83059  2.83059  0.00000  0.33883
       3     C     3.20897  3.20897  0.00000 -0.41794
       4     O     4.23763  4.23763  0.00000 -0.47525
       5     C     3.16641  3.16641  0.00000 -0.33281
       6     H     0.39960  0.39960  0.00000  0.20080
       7     H     0.40693  0.40693  0.00000  0.18614
       8     C     3.15552  3.15552  0.00000 -0.31104
       9     H     0.41281  0.41281  0.00000  0.17438
      10     H     0.41874  0.41874  0.00000  0.16253
      11     C     3.15469  3.15469  0.00000 -0.30939
      12     H     0.41670  0.41670  0.00000  0.16661
      13     H     0.41904  0.41904  0.00000  0.16192
      14     C     3.15319  3.15319  0.00000 -0.30637
      15     H     0.42066  0.42066  0.00000  0.15869
      16     H     0.42361  0.42361  0.00000  0.15279
      17     C     3.15274  3.15274  0.00000 -0.30549
      18     H     0.42264  0.42264  0.00000  0.15472
      19     H     0.42104  0.42104  0.00000  0.15791
      20     C     3.24135  3.24135  0.00000 -0.48270
      21     H     0.42000  0.42000  0.00000  0.16000
      22     H     0.42330  0.42330  0.00000  0.15340
      23     H     0.42177  0.42177  0.00000  0.15646
      24     H     0.42073  0.42073  0.00000  0.15854
      25     H     0.41867  0.41867  0.00000  0.16265

   Total alpha = 36.00000, Total beta = 36.00000, Total charge =  0.00000
