                              Psi4 1.0.54 Driver

  ==> Input File <==

--------------------------------------------------------------------------
set {
	reference rhf
	basis cc-pvtz
}

set_num_threads( 4 )
memory 2 gb

molecule MOL {
0 1

H	 -3.436473	 1.252944	 -1.023892
O	 -3.458596	 0.315260	 -0.960865
C	 -3.176635	 -0.080824	 0.355601
C	 -1.763371	 0.265266	 0.799691
H	 -3.321825	 -1.153438	 0.379502
H	 -3.895468	 0.357385	 1.043382
C	 -0.673390	 -0.426948	 -0.013392
H	 -1.631049	 1.344913	 0.747560
H	 -1.664587	 -0.001624	 1.849167
C	 0.737842	 -0.043159	 0.423759
H	 -0.806103	 -0.190518	 -1.063345
H	 -0.797221	 -1.503753	 0.074146
C	 1.824000	 -0.743224	 -0.390623
H	 0.850588	 1.033777	 0.343840
H	 0.868587	 -0.286314	 1.476203
C	 3.255957	 -0.453067	 0.062319
H	 1.718250	 -0.470599	 -1.438164
H	 1.658105	 -1.815850	 -0.339904
C	 3.402204	 -0.126592	 1.546627
H	 3.635552	 0.383697	 -0.516049
H	 3.888658	 -1.301957	 -0.183641
H	 2.775740	 0.715463	 1.823328
H	 4.427449	 0.134021	 1.783679
H	 3.126499	 -0.964405	 2.175643

	symmetry c1
}
set optking {
	frozen_dihedral = ("
		20 16 13 17
	")
}

ee,wfn = optimize('scf', return_wfn=True)
oeprop( wfn, 'DIPOLE', 'QUADRUPOLE', 'MULLIKEN_CHARGES')
f=open( 'psi4out.xyz', 'w' )
f.write( "24  " )
f.write( str(ee) + "\n" )
f.write( MOL.save_string_xyz() )
f.close()
--------------------------------------------------------------------------

    Molecular point group: c1
  Charge       = 0
  Multiplicity = 1
  Basis Set: CC-PVTZ
  Basis Set:
  @DF-RHF Final Energy:  -349.37434647464283
    Total Energy =                       -349.3743464746429481
    Molecular point group: c1
  Basis Set: CC-PVTZ
  Basis Set:
  Basis Set: CC-PVTZ
  Basis Set:
  @DF-RHF Final Energy:  -349.37132864881744
    Total Energy =                       -349.3713286488173821
  Basis Set: CC-PVTZ
  Basis Set:
  Basis Set: CC-PVTZ
  Basis Set:
  @DF-RHF Final Energy:  -349.37625294157550
    Total Energy =                       -349.3762529415748190
  Basis Set: CC-PVTZ
  Basis Set:
  Basis Set: CC-PVTZ
  Basis Set:
  @DF-RHF Final Energy:  -349.37650738881536
    Total Energy =                       -349.3765073888156962
  Basis Set: CC-PVTZ
  Basis Set:
  Basis Set: CC-PVTZ
  Basis Set:
  @DF-RHF Final Energy:  -349.37651809488705
    Total Energy =                       -349.3765180948873308
  Basis Set: CC-PVTZ
  Basis Set:
  Basis Set: CC-PVTZ
  Basis Set:
  @DF-RHF Final Energy:  -349.37654017957715
    Total Energy =                       -349.3765401795774324
  Basis Set: CC-PVTZ
  Basis Set:
  Charge       = 0
  Multiplicity = 1
  Basis Set: CC-PVTZ
  Basis Set:

    Orbital Energies (a.u.)
    -----------------------

    Doubly Occupied:

       1A    -20.546191     2A    -11.265387     3A    -11.214973
       4A    -11.212118     5A    -11.209999     6A    -11.209387
       7A    -11.208597     8A    -11.205713     9A     -1.364043
      10A     -1.088968    11A     -1.048139    12A     -0.986126
      13A     -0.916497    14A     -0.854124    15A     -0.802462
      16A     -0.770522    17A     -0.681671    18A     -0.657264
      19A     -0.628088    20A     -0.619092    21A     -0.594468
      22A     -0.587437    23A     -0.555405    24A     -0.545350
      25A     -0.518907    26A     -0.505674    27A     -0.503155
      28A     -0.471020    29A     -0.469599    30A     -0.460449
      31A     -0.453343    32A     -0.449501    33A     -0.420599

  @DF-RHF Final Energy:  -349.37654060907187

   => Energetics <=

    Nuclear Repulsion Energy =            385.5067035104644901
    One-Electron Energy =               -1237.7179612571906091
    Two-Electron Energy =                 502.8347171376541382
    DFT Exchange-Correlation Energy =       0.0000000000000000
    Empirical Dispersion Energy =           0.0000000000000000
    PCM Polarization Energy =               0.0000000000000000
    EFP Energy =                            0.0000000000000000
    Total Energy =                       -349.3765406090719807
    Molecular point group: c1
  Basis Set: CC-PVTZ
  Basis Set:

  -Total Gradient:
     Atom            X                  Y                   Z
    ------   -----------------  -----------------  -----------------
       1       -0.000000003127    -0.000012178075     0.000009345297
       2        0.000004735507     0.000010662335     0.000013332376
       3       -0.000013468118    -0.000011918162     0.000001574789
       4        0.000020049763    -0.000024786669     0.000017346147
       5        0.000000097910     0.000006153454    -0.000001404570
       6        0.000006208670    -0.000001360161    -0.000013742019
       7       -0.000022660781     0.000029000853     0.000013315386
       8       -0.000002677127    -0.000020013663    -0.000012483142
       9       -0.000004818766     0.000005728088     0.000003982535
      10       -0.000034885835     0.000036994995    -0.000068350376
      11        0.000010182932     0.000019080192     0.000017086102
      12        0.000007349846     0.000014350064    -0.000005864573
      13        0.002221567802    -0.008195955425    -0.001756284681
      14       -0.000030835716     0.000003241790    -0.000024049048
      15        0.000013944765     0.000009336402     0.000003418803
      16       -0.002467186078     0.006919462715     0.004699178583
      17       -0.001496242563     0.005807168623     0.000787224921
      18       -0.000007630867    -0.000009177394    -0.000026813621
      19        0.000002189315     0.000009835902    -0.000037737327
      20        0.001719101526    -0.004543496466    -0.003622679365
      21        0.000046728470    -0.000000645962     0.000025391938
      22        0.000051056947    -0.000064556529    -0.000024803834
      23       -0.000019570809    -0.000005309042     0.000030707092
      24       -0.000003233665     0.000018382138    -0.000027691418

  **** Optimization is complete! (in 7 steps) ****
    Final optimized geometry and variables:
    Molecular point group: c1

    Geometry (in Angstrom), charge = 0, multiplicity = 1:

    H           -3.302581952928     1.460418274571    -1.417175406467
    O           -3.397976083711     0.544106458167    -1.230287914233
    C           -3.150330007125     0.307217565672     0.130531767052
    C           -1.715159531168     0.599617140714     0.541894502415
    H           -3.378876776205    -0.738185337111     0.295018989485
    H           -3.834230817282     0.887482291635     0.744819078581
    C           -0.680808809210    -0.276116829881    -0.159184386154
    H           -1.499141794833     1.649329299895     0.348618470459
    H           -1.639416076138     0.468130930209     1.618590006181
    C            0.755283024892     0.052386268600     0.240592069394
    H           -0.794263483393    -0.173398565783    -1.232622269138
    H           -0.887753081353    -1.318983139170     0.070084633973
    C            1.778959524498    -0.851346600955    -0.449917990613
    H            0.965377818028     1.090955434846    -0.006565973970
    H            0.850943997316    -0.029183473706     1.318776078628
    C            3.254758562697    -0.505969412936    -0.182470860761
    H            1.599976531184    -0.760078269515    -1.516760468422
    H            1.583540515079    -1.882131303493    -0.171390093619
    C            3.598927405069    -0.028940303791     1.224453256770
    H            3.597161952971     0.210515337690    -0.923258101847
    H            3.840906468273    -1.397924513743    -0.387618985731
    H            3.131009183312     0.918532968103     1.460940571932
    H            4.670237511208     0.100868834507     1.326368295968
    H            3.283824007567    -0.749400650933     1.972355995212

  Mulliken Charges: (a.u.)
   Center  Symbol    Alpha    Beta     Spin     Total
       1     H     0.39533  0.39533  0.00000  0.20934
       2     O     4.20374  4.20374  0.00000 -0.40748
       3     C     2.97787  2.97787  0.00000  0.04426
       4     C     3.10163  3.10163  0.00000 -0.20326
       5     H     0.45881  0.45881  0.00000  0.08238
       6     H     0.46029  0.46029  0.00000  0.07942
       7     C     3.08919  3.08919  0.00000 -0.17838
       8     H     0.45923  0.45923  0.00000  0.08155
       9     H     0.45344  0.45344  0.00000  0.09313
      10     C     3.09189  3.09189  0.00000 -0.18379
      11     H     0.44587  0.44587  0.00000  0.10826
      12     H     0.45556  0.45556  0.00000  0.08888
      13     C     3.09541  3.09541  0.00000 -0.19081
      14     H     0.45466  0.45466  0.00000  0.09068
      15     H     0.45289  0.45289  0.00000  0.09422
      16     C     3.08875  3.08875  0.00000 -0.17751
      17     H     0.45149  0.45149  0.00000  0.09703
      18     H     0.45162  0.45162  0.00000  0.09675
      19     C     3.15684  3.15684  0.00000 -0.31369
      20     H     0.45274  0.45274  0.00000  0.09452
      21     H     0.45174  0.45174  0.00000  0.09652
      22     H     0.45222  0.45222  0.00000  0.09557
      23     H     0.44504  0.44504  0.00000  0.10992
      24     H     0.45376  0.45376  0.00000  0.09249

   Total alpha = 33.00000, Total beta = 33.00000, Total charge = -0.00000

*** Psi4 exiting successfully. Buy a developer a beer!
