  ==> Input File <==

--------------------------------------------------------------------------
set {
	reference rhf
	basis cc-pvtz
}

set_num_threads( 4 )
memory 2 gb

molecule MOL {
0 1

H	 -2.816458	 -0.841657	 -0.064679
N	 -1.878861	 -0.711874	 0.250184
C	 -1.341419	 0.551458	 -0.220231
H	 -1.333674	 -1.468530	 -0.105118
C	 0.082190	 0.731516	 0.254705
H	 -1.357065	 0.652078	 -1.304747
H	 -1.939897	 1.357530	 0.189797
O	 0.881195	 -0.248324	 -0.336237
H	 0.440901	 1.722476	 -0.020063
H	 0.119896	 0.643586	 1.338114
C	 0.983822	 -1.425493	 0.393805
H	 1.623072	 -2.102172	 -0.154692
H	 1.421848	 -1.248722	 1.373897
H	 0.012374	 -1.894590	 0.530918

	symmetry c1
}
set optking {
	frozen_dihedral = ("
		11 8 5 3
	")
}

ee = optimize('scf')
oeprop('DIPOLE', 'QUADRUPOLE', 'MULLIKEN_CHARGES')
f=open( 'psi4out.xyz', 'w' )
f.write( "14  " )
f.write( str(ee) + "\n" )
f.write( MOL.save_string_xyz() )
f.close()
--------------------------------------------------------------------------

    Molecular point group: c1
  Charge       = 0
  Multiplicity = 1
  Basis Set: CC-PVTZ
  Basis Set:
  @DF-RHF Final Energy:  -248.21003371907673
    Total Energy =                       -248.2100337190765345
    Molecular point group: c1
  Basis Set: CC-PVTZ
  Basis Set:
  Basis Set: CC-PVTZ
  Basis Set:
  @DF-RHF Final Energy:  -248.21770113978857
    Total Energy =                       -248.2177011397885735
  Basis Set: CC-PVTZ
  Basis Set:
  Basis Set: CC-PVTZ
  Basis Set:
  @DF-RHF Final Energy:  -248.21960967357271
    Total Energy =                       -248.2196096735725632
  Basis Set: CC-PVTZ
  Basis Set:
  Basis Set: CC-PVTZ
  Basis Set:
  @DF-RHF Final Energy:  -248.21980949938248
    Total Energy =                       -248.2198094993822224
  Basis Set: CC-PVTZ
  Basis Set:
  @DF-RHF Final Energy:  -248.21988004309699
    Total Energy =                       -248.2198800430967367
  Basis Set: CC-PVTZ
  Basis Set:
  @DF-RHF Final Energy:  -248.21988762622846
    Total Energy =                       -248.2198876262283420
  Basis Set: CC-PVTZ
  Basis Set:
  Basis Set: CC-PVTZ
  Basis Set:
  @DF-RHF Final Energy:  -248.21989035644341
    Total Energy =                       -248.2198903564433294
  Basis Set: CC-PVTZ
  Basis Set:
  Basis Set: CC-PVTZ
  Basis Set:
  @DF-RHF Final Energy:  -248.21989174457477
    Total Energy =                       -248.2198917445749657
  Basis Set: CC-PVTZ
  Basis Set:
  Charge       = 0
  Multiplicity = 1
  Basis Set: CC-PVTZ
  Basis Set:

    Orbital Energies (a.u.)
    -----------------------

    Doubly Occupied:

       1A    -20.544133     2A    -15.533669     3A    -11.261920
       4A    -11.257292     5A    -11.242977     6A     -1.374571
       7A     -1.182426     8A     -1.001558     9A     -0.910077
      10A     -0.811387    11A     -0.689829    12A     -0.668530
      13A     -0.640701    14A     -0.623156    15A     -0.598676
      16A     -0.540956    17A     -0.533505    18A     -0.510522
      19A     -0.461480    20A     -0.422220    21A     -0.383165

  @DF-RHF Final Energy:  -248.21989206178085

   => Energetics <=

    Nuclear Repulsion Energy =            196.3291618370138281
    One-Electron Energy =                -726.7126073949918919
    Two-Electron Energy =                 282.1635534961970393
    DFT Exchange-Correlation Energy =       0.0000000000000000
    Empirical Dispersion Energy =           0.0000000000000000
    PCM Polarization Energy =               0.0000000000000000
    EFP Energy =                            0.0000000000000000
    Total Energy =                       -248.2198920617810813
    Molecular point group: c1
  Basis Set: CC-PVTZ
  Basis Set:

  -Total Gradient:
     Atom            X                  Y                   Z
    ------   -----------------  -----------------  -----------------
       1        0.000001394280    -0.000001270767    -0.000002733001
       2       -0.000012554883     0.000001789486    -0.000010672396
       3       -0.000509376305    -0.001673189478     0.002062427527
       4       -0.000010797932     0.000009625216    -0.000000539535
       5       -0.000310914277     0.001856277857    -0.003673495828
       6       -0.000004329818     0.000001985453     0.000003553665
       7        0.000000221262     0.000009843173     0.000003921232
       8        0.003073743309     0.001021454390     0.003254973800
       9       -0.000001125712    -0.000011998196    -0.000022514087
      10        0.000000110683     0.000009964904    -0.000004596752
      11       -0.002248069886    -0.001196067080    -0.001640909843
      12        0.000001798329    -0.000007459680     0.000003581534
      13        0.000002071372    -0.000008638989     0.000008665843
      14        0.000017829581    -0.000012316290     0.000018337841

  **** Optimization is complete! (in 9 steps) ****
    Final optimized geometry and variables:
    Molecular point group: c1

    Geometry (in Angstrom), charge = 0, multiplicity = 1:

    H           -2.754699432497    -0.348123012449     0.067697924100
    N           -1.763443558457    -0.429086942277     0.144084329322
    C           -1.116083471216     0.791035475779    -0.314013828797
    H           -1.496040072578    -1.207448162727    -0.419379745586
    C            0.315166893778     0.941882328465     0.173249543743
    H           -1.124108725681     0.890522479932    -1.398345886729
    H           -1.671110191874     1.633703044888     0.085170056639
    O            1.213505108903     0.008291184684    -0.352068220988
    H            0.675323148276     1.916307705698    -0.135095809396
    H            0.329785279711     0.905916321536     1.259917466323
    C            1.383554439097    -1.182300624185     0.351916339893
    H            2.172169644742    -1.733518524466    -0.140678574058
    H            1.684417205981    -0.991252662827     1.379184092285
    H            0.489589722914    -1.791914468978     0.372999150161

  Mulliken Charges: (a.u.)
   Center  Symbol    Alpha    Beta     Spin     Total
       1     H     0.42853  0.42853  0.00000  0.14293
       2     N     3.69485  3.69485  0.00000 -0.38971
       3     C     3.03051  3.03051  0.00000 -0.06102
       4     H     0.42437  0.42437  0.00000  0.15126
       5     C     2.96864  2.96864  0.00000  0.06273
       6     H     0.46422  0.46422  0.00000  0.07155
       7     H     0.45841  0.45841  0.00000  0.08319
       8     O     4.18496  4.18496  0.00000 -0.36992
       9     H     0.45165  0.45165  0.00000  0.09671
      10     H     0.47266  0.47266  0.00000  0.05468
      11     C     3.03063  3.03063  0.00000 -0.06126
      12     H     0.44911  0.44911  0.00000  0.10178
      13     H     0.47000  0.47000  0.00000  0.05999
      14     H     0.47146  0.47146  0.00000  0.05709

   Total alpha = 21.00000, Total beta = 21.00000, Total charge =  0.00000
