                              Psi4 1.0.54 Driver

  ==> Input File <==

--------------------------------------------------------------------------
set {
	reference rhf
	basis cc-pvtz
}

set_num_threads( 4 )
memory 2 gb

molecule MOL {
0 1

H	 -1.525331	 0.680632	 2.229446
C	 -1.140440	 0.363201	 1.283385
C	 -1.926419	 0.430208	 0.088856
C	 0.102604	 -0.113343	 1.179549
H	 -2.930167	 0.808601	 0.138508
C	 -1.420931	 0.026827	 -1.080906
H	 0.751680	 -0.194227	 2.028842
N	 0.640204	 -0.530428	 -0.000115
H	 -1.979278	 0.062523	 -1.993559
C	 -0.065202	 -0.492059	 -1.190392
C	 2.006991	 -1.033007	 -0.000020
O	 0.424055	 -0.863748	 -2.222244
H	 2.182444	 -1.636914	 -0.880881
H	 2.678769	 -0.195442	 -0.002236
H	 2.183828	 -1.633244	 0.883082

	symmetry c1
}
set optking {
	frozen_dihedral = ("
		10 8 11 13
	")
}

ee,wfn = optimize('scf', return_wfn=True)
oeprop( wfn, 'DIPOLE', 'QUADRUPOLE', 'MULLIKEN_CHARGES')
f=open( 'psi4out.xyz', 'w' )
f.write( "15  " )
f.write( str(ee) + "\n" )
f.write( MOL.save_string_xyz() )
f.close()
--------------------------------------------------------------------------

    Molecular point group: c1
  Charge       = 0
  Multiplicity = 1
  Basis Set: CC-PVTZ
  Basis Set:
  @DF-RHF Final Energy:  -360.72231772017193
    Total Energy =                       -360.7223177201718727
    Molecular point group: c1
  Basis Set: CC-PVTZ
  Basis Set:
  Basis Set: CC-PVTZ
  Basis Set:
  @DF-RHF Final Energy:  -360.72267403508175
    Total Energy =                       -360.7226740350813543
  Basis Set: CC-PVTZ
  Basis Set:
  Basis Set: CC-PVTZ
  Basis Set:
  @DF-RHF Final Energy:  -360.72268669467223
    Total Energy =                       -360.7226866946722339
  Basis Set: CC-PVTZ
  Basis Set:
  Basis Set: CC-PVTZ
  Basis Set:
  @DF-RHF Final Energy:  -360.72273216783481
    Total Energy =                       -360.7227321678351473
  Basis Set: CC-PVTZ
  Basis Set:
  Basis Set: CC-PVTZ
  Basis Set:
  @DF-RHF Final Energy:  -360.72273740974072
    Total Energy =                       -360.7227374097408301
  Basis Set: CC-PVTZ
  Basis Set:
  Charge       = 0
  Multiplicity = 1
  Basis Set: CC-PVTZ
  Basis Set:

    Orbital Energies (a.u.)
    -----------------------

    Doubly Occupied:

       1A    -20.501820     2A    -15.616784     3A    -11.339172
       4A    -11.293473     5A    -11.264030     6A    -11.258181
       7A    -11.230425     8A    -11.228241     9A     -1.390688
      10A     -1.285799    11A     -1.118802    12A     -1.028944
      13A     -0.972389    14A     -0.875909    15A     -0.838666
      16A     -0.719218    17A     -0.702871    18A     -0.663542
      19A     -0.652735    20A     -0.625420    21A     -0.611915
      22A     -0.574639    23A     -0.556726    24A     -0.550565
      25A     -0.529755    26A     -0.483203    27A     -0.420409
      28A     -0.410564    29A     -0.310791

  @DF-RHF Final Energy:  -360.72273767277733

   => Energetics <=

    Nuclear Repulsion Energy =            358.5301490420833375
    One-Electron Energy =               -1200.3944197908938349
    Two-Electron Energy =                 481.1415330760330562
    DFT Exchange-Correlation Energy =       0.0000000000000000
    Empirical Dispersion Energy =           0.0000000000000000
    PCM Polarization Energy =               0.0000000000000000
    EFP Energy =                            0.0000000000000000
    Total Energy =                       -360.7227376727773844
    Molecular point group: c1
  Basis Set: CC-PVTZ
  Basis Set:

  -Total Gradient:
     Atom            X                  Y                   Z
    ------   -----------------  -----------------  -----------------
       1       -0.000001709128    -0.000005804503     0.000001355571
       2        0.000016513967    -0.000025146782     0.000003966672
       3       -0.000000973559     0.000015166273    -0.000018691728
       4        0.000002286900     0.000045113588     0.000013706088
       5       -0.000000351209    -0.000005021687     0.000003018825
       6       -0.000004905991     0.000010688514    -0.000003672508
       7       -0.000000260537    -0.000011669499     0.000003065898
       8        0.000262496541     0.000803989305    -0.000249447874
       9        0.000001648700    -0.000005117572    -0.000000258741
      10       -0.000160225444    -0.000496052936     0.000144358271
      11       -0.000283638178    -0.000806849352     0.000441614288
      12       -0.000002929385     0.000000642712    -0.000027621455
      13        0.000169216767     0.000493812217    -0.000316208226
      14        0.000006524309    -0.000008816451     0.000003992888
      15       -0.000003693753    -0.000004933825     0.000000822029

  **** Optimization is complete! (in 6 steps) ****
    Final optimized geometry and variables:
    Molecular point group: c1

    Geometry (in Angstrom), charge = 0, multiplicity = 1:

    H           -1.420131402936     0.998085554910     2.494629497707
    C           -1.033349886788     0.674409179787     1.551455395883
    C           -1.819131736059     0.727437942317     0.356280442885
    C            0.210476388602     0.197423847141     1.454152981850
    H           -2.824694970622     1.101441161556     0.402576076015
    C           -1.311829364596     0.315643511582    -0.809963833217
    H            0.857096770152     0.123680771009     2.305655850493
    N            0.748051734619    -0.231656942191     0.279274516028
    H           -1.869396086991     0.341888422546    -1.723504854283
    C            0.048713002438    -0.190502878444    -0.914169792782
    C            2.118368755232    -0.723355680353     0.268686027668
    O            0.551801446393    -0.549675253354    -1.943733944704
    H            2.269317086767    -1.307355622498    -0.620411427783
    H            2.821746739530     0.100327658502     0.266369027816
    H            2.289439637697    -1.335001455292     1.143147089431

  Mulliken Charges: (a.u.)
   Center  Symbol    Alpha    Beta     Spin     Total
       1     H     0.41396  0.41396  0.00000  0.17208
       2     C     3.10312  3.10312  0.00000 -0.20623
       3     C     3.06166  3.06166  0.00000 -0.12332
       4     C     3.03309  3.03309  0.00000 -0.06617
       5     H     0.41837  0.41837  0.00000  0.16325
       6     C     3.11701  3.11701  0.00000 -0.23402
       7     H     0.42127  0.42127  0.00000  0.15746
       8     N     3.51182  3.51182  0.00000 -0.02363
       9     H     0.40895  0.40895  0.00000  0.18211
      10     C     2.84528  2.84528  0.00000  0.30944
      11     C     3.10453  3.10453  0.00000 -0.20905
      12     O     4.23645  4.23645  0.00000 -0.47290
      13     H     0.42364  0.42364  0.00000  0.15271
      14     H     0.44717  0.44717  0.00000  0.10565
      15     H     0.45369  0.45369  0.00000  0.09263

   Total alpha = 29.00000, Total beta = 29.00000, Total charge = -0.00000

*** Psi4 exiting successfully. Buy a developer a beer!
