                              Psi4 1.0.54 Driver

  ==> Input File <==

--------------------------------------------------------------------------
set {
	reference rhf
	basis cc-pvtz
}

set_num_threads( 4 )
memory 2 gb

molecule MOL {
0 1

H	 -2.252071	 -0.481870	 0.621703
C	 -1.862940	 -0.772703	 -0.348677
O	 -0.775228	 0.000056	 -0.739966
H	 -2.639058	 -0.612896	 -1.083697
H	 -1.632897	 -1.832981	 -0.325817
C	 0.406133	 -0.000384	 0.036994
C	 1.526415	 -0.003194	 -0.997339
C	 0.498772	 1.259027	 0.900673
C	 0.495883	 -1.257378	 0.904465
H	 1.452279	 0.872071	 -1.630204
H	 1.451276	 -0.881020	 -1.626529
H	 2.497919	 -0.002741	 -0.517601
H	 0.368981	 2.144239	 0.289753
H	 1.470064	 1.313479	 1.377660
H	 -0.248448	 1.271586	 1.684297
H	 0.363971	 -2.144195	 0.296316
H	 1.467114	 -1.312636	 1.381470
H	 -0.251246	 -1.265768	 1.688235

	symmetry c1
}
set optking {
	frozen_dihedral = ("
		2 3 6 7
	")
}

ee,wfn = optimize('scf', return_wfn=True)
oeprop( wfn, 'DIPOLE', 'QUADRUPOLE', 'MULLIKEN_CHARGES')
f=open( 'psi4out.xyz', 'w' )
f.write( "18  " )
f.write( str(ee) + "\n" )
f.write( MOL.save_string_xyz() )
f.close()
--------------------------------------------------------------------------

    Molecular point group: c1
  Charge       = 0
  Multiplicity = 1
  Basis Set: CC-PVTZ
  Basis Set:
  @DF-RHF Final Energy:  -271.27175327577794
    Total Energy =                       -271.2717532757782237
    Molecular point group: c1
  Basis Set: CC-PVTZ
  Basis Set:
  Basis Set: CC-PVTZ
  Basis Set:
  @DF-RHF Final Energy:  -271.25772120716857
    Total Energy =                       -271.2577212071685722
  Basis Set: CC-PVTZ
  Basis Set:
  Basis Set: CC-PVTZ
  Basis Set:
  @DF-RHF Final Energy:  -271.27311929071675
    Total Energy =                       -271.2731192907165223
  Basis Set: CC-PVTZ
  Basis Set:
  Basis Set: CC-PVTZ
  Basis Set:
  @DF-RHF Final Energy:  -271.27350983949111
    Total Energy =                       -271.2735098394908846
  Basis Set: CC-PVTZ
  Basis Set:
  @DF-RHF Final Energy:  -271.27339795484272
    Total Energy =                       -271.2733979548424372
  Basis Set: CC-PVTZ
  Basis Set:
  @DF-RHF Final Energy:  -271.27366682817086
    Total Energy =                       -271.2736668281709171
  Basis Set: CC-PVTZ
  Basis Set:
  Basis Set: CC-PVTZ
  Basis Set:
  @DF-RHF Final Energy:  -271.27366801423676
    Total Energy =                       -271.2736680142367049
  Basis Set: CC-PVTZ
  Basis Set:
  Basis Set: CC-PVTZ
  Basis Set:
  @DF-RHF Final Energy:  -271.27366937788003
    Total Energy =                       -271.2736693778801964
  Basis Set: CC-PVTZ
  Basis Set:
  Charge       = 0
  Multiplicity = 1
  Basis Set: CC-PVTZ
  Basis Set:

    Orbital Energies (a.u.)
    -----------------------

    Doubly Occupied:

       1A    -20.538009     2A    -11.280552     3A    -11.259315
       4A    -11.210946     5A    -11.203428     6A    -11.201933
       7A     -1.370549     8A     -1.075307     9A     -0.950596
      10A     -0.937177    11A     -0.912145    12A     -0.752481
      13A     -0.657656    14A     -0.648124    15A     -0.638733
      16A     -0.585620    17A     -0.576431    18A     -0.550669
      19A     -0.540297    20A     -0.526403    21A     -0.515392
      22A     -0.492303    23A     -0.484571    24A     -0.442333
      25A     -0.401069

  @DF-RHF Final Energy:  -271.27367012349117

   => Energetics <=

    Nuclear Repulsion Energy =            272.2668121171030293
    One-Electron Energy =                -907.5768843608847192
    Two-Electron Energy =                 364.0364021202905178
    DFT Exchange-Correlation Energy =       0.0000000000000000
    Empirical Dispersion Energy =           0.0000000000000000
    PCM Polarization Energy =               0.0000000000000000
    EFP Energy =                            0.0000000000000000
    Total Energy =                       -271.2736701234911152
    Molecular point group: c1
  Basis Set: CC-PVTZ
  Basis Set:

  -Total Gradient:
     Atom            X                  Y                   Z
    ------   -----------------  -----------------  -----------------
       1        0.000000917855     0.000001730294     0.000008952237
       2        0.000992138893    -0.001820122339    -0.002506483295
       3       -0.001498366274     0.002055174551     0.003585674987
       4        0.000000949942    -0.000001355769    -0.000000537678
       5       -0.000000379418    -0.000001322629     0.000001184720
       6        0.000600665906     0.002229859146    -0.000244820021
       7       -0.000044019378    -0.002467377728    -0.000831982339
       8       -0.000022028415    -0.000015519106     0.000004916582
       9       -0.000001662215    -0.000024930938     0.000033948674
      10        0.000003324983     0.000017770847    -0.000017043310
      11       -0.000003468008    -0.000008748195    -0.000000195751
      12        0.000005921224     0.000004490630     0.000002424845
      13       -0.000000478314     0.000004162277    -0.000002660143
      14       -0.000020189800    -0.000008769244    -0.000018648195
      15        0.000008431459     0.000003869948     0.000003405512
      16       -0.000000805721     0.000021537805     0.000015648221
      17       -0.000046854121     0.000008658268    -0.000015825731
      18        0.000025901397     0.000000892180    -0.000017959318

  **** Optimization is complete! (in 9 steps) ****
    Final optimized geometry and variables:
    Molecular point group: c1

    Geometry (in Angstrom), charge = 0, multiplicity = 1:

    H           -2.260034889773    -0.545766618208     0.612933647715
    C           -1.933390094921    -0.477263554655    -0.421552264475
    O           -0.828739643179     0.350698743033    -0.579583795625
    H           -2.735077954484    -0.035397476382    -0.996369571984
    H           -1.760322140264    -1.480188353790    -0.796071406855
    C            0.393100324145     0.091983328247     0.094497170412
    C            1.485798083435     0.405022330868    -0.923185301925
    C            0.471318836057     1.036432712895     1.292147715721
    C            0.540943796038    -1.359476600860     0.555957655927
    H            1.368241210804     1.414035008378    -1.297955431386
    H            1.421151297641    -0.275265222342    -1.763256821379
    H            2.470906958183     0.315104020367    -0.479553599915
    H            0.377292906872     2.063068024158     0.961731951123
    H            1.412866070526     0.927470949424     1.818552302488
    H           -0.331577478322     0.833411748387     1.991897405713
    H            0.474739407810    -2.048781382302    -0.276541508436
    H            1.514212966966    -1.486817109880     1.012957548472
    H           -0.203713374575    -1.635354759911     1.291415073432

  Mulliken Charges: (a.u.)
   Center  Symbol    Alpha    Beta     Spin     Total
       1     H     0.47027  0.47027  0.00000  0.05945
       2     C     3.04183  3.04183  0.00000 -0.08365
       3     O     4.19777  4.19777  0.00000 -0.39554
       4     H     0.44254  0.44254  0.00000  0.11493
       5     H     0.46773  0.46773  0.00000  0.06455
       6     C     2.87239  2.87239  0.00000  0.25521
       7     C     3.14024  3.14024  0.00000 -0.28048
       8     C     3.14507  3.14507  0.00000 -0.29013
       9     C     3.17620  3.17620  0.00000 -0.35240
      10     H     0.44758  0.44758  0.00000  0.10485
      11     H     0.45197  0.45197  0.00000  0.09607
      12     H     0.45910  0.45910  0.00000  0.08179
      13     H     0.44803  0.44803  0.00000  0.10395
      14     H     0.45547  0.45547  0.00000  0.08905
      15     H     0.45111  0.45111  0.00000  0.09778
      16     H     0.44525  0.44525  0.00000  0.10949
      17     H     0.44309  0.44309  0.00000  0.11382
      18     H     0.44437  0.44437  0.00000  0.11126

   Total alpha = 25.00000, Total beta = 25.00000, Total charge =  0.00000

*** Psi4 exiting successfully. Buy a developer a beer!
