  ==> Input File <==

--------------------------------------------------------------------------
set {
	reference rhf
	basis 6-31G*
}

set_num_threads( 4 )
memory 2 gb

molecule MOL {
0 1

H	 1.136379	 0.211822	 1.465562
C	 1.135357	 0.094285	 0.374742
C	 0.065331	 0.871482	 -0.349150
O	 1.941633	 -0.601957	 -0.151457
C	 -1.173920	 0.017741	 -0.653885
H	 0.495414	 1.283444	 -1.254815
H	 -0.220657	 1.702205	 0.294488
C	 -0.905506	 -1.098331	 -1.664212
H	 -1.955569	 0.668551	 -1.032675
H	 -1.555936	 -0.408013	 0.271554
H	 -0.555955	 -0.691821	 -2.608188
H	 -1.808463	 -1.667278	 -1.859877
H	 -0.149982	 -1.791853	 -1.307000

	symmetry c1
}
set optking {
	frozen_dihedral = ("
		6 3 2 4
	")
}

ee = optimize('scf')
oeprop('DIPOLE', 'QUADRUPOLE', 'MULLIKEN_CHARGES')
f=open( 'psi4out.xyz', 'w' )
f.write( "13  " )
f.write( str(ee) + "\n" )
f.write( MOL.save_string_xyz() )
f.close()
--------------------------------------------------------------------------

    Molecular point group: c1
  Charge       = 0
  Multiplicity = 1
  Basis Set: 6-31G*
  Basis Set:
  @DF-RHF Final Energy:  -230.98278961281980
    Total Energy =                       -230.9827896128195732
    Molecular point group: c1
  Basis Set: 6-31G*
  Basis Set:
  Basis Set: 6-31G*
  Basis Set:
  @DF-RHF Final Energy:  -230.98118468903354
    Total Energy =                       -230.9811846890335403
  Basis Set: 6-31G*
  Basis Set:
  Basis Set: 6-31G*
  Basis Set:
  @DF-RHF Final Energy:  -230.98304593730515
    Total Energy =                       -230.9830459373052065
  Basis Set: 6-31G*
  Basis Set:
  Basis Set: 6-31G*
  Basis Set:
  @DF-RHF Final Energy:  -230.98308994676404
    Total Energy =                       -230.9830899467639824
  Basis Set: 6-31G*
  Basis Set:
  Basis Set: 6-31G*
  Basis Set:
  @DF-RHF Final Energy:  -230.98309223817083
    Total Energy =                       -230.9830922381707410
  Basis Set: 6-31G*
  Basis Set:
  Charge       = 0
  Multiplicity = 1
  Basis Set: 6-31G*
  Basis Set:

    Orbital Energies (a.u.)
    -----------------------

    Doubly Occupied:

       1A    -20.563865     2A    -11.327795     3A    -11.237402
       4A    -11.235728     5A    -11.212571     6A     -1.403654
       7A     -1.081028     8A     -0.970915     9A     -0.844765
      10A     -0.783100    11A     -0.676218    12A     -0.649771
      13A     -0.607626    14A     -0.592585    15A     -0.563645
      16A     -0.525584    17A     -0.502536    18A     -0.490616
      19A     -0.479069    20A     -0.408960

  @DF-RHF Final Energy:  -230.98309286126093

   => Energetics <=

    Nuclear Repulsion Energy =            175.4983324158046400
    One-Electron Energy =                -660.6479843852242766
    Two-Electron Energy =                 254.1665591081587650
    DFT Exchange-Correlation Energy =       0.0000000000000000
    Empirical Dispersion Energy =           0.0000000000000000
    PCM Polarization Energy =               0.0000000000000000
    EFP Energy =                            0.0000000000000000
    Total Energy =                       -230.9830928612609000
    Molecular point group: c1
  Basis Set: 6-31G*
  Basis Set:

  -Total Gradient:
     Atom            X                  Y                   Z
    ------   -----------------  -----------------  -----------------
       1        0.000007854944    -0.000011667884    -0.000004393576
       2        0.001886019876     0.002505548636    -0.000107358585
       3       -0.001166184166    -0.002532916835    -0.000994920770
       4       -0.001177077458    -0.001510652304     0.000240185541
       5        0.000003995759    -0.000004364759     0.000005135546
       6        0.000494179361     0.001587818977     0.000880643759
       7        0.000010219318    -0.000000844933    -0.000008515909
       8       -0.000024256745    -0.000047915455    -0.000004599314
       9       -0.000008139676    -0.000021315969    -0.000006036501
      10       -0.000008888523     0.000004542487     0.000004199509
      11        0.000002332056     0.000017906645     0.000002887226
      12       -0.000005753179     0.000002863717    -0.000023607235
      13       -0.000014301570     0.000010997679     0.000016380308

  **** Optimization is complete! (in 6 steps) ****
    Final optimized geometry and variables:
    Molecular point group: c1

    Geometry (in Angstrom), charge = 0, multiplicity = 1:

    H            0.905656609394     0.379548295982     1.980855711054
    C            0.917723684002     0.272724707857     0.890236535830
    C           -0.147452402690     1.037515162409     0.140635478359
    O            1.712655308119    -0.445464032242     0.373956096250
    C           -1.383272722702     0.167166968822    -0.159147085297
    H            0.284358977051     1.417539087504    -0.779470124729
    H           -0.448976594166     1.890811821944     0.741744104698
    C           -1.132414548735    -0.934465566271    -1.188131235447
    H           -2.171649118793     0.822559010049    -0.516459355731
    H           -1.749874372020    -0.269267726591     0.767572980335
    H           -0.813779916380    -0.511841152839    -2.136127409215
    H           -2.041168814240    -1.501131755157    -1.364925575135
    H           -0.363280177839    -1.623088844669    -0.860749265424

  Mulliken Charges: (a.u.)
   Center  Symbol    Alpha    Beta     Spin     Total
       1     H     0.42843  0.42843  0.00000  0.14314
       2     C     2.84210  2.84210  0.00000  0.31581
       3     C     3.20137  3.20137  0.00000 -0.40273
       4     O     4.23530  4.23530  0.00000 -0.47059
       5     C     3.16208  3.16208  0.00000 -0.32416
       6     H     0.40058  0.40058  0.00000  0.19883
       7     H     0.41450  0.41450  0.00000  0.17100
       8     C     3.24148  3.24148  0.00000 -0.48296
       9     H     0.41296  0.41296  0.00000  0.17408
      10     H     0.41821  0.41821  0.00000  0.16357
      11     H     0.41879  0.41879  0.00000  0.16242
      12     H     0.41902  0.41902  0.00000  0.16195
      13     H     0.40518  0.40518  0.00000  0.18964

   Total alpha = 20.00000, Total beta = 20.00000, Total charge = -0.00000
