                              Psi4 1.0.54 Driver

  ==> Input File <==

--------------------------------------------------------------------------
set {
	reference rhf
	basis cc-pvtz
}

set_num_threads( 4 )
memory 2 gb

molecule MOL {
0 1

H	 -3.144994	 -1.202467	 -0.018751
O	 -2.321472	 -0.864941	 -0.318626
C	 -2.021813	 0.336996	 0.342658
C	 -0.669613	 0.837286	 -0.127252
H	 -2.780861	 1.084746	 0.127159
H	 -2.006390	 0.184138	 1.420053
C	 0.490865	 -0.082543	 0.241244
H	 -0.708709	 0.967192	 -1.204587
H	 -0.507562	 1.822272	 0.303070
C	 0.766417	 -0.124607	 1.741547
H	 1.382784	 0.241760	 -0.282555
H	 0.274837	 -1.089116	 -0.111266
C	 1.921078	 -1.049648	 2.111473
H	 0.984118	 0.880066	 2.093598
H	 -0.131202	 -0.442587	 2.265816
H	 2.841531	 -0.736507	 1.630200
H	 2.092871	 -1.056123	 3.181870
H	 1.719364	 -2.070222	 1.802951

	symmetry c1
}
set optking {
	frozen_dihedral = ("
		10 7 4 8
	")
}

ee,wfn = optimize('scf', return_wfn=True)
oeprop( wfn, 'DIPOLE', 'QUADRUPOLE', 'MULLIKEN_CHARGES')
f=open( 'psi4out.xyz', 'w' )
f.write( "18  " )
f.write( str(ee) + "\n" )
f.write( MOL.save_string_xyz() )
f.close()
--------------------------------------------------------------------------

    Molecular point group: c1
  Charge       = 0
  Multiplicity = 1
  Basis Set: CC-PVTZ
  Basis Set:
  @DF-RHF Final Energy:  -271.28476433182948
    Total Energy =                       -271.2847643318291944
    Molecular point group: c1
  Basis Set: CC-PVTZ
  Basis Set:
  Basis Set: CC-PVTZ
  Basis Set:
  @DF-RHF Final Energy:  -271.28511859354097
    Total Energy =                       -271.2851185935407443
  Basis Set: CC-PVTZ
  Basis Set:
  Basis Set: CC-PVTZ
  Basis Set:
  @DF-RHF Final Energy:  -271.28532850127158
    Total Energy =                       -271.2853285012714082
  Basis Set: CC-PVTZ
  Basis Set:
  Basis Set: CC-PVTZ
  Basis Set:
  @DF-RHF Final Energy:  -271.28533377247197
    Total Energy =                       -271.2853337724724270
  Basis Set: CC-PVTZ
  Basis Set:
  Charge       = 0
  Multiplicity = 1
  Basis Set: CC-PVTZ
  Basis Set:

    Orbital Energies (a.u.)
    -----------------------

    Doubly Occupied:

       1A    -20.546462     2A    -11.265386     3A    -11.210837
       4A    -11.209378     5A    -11.204927     6A    -11.203188
       7A     -1.364221     8A     -1.076051     9A     -1.008506
      10A     -0.914706    11A     -0.830799    12A     -0.772603
      13A     -0.706610    14A     -0.648697    15A     -0.624727
      16A     -0.585902    17A     -0.565372    18A     -0.555892
      19A     -0.536476    20A     -0.502526    21A     -0.488348
      22A     -0.467229    23A     -0.456846    24A     -0.449454
      25A     -0.430834

  @DF-RHF Final Energy:  -271.28533426224004

   => Energetics <=

    Nuclear Repulsion Energy =            253.1247229067258218
    One-Electron Energy =                -869.5681643369074436
    Two-Electron Energy =                 345.1581071679416937
    DFT Exchange-Correlation Energy =       0.0000000000000000
    Empirical Dispersion Energy =           0.0000000000000000
    PCM Polarization Energy =               0.0000000000000000
    EFP Energy =                            0.0000000000000000
    Total Energy =                       -271.2853342622398714
    Molecular point group: c1
  Basis Set: CC-PVTZ
  Basis Set:

  -Total Gradient:
     Atom            X                  Y                   Z
    ------   -----------------  -----------------  -----------------
       1       -0.000001692051    -0.000016858417     0.000000299157
       2       -0.000028617298    -0.000005316811    -0.000027439411
       3        0.000023404951     0.000012340097     0.000032215661
       4       -0.000267478268    -0.000361617659    -0.000036931659
       5       -0.000006278419    -0.000002812504    -0.000019853318
       6        0.000014734771     0.000001445914     0.000017795998
       7       -0.000261447691    -0.000282683563     0.000053467239
       8        0.000308994030     0.000384898088     0.000032762337
       9        0.000000153992     0.000024432361    -0.000000856120
      10        0.000199466717     0.000248225198    -0.000066007649
      11        0.000016931808    -0.000002003362    -0.000014794830
      12        0.000006534795    -0.000007578737     0.000016920582
      13        0.000017582796     0.000005500435    -0.000004585399
      14       -0.000009849983     0.000009107463    -0.000006127997
      15       -0.000031314916    -0.000001224778     0.000019155393
      16        0.000012380958    -0.000004750586    -0.000004238001
      17        0.000010677172     0.000002035196     0.000004834025
      18       -0.000004183367    -0.000003138333     0.000003383990

  **** Optimization is complete! (in 5 steps) ****
    Final optimized geometry and variables:
    Molecular point group: c1

    Geometry (in Angstrom), charge = 0, multiplicity = 1:

    H           -2.833743698100    -0.962182634481    -0.672273168059
    O           -1.982089271471    -0.673359484854    -0.942783000381
    C           -1.688421535448     0.572812698449    -0.365668666368
    C           -0.301965805134     1.007163546255    -0.805716503002
    H           -2.412061606427     1.317696738949    -0.687091390135
    H           -1.744916725292     0.511498942192     0.717595797283
    C            0.835835955862     0.071119411151    -0.394536509801
    H           -0.308469010357     1.102493566529    -1.886497043793
    H           -0.120538031609     2.002213159051    -0.406857533644
    C            1.119735098870     0.028858998954     1.105618813225
    H            1.738236920320     0.392609609759    -0.907454965890
    H            0.619697462360    -0.929383380236    -0.751397359100
    C            2.312008010930    -0.856852197262     1.453610903484
    H            1.304147744806     1.037865281112     1.466239675921
    H            0.246343404310    -0.332167443242     1.639177580638
    H            3.216418822205    -0.503930272957     0.969145579080
    H            2.493446848012    -0.871100140984     2.522382662618
    H            2.144501224311    -1.879449707266     1.132531908793

  Mulliken Charges: (a.u.)
   Center  Symbol    Alpha    Beta     Spin     Total
       1     H     0.39561  0.39561  0.00000  0.20878
       2     O     4.19900  4.19900  0.00000 -0.39800
       3     C     2.97424  2.97424  0.00000  0.05153
       4     C     3.09906  3.09906  0.00000 -0.19812
       5     H     0.46343  0.46343  0.00000  0.07314
       6     H     0.47277  0.47277  0.00000  0.05445
       7     C     3.09171  3.09171  0.00000 -0.18342
       8     H     0.44708  0.44708  0.00000  0.10584
       9     H     0.45448  0.45448  0.00000  0.09104
      10     C     3.08595  3.08595  0.00000 -0.17190
      11     H     0.45103  0.45103  0.00000  0.09794
      12     H     0.44574  0.44574  0.00000  0.10853
      13     C     3.14972  3.14972  0.00000 -0.29943
      14     H     0.45669  0.45669  0.00000  0.08661
      15     H     0.45485  0.45485  0.00000  0.09030
      16     H     0.45515  0.45515  0.00000  0.08969
      17     H     0.44965  0.44965  0.00000  0.10071
      18     H     0.45384  0.45384  0.00000  0.09232

   Total alpha = 25.00000, Total beta = 25.00000, Total charge = -0.00000

*** Psi4 exiting successfully. Buy a developer a beer!
