  ==> Input File <==

--------------------------------------------------------------------------
set {
	reference rhf
	basis 6-31G*
}

set_num_threads( 4 )
memory 2 gb

molecule MOL {
0 1

H	 -2.798360	 -0.862255	 -0.071053
N	 -1.863561	 -0.715187	 0.256814
C	 -1.344686	 0.554728	 -0.219830
H	 -1.300452	 -1.461917	 -0.101532
C	 0.081427	 0.741154	 0.254071
H	 -1.362155	 0.656231	 -1.305829
H	 -1.952773	 1.354456	 0.191809
O	 0.404434	 -0.323443	 1.102237
H	 0.761570	 0.761234	 -0.597187
H	 0.169809	 1.686561	 0.784758
C	 1.666909	 -0.233454	 1.681574
H	 1.802841	 -1.103983	 2.308789
H	 2.451071	 -0.218486	 0.926691
H	 1.760433	 0.660920	 2.294076

	symmetry c1
}
set optking {
	frozen_dihedral = ("
		8 5 3 6
	")
}

ee = optimize('scf')
oeprop('DIPOLE', 'QUADRUPOLE', 'MULLIKEN_CHARGES')
f=open( 'psi4out.xyz', 'w' )
f.write( "14  " )
f.write( str(ee) + "\n" )
f.write( MOL.save_string_xyz() )
f.close()
--------------------------------------------------------------------------

    Molecular point group: c1
  Charge       = 0
  Multiplicity = 1
  Basis Set: 6-31G*
  Basis Set:
  @DF-RHF Final Energy:  -248.10769485864628
    Total Energy =                       -248.1076948586462549
    Molecular point group: c1
  Basis Set: 6-31G*
  Basis Set:
  Basis Set: 6-31G*
  Basis Set:
  @DF-RHF Final Energy:  -248.10849516594448
    Total Energy =                       -248.1084951659443050
  Basis Set: 6-31G*
  Basis Set:
  Basis Set: 6-31G*
  Basis Set:
  @DF-RHF Final Energy:  -248.11081822069806
    Total Energy =                       -248.1108182206980359
  Basis Set: 6-31G*
  Basis Set:
  Basis Set: 6-31G*
  Basis Set:
  @DF-RHF Final Energy:  -248.11115838696861
    Total Energy =                       -248.1111583869685546
  Basis Set: 6-31G*
  Basis Set:
  Basis Set: 6-31G*
  Basis Set:
  @DF-RHF Final Energy:  -248.11124947961252
    Total Energy =                       -248.1112494796126384
  Basis Set: 6-31G*
  Basis Set:
  Basis Set: 6-31G*
  Basis Set:
  @DF-RHF Final Energy:  -248.11127220455188
    Total Energy =                       -248.1112722045518240
  Basis Set: 6-31G*
  Basis Set:
  Basis Set: 6-31G*
  Basis Set:
  @DF-RHF Final Energy:  -248.11127484030726
    Total Energy =                       -248.1112748403070327
  Basis Set: 6-31G*
  Basis Set:
  Charge       = 0
  Multiplicity = 1
  Basis Set: 6-31G*
  Basis Set:

    Orbital Energies (a.u.)
    -----------------------

    Doubly Occupied:

       1A    -20.557291     2A    -15.523183     3A    -11.271617
       4A    -11.266643     5A    -11.243010     6A     -1.383201
       7A     -1.167517     8A     -0.994820     9A     -0.910311
      10A     -0.815525    11A     -0.682470    12A     -0.674382
      13A     -0.648450    14A     -0.603946    15A     -0.596189
      16A     -0.563192    17A     -0.518608    18A     -0.495643
      19A     -0.470911    20A     -0.419498    21A     -0.366852

  @DF-RHF Final Energy:  -248.11127497149116

   => Energetics <=

    Nuclear Repulsion Energy =            194.7081126745668200
    One-Electron Energy =                -723.2922538988141241
    Two-Electron Energy =                 280.4728662527561482
    DFT Exchange-Correlation Energy =       0.0000000000000000
    Empirical Dispersion Energy =           0.0000000000000000
    PCM Polarization Energy =               0.0000000000000000
    EFP Energy =                            0.0000000000000000
    Total Energy =                       -248.1112749714911843
    Molecular point group: c1
  Basis Set: 6-31G*
  Basis Set:

  -Total Gradient:
     Atom            X                  Y                   Z
    ------   -----------------  -----------------  -----------------
       1       -0.000002094615    -0.000002177896     0.000007240476
       2        0.000008831312     0.000015307385    -0.000013788033
       3       -0.000003921449    -0.000021923767     0.000005016883
       4       -0.000001536920     0.000007203936     0.000001211665
       5        0.000001014710     0.000005596234     0.000004792139
       6        0.000000328131    -0.000000674975    -0.000008773619
       7       -0.000001206532     0.000000817071     0.000001753035
       8       -0.000005181296    -0.000005552909     0.000004445408
       9       -0.000003995927     0.000002417999    -0.000003514201
      10       -0.000000112420     0.000000304455     0.000001076902
      11        0.000003023301     0.000000256295    -0.000000987257
      12       -0.000000188265     0.000000401328    -0.000000650400
      13        0.000004701251    -0.000001198965     0.000000632970
      14        0.000000338714    -0.000000776192     0.000001544031

  **** Optimization is complete! (in 8 steps) ****
    Final optimized geometry and variables:
    Molecular point group: c1

    Geometry (in Angstrom), charge = 0, multiplicity = 1:

    H           -2.554105560613    -0.894684629597    -0.995576509821
    N           -1.765492943620    -0.681899293415    -0.417593859638
    C           -1.157418918101     0.569704295306    -0.835509916040
    H           -1.115784045450    -1.438357533040    -0.481552165826
    C            0.289389611060     0.734387990475    -0.316097154573
    H           -1.135384684115     0.688394632322    -1.919801894078
    H           -1.768764502532     1.379813281013    -0.452881362908
    O            0.642188780906    -0.315214705980     0.531092474959
    H            0.982020489643     0.763788871162    -1.156650660977
    H            0.389240711176     1.682367124324     0.208929291347
    C            1.934573607765    -0.219808243609     1.036716480298
    H            2.100546755776    -1.079177544418     1.671547535115
    H            2.676859255074    -0.220231397348     0.239894510011
    H            2.064586685780     0.684936620996     1.627446207199

  Mulliken Charges: (a.u.)
   Center  Symbol    Alpha    Beta     Spin     Total
       1     H     0.33476  0.33476  0.00000  0.33048
       2     N     3.91845  3.91845  0.00000 -0.83690
       3     C     3.07019  3.07019  0.00000 -0.14039
       4     H     0.32402  0.32402  0.00000  0.35196
       5     C     2.99264  2.99264  0.00000  0.01471
       6     H     0.43232  0.43232  0.00000  0.13536
       7     H     0.41684  0.41684  0.00000  0.16633
       8     O     4.30263  4.30263  0.00000 -0.60526
       9     H     0.43129  0.43129  0.00000  0.13741
      10     H     0.42679  0.42679  0.00000  0.14641
      11     C     3.07984  3.07984  0.00000 -0.15968
      12     H     0.41068  0.41068  0.00000  0.17864
      13     H     0.43101  0.43101  0.00000  0.13797
      14     H     0.42852  0.42852  0.00000  0.14295

   Total alpha = 21.00000, Total beta = 21.00000, Total charge = -0.00000
