  ==> Input File <==

--------------------------------------------------------------------------
set {
	reference rhf
	basis 6-31G*
}

set_num_threads( 4 )
memory 2 gb

molecule MOL {
0 1

H	 -0.000158	 1.970498	 0.756846
O	 -0.000074	 1.880206	 -0.189275
C	 -0.000015	 0.544847	 -0.545111
C	 -1.278788	 -0.123820	 -0.051541
C	 1.278802	 -0.123718	 -0.051505
H	 -0.000001	 0.490777	 -1.623619
F	 -1.321207	 -0.080911	 1.262957
F	 -2.360721	 0.466354	 -0.513575
F	 -1.315140	 -1.395766	 -0.415450
F	 2.323327	 0.466644	 -0.591854
F	 1.326242	 -1.401483	 -0.363667
F	 1.388946	 -0.015632	 1.262939

	symmetry c1
}
set optking {
	frozen_dihedral = ("
		7 4 3 6
	")
}

ee = optimize('scf')
oeprop('DIPOLE', 'QUADRUPOLE', 'MULLIKEN_CHARGES')
f=open( 'psi4out.xyz', 'w' )
f.write( "12  " )
f.write( str(ee) + "\n" )
f.write( MOL.save_string_xyz() )
f.close()
--------------------------------------------------------------------------

    Molecular point group: c1
  Charge       = 0
  Multiplicity = 1
  Basis Set: 6-31G*
  Basis Set:
  @DF-RHF Final Energy:  -786.27743737966421
    Total Energy =                       -786.2774373796643204
    Molecular point group: c1
  Basis Set: 6-31G*
  Basis Set:
  Basis Set: 6-31G*
  Basis Set:
  @DF-RHF Final Energy:  -786.27789278481282
    Total Energy =                       -786.2778927848125932
  Basis Set: 6-31G*
  Basis Set:
  Basis Set: 6-31G*
  Basis Set:
  @DF-RHF Final Energy:  -786.27802386000440
    Total Energy =                       -786.2780238600043958
  Basis Set: 6-31G*
  Basis Set:
  Basis Set: 6-31G*
  Basis Set:
  @DF-RHF Final Energy:  -786.27803949479630
    Total Energy =                       -786.2780394947963032
  Basis Set: 6-31G*
  Basis Set:
  Basis Set: 6-31G*
  Basis Set:
  @DF-RHF Final Energy:  -786.27804280654686
    Total Energy =                       -786.2780428065464093
  Basis Set: 6-31G*
  Basis Set:
  Charge       = 0
  Multiplicity = 1
  Basis Set: 6-31G*
  Basis Set:

    Orbital Energies (a.u.)
    -----------------------

    Doubly Occupied:

       1A    -26.362979     2A    -26.362500     3A    -26.362229
       4A    -26.361141     5A    -26.358373     6A    -26.358052
       7A    -20.617345     8A    -11.526115     9A    -11.525460
      10A    -11.349368    11A     -1.764681    12A     -1.758680
      13A     -1.661973    14A     -1.657922    15A     -1.656708
      16A     -1.655311    17A     -1.435737    18A     -1.101985
      19A     -0.996834    20A     -0.938476    21A     -0.863684
      22A     -0.862774    23A     -0.852015    24A     -0.844333
      25A     -0.831806    26A     -0.815944    27A     -0.743567
      28A     -0.726983    29A     -0.724396    30A     -0.717526
      31A     -0.689185    32A     -0.686315    33A     -0.683362
      34A     -0.674319    35A     -0.669968    36A     -0.662989
      37A     -0.656594    38A     -0.653647    39A     -0.620456
      40A     -0.551380    41A     -0.506075

  @DF-RHF Final Energy:  -786.27804342270485

   => Energetics <=

    Nuclear Repulsion Energy =            670.5757318521960997
    One-Electron Energy =               -2428.0091798133826160
    Two-Electron Energy =                 971.1554045384812071
    DFT Exchange-Correlation Energy =       0.0000000000000000
    Empirical Dispersion Energy =           0.0000000000000000
    PCM Polarization Energy =               0.0000000000000000
    EFP Energy =                            0.0000000000000000
    Total Energy =                       -786.2780434227054229
    Molecular point group: c1
  Basis Set: 6-31G*
  Basis Set:

  -Total Gradient:
     Atom            X                  Y                   Z
    ------   -----------------  -----------------  -----------------
       1       -0.000001859655    -0.000009636861    -0.000006077482
       2        0.000002789655    -0.000026069025    -0.000016598685
       3       -0.000282568679     0.000599942415     0.000010058376
       4       -0.000256976060     0.000308593925    -0.000133907872
       5       -0.000002208025     0.000062624342    -0.000055111496
       6        0.000335061021    -0.000570028606     0.000007651447
       7        0.000297592720    -0.000484094740     0.000096309876
       8       -0.000067117056     0.000054412854    -0.000024009995
       9       -0.000000945444     0.000127740280     0.000062322917
      10       -0.000037648063    -0.000024038926     0.000012563070
      11        0.000024650775    -0.000018635378     0.000011379325
      12       -0.000010771184    -0.000020810281     0.000035420526

  **** Optimization is complete! (in 6 steps) ****
    Final optimized geometry and variables:
    Molecular point group: c1

    Geometry (in Angstrom), charge = 0, multiplicity = 1:

    H            0.003473449106     1.971126587358     0.765413072707
    O           -0.013783334819     1.884053744364    -0.180834377849
    C           -0.006657170823     0.550473518060    -0.541729165850
    C           -1.277906552961    -0.134662131241    -0.051553858070
    C            1.277842686770    -0.110756511022    -0.051893528466
    H           -0.005486420901     0.497293546510    -1.620422964968
    F           -1.350683042367    -0.109363907833     1.269686672156
    F           -2.331997968109     0.493949583765    -0.525410717972
    F           -1.342965042550    -1.390424985414    -0.441299171564
    F            2.315545213827     0.459668037337    -0.626179928777
    F            1.314406304822    -1.397137131844    -0.328459872467
    F            1.411650845417     0.033480906271     1.256779632855

  Mulliken Charges: (a.u.)
   Center  Symbol    Alpha    Beta     Spin     Total
       1     H     0.26575  0.26575  0.00000  0.46851
       2     O     4.36251  4.36251  0.00000 -0.72502
       3     C     3.04475  3.04475  0.00000 -0.08949
       4     C     2.44689  2.44689  0.00000  1.10622
       5     C     2.44586  2.44586  0.00000  1.10829
       6     H     0.37536  0.37536  0.00000  0.24927
       7     F     4.68061  4.68061  0.00000 -0.36121
       8     F     4.67446  4.67446  0.00000 -0.34893
       9     F     4.67417  4.67417  0.00000 -0.34835
      10     F     4.67502  4.67502  0.00000 -0.35004
      11     F     4.67382  4.67382  0.00000 -0.34763
      12     F     4.68081  4.68081  0.00000 -0.36162

   Total alpha = 41.00000, Total beta = 41.00000, Total charge = -0.00000
