  ==> Input File <==

--------------------------------------------------------------------------
set {
	reference rhf
	basis cc-pvtz
}

set_num_threads( 4 )
memory 2 gb

molecule MOL {
0 1

H	 1.400030	 -1.796087	 0.822743
O	 0.727235	 -1.225759	 0.500058
C	 1.135873	 0.113391	 0.608264
C	 0.027642	 1.012027	 0.090274
H	 2.034296	 0.283338	 0.020282
H	 1.373310	 0.355140	 1.640563
C	 -1.138737	 0.285728	 -0.581921
H	 0.464661	 1.708096	 -0.618252
H	 -0.340737	 1.603071	 0.925246
C	 -1.933983	 -0.631436	 0.343653
H	 -0.763151	 -0.285569	 -1.422081
H	 -1.808359	 1.035291	 -0.992333
H	 -2.789188	 -1.049673	 -0.174718
H	 -1.335629	 -1.461368	 0.700418
H	 -2.305435	 -0.092167	 1.209725

	symmetry c1
}
set optking {
	frozen_dihedral = ("
		2 3 4 8
	")
}

ee = optimize('scf')
oeprop('DIPOLE', 'QUADRUPOLE', 'MULLIKEN_CHARGES')
f=open( 'psi4out.xyz', 'w' )
f.write( "15  " )
f.write( str(ee) + "\n" )
f.write( MOL.save_string_xyz() )
f.close()
--------------------------------------------------------------------------

    Molecular point group: c1
  Charge       = 0
  Multiplicity = 1
  Basis Set: CC-PVTZ
  Basis Set:
  @DF-RHF Final Energy:  -232.22296318246543
    Total Energy =                       -232.2229631824655485
    Molecular point group: c1
  Basis Set: CC-PVTZ
  Basis Set:
  Basis Set: CC-PVTZ
  Basis Set:
  @DF-RHF Final Energy:  -232.22781030961187
    Total Energy =                       -232.2278103096122095
  Basis Set: CC-PVTZ
  Basis Set:
  Basis Set: CC-PVTZ
  Basis Set:
  @DF-RHF Final Energy:  -232.22865382482112
    Total Energy =                       -232.2286538248210945
  Basis Set: CC-PVTZ
  Basis Set:
  Basis Set: CC-PVTZ
  Basis Set:
  @DF-RHF Final Energy:  -232.22883383749698
    Total Energy =                       -232.2288338374968362
  Basis Set: CC-PVTZ
  Basis Set:
  Basis Set: CC-PVTZ
  Basis Set:
  @DF-RHF Final Energy:  -232.22887043830190
    Total Energy =                       -232.2288704383020104
  Basis Set: CC-PVTZ
  Basis Set:
  Basis Set: CC-PVTZ
  Basis Set:
  @DF-RHF Final Energy:  -232.22887405916566
    Total Energy =                       -232.2288740591656051
  Basis Set: CC-PVTZ
  Basis Set:
  Charge       = 0
  Multiplicity = 1
  Basis Set: CC-PVTZ
  Basis Set:

    Orbital Energies (a.u.)
    -----------------------

    Doubly Occupied:

       1A    -20.547534     2A    -11.267688     3A    -11.211944
       4A    -11.205663     5A    -11.192581     6A     -1.365540
       7A     -1.058475     8A     -0.968368     9A     -0.863337
      10A     -0.775623    11A     -0.705976    12A     -0.649140
      13A     -0.608096    14A     -0.576331    15A     -0.551413
      16A     -0.533795    17A     -0.508163    18A     -0.476795
      19A     -0.461767    20A     -0.447934    21A     -0.427060

  @DF-RHF Final Energy:  -232.22887435042944

   => Energetics <=

    Nuclear Repulsion Energy =            193.0080287062860691
    One-Electron Energy =                -697.6673558671459432
    Two-Electron Energy =                 272.4304528104299834
    DFT Exchange-Correlation Energy =       0.0000000000000000
    Empirical Dispersion Energy =           0.0000000000000000
    PCM Polarization Energy =               0.0000000000000000
    EFP Energy =                            0.0000000000000000
    Total Energy =                       -232.2288743504299191
    Molecular point group: c1
  Basis Set: CC-PVTZ
  Basis Set:

  -Total Gradient:
     Atom            X                  Y                   Z
    ------   -----------------  -----------------  -----------------
       1        0.000003153734     0.000005392763    -0.000001137001
       2        0.000352443778     0.000053404982    -0.000924898773
       3       -0.000513475751    -0.000249115462     0.001025525208
       4        0.000339393551     0.000927792414     0.000889766403
       5        0.000001287212     0.000009787027    -0.000001961208
       6       -0.000001131382    -0.000001609264     0.000007435119
       7       -0.000013318393     0.000007449663    -0.000017014263
       8       -0.000179103760    -0.000752580138    -0.000991194568
       9       -0.000010082938    -0.000007799165    -0.000011209080
      10        0.000021206063     0.000007932698     0.000034396986
      11        0.000004836100     0.000006965155     0.000011511883
      12        0.000000102025    -0.000004646165     0.000007206849
      13       -0.000006717307    -0.000010418322    -0.000004471152
      14       -0.000005550598     0.000006873463    -0.000010014799
      15        0.000006957668     0.000000570351    -0.000013941603

  **** Optimization is complete! (in 7 steps) ****
    Final optimized geometry and variables:
    Molecular point group: c1

    Geometry (in Angstrom), charge = 0, multiplicity = 1:

    H            1.877186709556    -1.620950790166     0.467947453948
    O            1.124260263720    -1.123038058395     0.208876009801
    C            1.381317381042     0.246639916035     0.388230196238
    C            0.179144318557     1.108862028216    -0.050003490978
    H            2.252937038338     0.526803332988    -0.196157128714
    H            1.615925523712     0.446769082514     1.429312691767
    C           -0.959724569718     0.380027560699    -0.773336184894
    H            0.554268063054     1.882194970361    -0.710831502304
    H           -0.231708283496     1.620007270743     0.814173283327
    C           -1.894586198411    -0.399802770558     0.147351291054
    H           -0.551486807002    -0.282371149547    -1.526449156176
    H           -1.541764568974     1.128859712931    -1.302217968750
    H           -2.690798932595    -0.867493762549    -0.421751572642
    H           -1.364603069278    -1.174943714308     0.682125618295
    H           -2.357142712582     0.260284607786     0.875121881886

  Mulliken Charges: (a.u.)
   Center  Symbol    Alpha    Beta     Spin     Total
       1     H     0.39845  0.39845  0.00000  0.20310
       2     O     4.19109  4.19109  0.00000 -0.38217
       3     C     2.96798  2.96798  0.00000  0.06404
       4     C     3.10877  3.10877  0.00000 -0.21753
       5     H     0.46932  0.46932  0.00000  0.06137
       6     H     0.47016  0.47016  0.00000  0.05969
       7     C     3.08305  3.08305  0.00000 -0.16611
       8     H     0.44818  0.44818  0.00000  0.10364
       9     H     0.45401  0.45401  0.00000  0.09198
      10     C     3.14806  3.14806  0.00000 -0.29613
      11     H     0.45058  0.45058  0.00000  0.09885
      12     H     0.45061  0.45061  0.00000  0.09878
      13     H     0.45218  0.45218  0.00000  0.09564
      14     H     0.44701  0.44701  0.00000  0.10598
      15     H     0.46057  0.46057  0.00000  0.07887

   Total alpha = 21.00000, Total beta = 21.00000, Total charge =  0.00000
