                              Psi4 1.0.54 Driver

  ==> Input File <==

--------------------------------------------------------------------------
set {
	reference rhf
	basis cc-pvtz
}

set_num_threads( 4 )
memory 2 gb

molecule MOL {
0 1

H	 -3.436473	 1.252944	 -1.023892
O	 -3.458596	 0.315260	 -0.960865
C	 -3.176635	 -0.080824	 0.355601
C	 -1.763371	 0.265266	 0.799691
H	 -3.321825	 -1.153438	 0.379502
H	 -3.895468	 0.357385	 1.043382
C	 -0.673390	 -0.426948	 -0.013392
H	 -1.631049	 1.344913	 0.747560
H	 -1.664587	 -0.001624	 1.849167
C	 0.737842	 -0.043159	 0.423759
H	 -0.806103	 -0.190518	 -1.063345
H	 -0.797221	 -1.503753	 0.074146
C	 1.824000	 -0.743224	 -0.390623
H	 0.850588	 1.033777	 0.343840
H	 0.868587	 -0.286314	 1.476203
C	 1.330532	 -1.431907	 -1.664222
H	 2.328689	 -1.473314	 0.237952
H	 2.577362	 -0.010263	 -0.666004
C	 0.405887	 -2.623737	 -1.428181
H	 2.194655	 -1.769501	 -2.228223
H	 0.825355	 -0.703289	 -2.292977
H	 0.882570	 -3.366926	 -0.796895
H	 0.150330	 -3.103638	 -2.366065
H	 -0.521110	 -2.330031	 -0.950668

	symmetry c1
}
set optking {
	frozen_dihedral = ("
		17 13 10 7
	")
}

ee,wfn = optimize('scf', return_wfn=True)
oeprop( wfn, 'DIPOLE', 'QUADRUPOLE', 'MULLIKEN_CHARGES')
f=open( 'psi4out.xyz', 'w' )
f.write( "24  " )
f.write( str(ee) + "\n" )
f.write( MOL.save_string_xyz() )
f.close()
--------------------------------------------------------------------------

    Molecular point group: c1
  Charge       = 0
  Multiplicity = 1
  Basis Set: CC-PVTZ
  Basis Set:
  @DF-RHF Final Energy:  -349.34252490189732
    Total Energy =                       -349.3425249018973773
    Molecular point group: c1
  Basis Set: CC-PVTZ
  Basis Set:
  Basis Set: CC-PVTZ
  Basis Set:
  @DF-RHF Final Energy:  -349.36226069088372
    Total Energy =                       -349.3622606908835451
  Basis Set: CC-PVTZ
  Basis Set:
  Basis Set: CC-PVTZ
  Basis Set:
  @DF-RHF Final Energy:  -349.36680116618805
    Total Energy =                       -349.3668011661877699
  Basis Set: CC-PVTZ
  Basis Set:
  Basis Set: CC-PVTZ
  Basis Set:
  @DF-RHF Final Energy:  -349.36799245289046
    Total Energy =                       -349.3679924528908032
  Basis Set: CC-PVTZ
  Basis Set:
  @DF-RHF Final Energy:  -349.36857431891548
    Total Energy =                       -349.3685743189150799
  @DF-RHF Final Energy:  -349.36861830406679
    Total Energy =                       -349.3686183040663309
  Basis Set: CC-PVTZ
  Basis Set:
  @DF-RHF Final Energy:  -349.36872130452838
    Total Energy =                       -349.3687213045286626
  Basis Set: CC-PVTZ
  Basis Set:
  Basis Set: CC-PVTZ
  Basis Set:
  @DF-RHF Final Energy:  -349.36873232878747
    Total Energy =                       -349.3687323287877007
  Basis Set: CC-PVTZ
  Basis Set:
  Basis Set: CC-PVTZ
  Basis Set:
  @DF-RHF Final Energy:  -349.36873410337665
    Total Energy =                       -349.3687341033767098
  Basis Set: CC-PVTZ
  Basis Set:
  Charge       = 0
  Multiplicity = 1
  Basis Set: CC-PVTZ
  Basis Set:

    Orbital Energies (a.u.)
    -----------------------

    Doubly Occupied:

       1A    -20.546722     2A    -11.265709     3A    -11.215122
       4A    -11.211576     5A    -11.211221     6A    -11.210184
       7A    -11.208704     8A    -11.202059     9A     -1.364468
      10A     -1.086021    11A     -1.046008    12A     -0.984110
      13A     -0.920430    14A     -0.850760    15A     -0.809817
      16A     -0.763834    17A     -0.683086    18A     -0.653430
      19A     -0.620321    20A     -0.614092    21A     -0.609905
      22A     -0.584037    23A     -0.556308    24A     -0.540292
      25A     -0.518014    26A     -0.510295    27A     -0.497361
      28A     -0.481535    29A     -0.470474    30A     -0.458068
      31A     -0.444661    32A     -0.441667    33A     -0.422301

  @DF-RHF Final Energy:  -349.36873468025607

   => Energetics <=

    Nuclear Repulsion Energy =            393.8084683675296560
    One-Electron Energy =               -1254.3492159987358718
    Two-Electron Energy =                 511.1720129509503749
    DFT Exchange-Correlation Energy =       0.0000000000000000
    Empirical Dispersion Energy =           0.0000000000000000
    PCM Polarization Energy =               0.0000000000000000
    EFP Energy =                            0.0000000000000000
    Total Energy =                       -349.3687346802557840
    Molecular point group: c1
  Basis Set: CC-PVTZ
  Basis Set:

  -Total Gradient:
     Atom            X                  Y                   Z
    ------   -----------------  -----------------  -----------------
       1        0.000004054789    -0.000003778271     0.000008506981
       2        0.000016995992    -0.000032214765    -0.000005673539
       3       -0.000016924056     0.000054698451    -0.000020356238
       4        0.000006640315    -0.000036015923     0.000023640638
       5        0.000006629641     0.000001825154    -0.000003364267
       6       -0.000005231997    -0.000000018897     0.000011446031
       7        0.000059875065     0.002371784645    -0.002083929469
       8       -0.000001646019    -0.000001733792    -0.000009545337
       9        0.000005057069    -0.000006227022     0.000008379630
      10        0.000538203729    -0.002792167656     0.003385331815
      11       -0.000003915453    -0.000004543648    -0.000028057764
      12       -0.000000709104    -0.000005985530    -0.000012290975
      13       -0.003347250685    -0.002374326870    -0.002374467818
      14        0.000007033179    -0.000000719818     0.000001029567
      15        0.000002891006    -0.000001388028    -0.000014228809
      16       -0.000013840288    -0.000015959988    -0.000012595384
      17        0.002746349884     0.002843634193     0.001116660375
      18       -0.000009389589    -0.000001897214     0.000001249446
      19        0.000015408039    -0.000038497117    -0.000016381196
      20        0.000024578531     0.000019075717     0.000002133005
      21       -0.000020503096     0.000000211967    -0.000008295395
      22        0.000004038458    -0.000006055786     0.000014048143
      23        0.000001171146     0.000018040139     0.000002593226
      24       -0.000019516554     0.000012260061     0.000014167333

  **** Optimization is complete! (in 10 steps) ****
    Final optimized geometry and variables:
    Molecular point group: c1

    Geometry (in Angstrom), charge = 0, multiplicity = 1:

    H           -2.761842836530     2.039098879632    -0.642739379250
    O           -2.889104364202     1.125779445472    -0.460150352607
    C           -2.566368329147     0.858176901940     0.879222469736
    C           -1.093993223420     1.070025932207     1.197841550339
    H           -2.839137652487    -0.175844637192     1.048005455097
    H           -3.177072126448     1.465099238263     1.542921952766
    C           -0.156381035746     0.153016834756     0.415730128477
    H           -0.836937317880     2.110313465477     1.004449219848
    H           -0.954092663012     0.916858986750     2.265247525217
    C            1.311367487046     0.415604143646     0.754513718541
    H           -0.333432763991     0.291546294872    -0.642569308605
    H           -0.417898492127    -0.875676539574     0.641865893640
    C            2.409473787546    -0.340130584645    -0.041325878854
    H            1.479852037901     1.480192571885     0.618352013501
    H            1.462999937512     0.232592964693     1.813456173011
    C            2.051557344188    -1.015357677238    -1.371107336489
    H            2.890075623257    -1.065820362006     0.608199509055
    H            3.189497499126     0.384322817565    -0.252194839196
    C            1.405045001010    -2.394389107857    -1.255913401012
    H            2.973308781711    -1.128681293535    -1.933479059337
    H            1.422895906862    -0.361995533825    -1.966991045063
    H            2.042444115376    -3.069722390624    -0.694290349137
    H            1.252743464248    -2.827389743477    -2.238367881509
    H            0.443487878822    -2.361937439595    -0.762538288318

  Mulliken Charges: (a.u.)
   Center  Symbol    Alpha    Beta     Spin     Total
       1     H     0.39519  0.39519  0.00000  0.20961
       2     O     4.20312  4.20312  0.00000 -0.40624
       3     C     2.97785  2.97785  0.00000  0.04430
       4     C     3.10259  3.10259  0.00000 -0.20519
       5     H     0.45885  0.45885  0.00000  0.08229
       6     H     0.45995  0.45995  0.00000  0.08010
       7     C     3.09837  3.09837  0.00000 -0.19674
       8     H     0.45911  0.45911  0.00000  0.08178
       9     H     0.45301  0.45301  0.00000  0.09398
      10     C     3.09231  3.09231  0.00000 -0.18461
      11     H     0.44136  0.44136  0.00000  0.11728
      12     H     0.45398  0.45398  0.00000  0.09204
      13     C     3.09965  3.09965  0.00000 -0.19930
      14     H     0.45428  0.45428  0.00000  0.09145
      15     H     0.45070  0.45070  0.00000  0.09861
      16     C     3.09925  3.09925  0.00000 -0.19849
      17     H     0.45311  0.45311  0.00000  0.09377
      18     H     0.44787  0.44787  0.00000  0.10427
      19     C     3.14799  3.14799  0.00000 -0.29597
      20     H     0.44500  0.44500  0.00000  0.11001
      21     H     0.45102  0.45102  0.00000  0.09796
      22     H     0.45623  0.45623  0.00000  0.08754
      23     H     0.44833  0.44833  0.00000  0.10334
      24     H     0.45089  0.45089  0.00000  0.09823

   Total alpha = 33.00000, Total beta = 33.00000, Total charge =  0.00000

*** Psi4 exiting successfully. Buy a developer a beer!
