                              Psi4 1.0.54 Driver

  ==> Input File <==

--------------------------------------------------------------------------
set {
	reference rhf
	basis cc-pvtz
}

set_num_threads( 4 )
memory 2 gb

molecule MOL {
0 1

O	 -2.081319	 -0.951530	 -0.502732
N	 -1.613558	 0.006676	 0.014756
C	 -0.329345	 -0.171618	 0.743966
O	 -2.068523	 1.100482	 -0.024385
C	 0.835904	 0.041968	 -0.213982
H	 -0.346048	 -1.174374	 1.137184
H	 -0.333613	 0.555559	 1.538590
C	 1.088366	 1.527150	 -0.460283
H	 1.723080	 -0.420819	 0.202315
H	 0.617121	 -0.457096	 -1.150895
C	 2.246171	 1.768848	 -1.422338
H	 1.295108	 2.019822	 0.485217
H	 0.187240	 1.985553	 -0.856824
H	 3.168909	 1.350304	 -1.036238
H	 2.053737	 1.313801	 -2.387541
H	 2.403179	 2.828791	 -1.580550

	symmetry c1
}
set optking {
	frozen_dihedral = ("
		9 5 3 2
	")
}

ee,wfn = optimize('scf', return_wfn=True)
oeprop( wfn, 'DIPOLE', 'QUADRUPOLE', 'MULLIKEN_CHARGES')
f=open( 'psi4out.xyz', 'w' )
f.write( "16  " )
f.write( str(ee) + "\n" )
f.write( MOL.save_string_xyz() )
f.close()
--------------------------------------------------------------------------

    Molecular point group: c1
  Charge       = 0
  Multiplicity = 1
  Basis Set: CC-PVTZ
  Basis Set:
  @DF-RHF Final Energy:  -360.90703254580933
    Total Energy =                       -360.9070325458095567
    Molecular point group: c1
  Basis Set: CC-PVTZ
  Basis Set:
  Basis Set: CC-PVTZ
  Basis Set:
  @DF-RHF Final Energy:  -360.90721469774297
    Total Energy =                       -360.9072146977431430
  Basis Set: CC-PVTZ
  Basis Set:
  Basis Set: CC-PVTZ
  Basis Set:
  @DF-RHF Final Energy:  -360.90776838270546
    Total Energy =                       -360.9077683827051715
  Basis Set: CC-PVTZ
  Basis Set:
  Basis Set: CC-PVTZ
  Basis Set:
  @DF-RHF Final Energy:  -360.90752275815709
    Total Energy =                       -360.9075227581570857
  Basis Set: CC-PVTZ
  Basis Set:
  @DF-RHF Final Energy:  -360.90811302593005
    Total Energy =                       -360.9081130259299925
  @DF-RHF Final Energy:  -360.90818770435470
    Total Energy =                       -360.9081877043544750
  @DF-RHF Final Energy:  -360.90824934456481
    Total Energy =                       -360.9082493445648083
  @DF-RHF Final Energy:  -360.90829842227589
    Total Energy =                       -360.9082984222758341
  Basis Set: CC-PVTZ
  Basis Set:
  @DF-RHF Final Energy:  -360.90837676612909
    Total Energy =                       -360.9083767661286970
  Basis Set: CC-PVTZ
  Basis Set:
  Basis Set: CC-PVTZ
  Basis Set:
  @DF-RHF Final Energy:  -360.90840713101773
    Total Energy =                       -360.9084071310177819
  Basis Set: CC-PVTZ
  Basis Set:
  Basis Set: CC-PVTZ
  Basis Set:
  @DF-RHF Final Energy:  -360.90841251063455
    Total Energy =                       -360.9084125106340935
  Basis Set: CC-PVTZ
  Basis Set:
  Charge       = 0
  Multiplicity = 1
  Basis Set: CC-PVTZ
  Basis Set:

    Orbital Energies (a.u.)
    -----------------------

    Doubly Occupied:

       1A    -20.592268     2A    -20.588628     3A    -15.836731
       4A    -11.296969     5A    -11.248344     6A    -11.235116
       7A    -11.221936     8A     -1.635951     9A     -1.420138
      10A     -1.134419    11A     -1.055397    12A     -0.948031
      13A     -0.852289    14A     -0.817812    15A     -0.761862
      16A     -0.739565    17A     -0.729073    18A     -0.652126
      19A     -0.631120    20A     -0.603152    21A     -0.569519
      22A     -0.549328    23A     -0.507387    24A     -0.494562
      25A     -0.491594    26A     -0.485938    27A     -0.473415
      28A     -0.452970

  @DF-RHF Final Energy:  -360.90841338135056

   => Energetics <=

    Nuclear Repulsion Energy =            318.5843961314985791
    One-Electron Energy =               -1122.9343438469509238
    Two-Electron Energy =                 443.4415343341017319
    DFT Exchange-Correlation Energy =       0.0000000000000000
    Empirical Dispersion Energy =           0.0000000000000000
    PCM Polarization Energy =               0.0000000000000000
    EFP Energy =                            0.0000000000000000
    Total Energy =                       -360.9084133813506128
    Molecular point group: c1
  Basis Set: CC-PVTZ
  Basis Set:

  -Total Gradient:
     Atom            X                  Y                   Z
    ------   -----------------  -----------------  -----------------
       1        0.000012628818    -0.000070230501    -0.000046794052
       2        0.000024703718    -0.001922865422    -0.000576956345
       3       -0.000289826072     0.002301500584     0.000580751085
       4        0.000092120916    -0.000093084492    -0.000040290076
       5        0.000733624187     0.002294637316     0.001679161727
       6        0.000017785518     0.000009608622     0.000008032416
       7       -0.000021422985    -0.000006785997    -0.000040238435
       8        0.000015799005    -0.000025456432     0.000011058754
       9       -0.000573764859    -0.002492293726    -0.001584329592
      10       -0.000002658643     0.000011169335     0.000023755031
      11       -0.000013677675     0.000013216748    -0.000015337660
      12        0.000000657182    -0.000011154025    -0.000012341417
      13        0.000005718419    -0.000000988459     0.000005212810
      14       -0.000006812071     0.000003791694     0.000001860505
      15        0.000005647441     0.000003827663     0.000009917383
      16       -0.000000522894    -0.000014892910    -0.000003462137

  **** Optimization is complete! (in 12 steps) ****
    Final optimized geometry and variables:
    Molecular point group: c1

    Geometry (in Angstrom), charge = 0, multiplicity = 1:

    O           -1.505983342947    -1.281116391555    -0.581204905276
    N           -1.264071990314    -0.579591486276     0.343514802569
    C            0.092937139116    -0.703639756376     0.952511893050
    O           -2.012448467442     0.203593092480     0.823118657849
    C            1.182530002213    -0.314067107493    -0.038844935176
    H            0.172734044601    -1.744670736936     1.224955103811
    H            0.082189274370    -0.085202126569     1.833082428075
    C            1.337072283432     1.191155105966    -0.232641377967
    H            2.108538302014    -0.753065439371     0.316981146075
    H            0.970853964676    -0.797344976136    -0.984267075780
    C            2.426388024826     1.538396393437    -1.240961392059
    H            1.563561872394     1.655388460729     0.722594348007
    H            0.392944320299     1.613777208155    -0.561508444645
    H            3.390435526322     1.154678584228    -0.924280667675
    H            2.205573319032     1.116763874502    -2.215243079779
    H            2.519048576234     2.611158161550    -1.357515764018

  Mulliken Charges: (a.u.)
   Center  Symbol    Alpha    Beta     Spin     Total
       1     O     4.17440  4.17440  0.00000 -0.34881
       2     N     3.27755  3.27755  0.00000  0.44490
       3     C     3.05107  3.05107  0.00000 -0.10214
       4     O     4.16933  4.16933  0.00000 -0.33866
       5     C     3.10667  3.10667  0.00000 -0.21333
       6     H     0.42697  0.42697  0.00000  0.14606
       7     H     0.43213  0.43213  0.00000  0.13575
       8     C     3.08436  3.08436  0.00000 -0.16872
       9     H     0.44505  0.44505  0.00000  0.10990
      10     H     0.43538  0.43538  0.00000  0.12924
      11     C     3.14979  3.14979  0.00000 -0.29957
      12     H     0.45188  0.45188  0.00000  0.09624
      13     H     0.44474  0.44474  0.00000  0.11052
      14     H     0.45495  0.45495  0.00000  0.09010
      15     H     0.45109  0.45109  0.00000  0.09781
      16     H     0.44465  0.44465  0.00000  0.11071

   Total alpha = 28.00000, Total beta = 28.00000, Total charge = -0.00000

*** Psi4 exiting successfully. Buy a developer a beer!
