                              Psi4 1.0.54 Driver

  ==> Input File <==

--------------------------------------------------------------------------
set {
	reference rhf
	basis cc-pvtz
}

set_num_threads( 4 )
memory 2 gb

molecule MOL {
0 1

H	 2.713119	 -0.053100	 -0.450121
C	 1.948180	 -0.217873	 0.320185
C	 0.692262	 0.592428	 0.156232
O	 2.147804	 -0.985145	 1.197156
C	 -0.554654	 -0.292621	 0.086567
H	 0.791858	 1.203694	 -0.731051
H	 0.617379	 1.254358	 1.016534
C	 -1.846385	 0.513195	 -0.016346
H	 -0.473986	 -0.956115	 -0.769708
H	 -0.597929	 -0.929215	 0.966651
C	 -3.089953	 -0.365049	 -0.098564
H	 -1.798267	 1.154820	 -0.891143
H	 -1.925398	 1.173265	 0.842889
H	 -3.055079	 -1.012299	 -0.968245
H	 -3.988403	 0.236438	 -0.170014
H	 -3.183055	 -0.995885	 0.779079

	symmetry c1
}
set optking {
	frozen_dihedral = ("
		4 2 3 6
	")
}

ee,wfn = optimize('scf', return_wfn=True)
oeprop( wfn, 'DIPOLE', 'QUADRUPOLE', 'MULLIKEN_CHARGES')
f=open( 'psi4out.xyz', 'w' )
f.write( "16  " )
f.write( str(ee) + "\n" )
f.write( MOL.save_string_xyz() )
f.close()
--------------------------------------------------------------------------

    Molecular point group: c1
  Charge       = 0
  Multiplicity = 1
  Basis Set: CC-PVTZ
  Basis Set:
  @DF-RHF Final Energy:  -270.11718441756989
    Total Energy =                       -270.1171844175697743
    Molecular point group: c1
  Basis Set: CC-PVTZ
  Basis Set:
  Basis Set: CC-PVTZ
  Basis Set:
  @DF-RHF Final Energy:  -270.11742781091425
    Total Energy =                       -270.1174278109142506
  Basis Set: CC-PVTZ
  Basis Set:
  Basis Set: CC-PVTZ
  Basis Set:
  @DF-RHF Final Energy:  -270.11743323472706
    Total Energy =                       -270.1174332347271729
  Basis Set: CC-PVTZ
  Basis Set:
  Basis Set: CC-PVTZ
  Basis Set:
  @DF-RHF Final Energy:  -270.11741625411105
    Total Energy =                       -270.1174162541110491
  Basis Set: CC-PVTZ
  Basis Set:
  Basis Set: CC-PVTZ
  Basis Set:
  @DF-RHF Final Energy:  -270.11744213211477
    Total Energy =                       -270.1174421321147747
  Basis Set: CC-PVTZ
  Basis Set:
  Charge       = 0
  Multiplicity = 1
  Basis Set: CC-PVTZ
  Basis Set:

    Orbital Energies (a.u.)
    -----------------------

    Doubly Occupied:

       1A    -20.552326     2A    -11.322492     3A    -11.234128
       4A    -11.226987     5A    -11.222970     6A    -11.212685
       7A     -1.407819     8A     -1.091862     9A     -1.015845
      10A     -0.906919    11A     -0.813742    12A     -0.781241
      13A     -0.684226    14A     -0.648135    15A     -0.632037
      16A     -0.601981    17A     -0.580444    18A     -0.548433
      19A     -0.529051    20A     -0.505526    21A     -0.483284
      22A     -0.480300    23A     -0.474393    24A     -0.410921

  @DF-RHF Final Energy:  -270.11744230637254

   => Energetics <=

    Nuclear Repulsion Energy =            231.4706843433486370
    One-Electron Energy =                -824.4407619984933717
    Two-Electron Energy =                 322.8526353487723668
    DFT Exchange-Correlation Energy =       0.0000000000000000
    Empirical Dispersion Energy =           0.0000000000000000
    PCM Polarization Energy =               0.0000000000000000
    EFP Energy =                            0.0000000000000000
    Total Energy =                       -270.1174423063723111
    Molecular point group: c1
  Basis Set: CC-PVTZ
  Basis Set:

  -Total Gradient:
     Atom            X                  Y                   Z
    ------   -----------------  -----------------  -----------------
       1       -0.000041099184    -0.000085130074    -0.000068847703
       2       -0.000252427983    -0.000242738302    -0.000029935155
       3       -0.000112020884    -0.000365186497    -0.000321856881
       4        0.000296301405     0.000263326401     0.000193416433
       5        0.000051231146     0.000065824027    -0.000078178670
       6        0.000141483458     0.000283403074     0.000326944370
       7       -0.000009605535     0.000032946975     0.000021939858
       8       -0.000074866520    -0.000013677628    -0.000093179162
       9       -0.000005350653     0.000006184732     0.000007126930
      10        0.000083703748    -0.000002510505     0.000000482326
      11       -0.000026086094     0.000059413169     0.000036229947
      12       -0.000042968811     0.000018265601    -0.000003074375
      13       -0.000010185393    -0.000019817477    -0.000012126702
      14        0.000018385135     0.000021763345     0.000000923583
      15       -0.000013084571    -0.000013706959     0.000012723209
      16       -0.000003409265    -0.000008359883     0.000007411989

  **** Optimization is complete! (in 6 steps) ****
    Final optimized geometry and variables:
    Molecular point group: c1

    Geometry (in Angstrom), charge = 0, multiplicity = 1:

    H            2.854941325146     0.091041671645    -0.767747340422
    C            2.086553365398    -0.070864853726    -0.002763479461
    C            0.812636793860     0.729479400047    -0.145395549502
    O            2.284552369385    -0.835684539138     0.877242691136
    C           -0.432958894328    -0.158153307573    -0.192908043975
    H            0.875145828936     1.354979911988    -1.028870388710
    H            0.757689139942     1.391142394550     0.714390482631
    C           -1.727695175620     0.645791270684    -0.264411467783
    H           -0.370981075626    -0.819460181924    -1.053163828221
    H           -0.439241135813    -0.793325404773     0.684611524115
    C           -2.970439651759    -0.236329549261    -0.314096403392
    H           -1.707158548588     1.289563631240    -1.139586089968
    H           -1.787116891487     1.304263776263     0.597632229712
    H           -2.957803419462    -0.881503957297    -1.186097006055
    H           -3.873102988718     0.361717613818    -0.358327355528
    H           -3.034982838670    -0.869796180173     0.563900986160

  Mulliken Charges: (a.u.)
   Center  Symbol    Alpha    Beta     Spin     Total
       1     H     0.45522  0.45522  0.00000  0.08956
       2     C     2.91856  2.91856  0.00000  0.16288
       3     C     3.08587  3.08587  0.00000 -0.17173
       4     O     4.16739  4.16739  0.00000 -0.33477
       5     C     3.09150  3.09150  0.00000 -0.18300
       6     H     0.44858  0.44858  0.00000  0.10284
       7     H     0.44408  0.44408  0.00000  0.11184
       8     C     3.08459  3.08459  0.00000 -0.16917
       9     H     0.45241  0.45241  0.00000  0.09517
      10     H     0.43991  0.43991  0.00000  0.12018
      11     C     3.14909  3.14909  0.00000 -0.29818
      12     H     0.45477  0.45477  0.00000  0.09046
      13     H     0.45289  0.45289  0.00000  0.09422
      14     H     0.45457  0.45457  0.00000  0.09086
      15     H     0.44778  0.44778  0.00000  0.10444
      16     H     0.45279  0.45279  0.00000  0.09442

   Total alpha = 24.00000, Total beta = 24.00000, Total charge = -0.00000

*** Psi4 exiting successfully. Buy a developer a beer!
