  ==> Input File <==

--------------------------------------------------------------------------
set {
	reference rhf
	basis 6-31G*
}

set_num_threads( 4 )
memory 2 gb

molecule MOL {
0 1

O	 1.710443	 -0.526744	 -0.269390
C	 0.861134	 0.272526	 -0.014869
C	 -0.623889	 -0.118271	 -0.003699
C	 1.248047	 1.706877	 0.299679
C	 -0.895332	 -1.256461	 -1.002431
C	 -1.473649	 1.103340	 -0.370799
C	 -0.983900	 -0.581483	 1.422328
H	 -0.615301	 -0.972064	 -2.012700
H	 -1.954261	 -1.493213	 -1.010207
H	 -0.360539	 -2.164946	 -0.747760
H	 -1.227476	 1.468527	 -1.361691
H	 -2.526716	 0.838935	 -0.358521
H	 -1.314819	 1.915855	 0.325860
H	 -2.039679	 -0.828001	 1.472951
H	 -0.427637	 -1.464071	 1.720694
H	 -0.789023	 0.202493	 2.147048
H	 1.223473	 1.860615	 1.374491
H	 2.257085	 1.878099	 -0.049095
H	 0.577351	 2.429895	 -0.148244

	symmetry c1
}
set optking {
	frozen_dihedral = ("
		1 2 3 5
	")
}

ee = optimize('scf')
oeprop('DIPOLE', 'QUADRUPOLE', 'MULLIKEN_CHARGES')
f=open( 'psi4out.xyz', 'w' )
f.write( "19  " )
f.write( str(ee) + "\n" )
f.write( MOL.save_string_xyz() )
f.close()
--------------------------------------------------------------------------

    Molecular point group: c1
  Charge       = 0
  Multiplicity = 1
  Basis Set: 6-31G*
  Basis Set:
  @DF-RHF Final Energy:  -309.05892131475912
    Total Energy =                       -309.0589213147592886
    Molecular point group: c1
  Basis Set: 6-31G*
  Basis Set:
  Basis Set: 6-31G*
  Basis Set:
  @DF-RHF Final Energy:  -309.05963497445248
    Total Energy =                       -309.0596349744521376
  Basis Set: 6-31G*
  Basis Set:
  Basis Set: 6-31G*
  Basis Set:
  @DF-RHF Final Energy:  -309.06172590319534
    Total Energy =                       -309.0617259031953949
  Basis Set: 6-31G*
  Basis Set:
  Basis Set: 6-31G*
  Basis Set:
  @DF-RHF Final Energy:  -309.05987820016884
    Total Energy =                       -309.0598782001690097
  Basis Set: 6-31G*
  Basis Set:
  @DF-RHF Final Energy:  -309.06252853826788
    Total Energy =                       -309.0625285382679408
  @DF-RHF Final Energy:  -309.06257809694074
    Total Energy =                       -309.0625780969409675
  Basis Set: 6-31G*
  Basis Set:
  @DF-RHF Final Energy:  -309.06275446405135
    Total Energy =                       -309.0627544640512951
  Basis Set: 6-31G*
  Basis Set:
  Basis Set: 6-31G*
  Basis Set:
  @DF-RHF Final Energy:  -309.06277989998438
    Total Energy =                       -309.0627798999842071
  Basis Set: 6-31G*
  Basis Set:
  Basis Set: 6-31G*
  Basis Set:
  @DF-RHF Final Energy:  -309.06278091673249
    Total Energy =                       -309.0627809167327769
  Basis Set: 6-31G*
  Basis Set:
  Charge       = 0
  Multiplicity = 1
  Basis Set: 6-31G*
  Basis Set:

    Orbital Energies (a.u.)
    -----------------------

    Doubly Occupied:

       1A    -20.547977     2A    -11.323065     3A    -11.246402
       4A    -11.227176     5A    -11.223439     6A    -11.223092
       7A    -11.209861     8A     -1.394548     9A     -1.109138
      10A     -1.002697    11A     -0.945594    12A     -0.935805
      13A     -0.834419    14A     -0.703768    15A     -0.664573
      16A     -0.631581    17A     -0.621184    18A     -0.593154
      19A     -0.589423    20A     -0.567820    21A     -0.547311
      22A     -0.545870    23A     -0.524927    24A     -0.512498
      25A     -0.499962    26A     -0.471477    27A     -0.463777
      28A     -0.392058

  @DF-RHF Final Energy:  -309.06278111634333

   => Energetics <=

    Nuclear Repulsion Energy =            326.2943522521002251
    One-Electron Energy =               -1065.6090749665872863
    Two-Electron Energy =                 430.2519415981437874
    DFT Exchange-Correlation Energy =       0.0000000000000000
    Empirical Dispersion Energy =           0.0000000000000000
    PCM Polarization Energy =               0.0000000000000000
    EFP Energy =                            0.0000000000000000
    Total Energy =                       -309.0627811163432739
    Molecular point group: c1
  Basis Set: 6-31G*
  Basis Set:

  -Total Gradient:
     Atom            X                  Y                   Z
    ------   -----------------  -----------------  -----------------
       1        0.000103555957    -0.000272218455     0.001126160049
       2       -0.000169774860     0.000557961504    -0.001770977015
       3        0.000237053084    -0.000838759509     0.001229817193
       4       -0.000005896268     0.000002384045     0.000002556934
       5       -0.000153805314     0.000551673267    -0.000583565097
       6       -0.000005849724    -0.000005426885     0.000000629271
       7       -0.000003390917     0.000002845189     0.000000286603
       8        0.000002483896     0.000000503409     0.000003107093
       9       -0.000001816883    -0.000001782784    -0.000000345670
      10       -0.000000951942     0.000002164278    -0.000002763655
      11       -0.000002839704    -0.000001562234    -0.000002092318
      12        0.000000839080     0.000001194212     0.000000257335
      13       -0.000002353352     0.000004083196     0.000002580421
      14       -0.000002369769     0.000000291973     0.000001151493
      15       -0.000000009134    -0.000000967531    -0.000006010440
      16       -0.000001189072    -0.000000741983    -0.000003417786
      17        0.000002073003     0.000002027895     0.000004143771
      18       -0.000000819724     0.000001435205    -0.000003946157
      19        0.000005061639    -0.000005104793     0.000002427977

  **** Optimization is complete! (in 10 steps) ****
    Final optimized geometry and variables:
    Molecular point group: c1

    Geometry (in Angstrom), charge = 0, multiplicity = 1:

    O            1.705157968273    -0.636296303820    -0.327068168818
    C            0.883787739568     0.186817342186    -0.056163502436
    C           -0.608295633647    -0.181737285973    -0.009843973802
    C            1.314411794830     1.595089493822     0.307501090830
    C           -0.877073877589    -1.317734741569    -1.005294161573
    C           -1.513367058439     1.014307726140    -0.345645498009
    C           -0.901664436811    -0.666642430437     1.423873829848
    H           -0.671167336188    -1.001859837610    -2.023067777261
    H           -1.918664449649    -1.619943188306    -0.951939891924
    H           -0.256517825479    -2.177721846024    -0.794368403406
    H           -1.306149986371     1.405868076623    -1.337424740254
    H           -2.552250821531     0.701595220858    -0.329695840111
    H           -1.408450178296     1.826381609549     0.365359490177
    H           -1.942969218649    -0.960850816240     1.510134733582
    H           -0.285309610334    -1.522574542721     1.675132728583
    H           -0.718076309807     0.110997889062     2.159670976630
    H            0.869122908068     1.920672173628     1.241547504033
    H            2.391775390586     1.616943878855     0.392209867488
    H            1.004384391795     2.296481478880    -0.460587228560

  Mulliken Charges: (a.u.)
   Center  Symbol    Alpha    Beta     Spin     Total
       1     O     4.26563  4.26563  0.00000 -0.53127
       2     C     2.72574  2.72574  0.00000  0.54851
       3     C     3.06546  3.06546  0.00000 -0.13092
       4     C     3.29008  3.29008  0.00000 -0.58016
       5     C     3.23019  3.23019  0.00000 -0.46038
       6     C     3.24125  3.24125  0.00000 -0.48251
       7     C     3.24034  3.24034  0.00000 -0.48069
       8     H     0.41818  0.41818  0.00000  0.16363
       9     H     0.42233  0.42233  0.00000  0.15534
      10     H     0.40262  0.40262  0.00000  0.19476
      11     H     0.41682  0.41682  0.00000  0.16637
      12     H     0.41388  0.41388  0.00000  0.17224
      13     H     0.41762  0.41762  0.00000  0.16476
      14     H     0.41375  0.41375  0.00000  0.17249
      15     H     0.40660  0.40660  0.00000  0.18680
      16     H     0.41930  0.41930  0.00000  0.16140
      17     H     0.40927  0.40927  0.00000  0.18146
      18     H     0.39567  0.39567  0.00000  0.20866
      19     H     0.40525  0.40525  0.00000  0.18950

   Total alpha = 28.00000, Total beta = 28.00000, Total charge =  0.00000
