                              Psi4 1.0.54 Driver

  ==> Input File <==

--------------------------------------------------------------------------
set {
	reference rhf
	basis cc-pvtz
}

set_num_threads( 4 )
memory 2 gb

molecule MOL {
0 1

H	 2.190573	 -0.629143	 -0.208718
O	 1.355408	 -0.529451	 0.208662
C	 0.700177	 0.619554	 -0.266242
C	 -0.713111	 0.588314	 0.266177
H	 0.678680	 0.627133	 -1.351786
H	 1.199747	 1.521489	 0.077736
O	 -1.421673	 -0.521378	 -0.196983
H	 -1.244794	 1.469161	 -0.069059
H	 -0.685100	 0.604721	 1.352683
H	 -1.849925	 -0.288272	 -1.002145

	symmetry c1
}
set optking {
	frozen_dihedral = ("
		10 7 4 3
	")
}

ee,wfn = optimize('scf', return_wfn=True)
oeprop( wfn, 'DIPOLE', 'QUADRUPOLE', 'MULLIKEN_CHARGES')
f=open( 'psi4out.xyz', 'w' )
f.write( "10  " )
f.write( str(ee) + "\n" )
f.write( MOL.save_string_xyz() )
f.close()
--------------------------------------------------------------------------

    Molecular point group: c1
  Charge       = 0
  Multiplicity = 1
  Basis Set: CC-PVTZ
  Basis Set:
  @DF-RHF Final Energy:  -229.02086926857228
    Total Energy =                       -229.0208692685722554
    Molecular point group: c1
  Basis Set: CC-PVTZ
  Basis Set:
  Basis Set: CC-PVTZ
  Basis Set:
  @DF-RHF Final Energy:  -229.02251950381321
    Total Energy =                       -229.0225195038131858
  Basis Set: CC-PVTZ
  Basis Set:
  Basis Set: CC-PVTZ
  Basis Set:
  @DF-RHF Final Energy:  -229.02273628677170
    Total Energy =                       -229.0227362867717602
  Basis Set: CC-PVTZ
  Basis Set:
  Basis Set: CC-PVTZ
  Basis Set:
  @DF-RHF Final Energy:  -229.02275078640020
    Total Energy =                       -229.0227507864001950
  Basis Set: CC-PVTZ
  Basis Set:
  Charge       = 0
  Multiplicity = 1
  Basis Set: CC-PVTZ
  Basis Set:

    Orbital Energies (a.u.)
    -----------------------

    Doubly Occupied:

       1A    -20.548084     2A    -20.546307     3A    -11.270279
       4A    -11.268666     5A     -1.376298     6A     -1.356828
       7A     -1.002874     8A     -0.841553     9A     -0.724328
      10A     -0.683638    11A     -0.651935    12A     -0.599138
      13A     -0.574496    14A     -0.529894    15A     -0.490413
      16A     -0.447045    17A     -0.435964

  @DF-RHF Final Energy:  -229.02275136345304

   => Energetics <=

    Nuclear Repulsion Energy =            133.2694217700009744
    One-Electron Energy =                -577.8888639094179780
    Two-Electron Energy =                 215.5966907759638787
    DFT Exchange-Correlation Energy =       0.0000000000000000
    Empirical Dispersion Energy =           0.0000000000000000
    PCM Polarization Energy =               0.0000000000000000
    EFP Energy =                            0.0000000000000000
    Total Energy =                       -229.0227513634531249
    Molecular point group: c1
  Basis Set: CC-PVTZ
  Basis Set:

  -Total Gradient:
     Atom            X                  Y                   Z
    ------   -----------------  -----------------  -----------------
       1        0.000007411432     0.000017140343    -0.000004961952
       2       -0.000019228038    -0.000004819175     0.000037774082
       3        0.000149185393    -0.000413895927     0.000595258549
       4       -0.000477659140     0.000773795905    -0.000775076634
       5       -0.000007463883     0.000004659351     0.000025107713
       6       -0.000001345182    -0.000052379001     0.000009260538
       7        0.001374712047    -0.000750117626    -0.000545474115
       8        0.000018310687    -0.000016846925    -0.000002349953
       9        0.000013658421     0.000010116845     0.000008094941
      10       -0.001057581739     0.000432346212     0.000652366831

  **** Optimization is complete! (in 5 steps) ****
    Final optimized geometry and variables:
    Molecular point group: c1

    Geometry (in Angstrom), charge = 0, multiplicity = 1:

    H            2.251744389233    -0.640078601098     0.013257025327
    O            1.384424909560    -0.548651459623     0.361345348375
    C            0.744384970254     0.551738897223    -0.215032667602
    C           -0.702770629181     0.570111163322     0.224557160075
    H            0.792394549352     0.506834921229    -1.301315010327
    H            1.213675711900     1.481709123247     0.102158108905
    O           -1.450272027340    -0.489238159879    -0.302245598004
    H           -1.139564965546     1.528595701755    -0.043468776270
    H           -0.738305289429     0.479778372890     1.302228439751
    H           -1.830397682205    -0.242454558296    -1.124222213574

  Mulliken Charges: (a.u.)
   Center  Symbol    Alpha    Beta     Spin     Total
       1     H     0.39576  0.39576  0.00000  0.20847
       2     O     4.19221  4.19221  0.00000 -0.38443
       3     C     2.95684  2.95684  0.00000  0.08631
       4     C     2.97203  2.97203  0.00000  0.05595
       5     H     0.48198  0.48198  0.00000  0.03605
       6     H     0.47829  0.47829  0.00000  0.04342
       7     O     4.19762  4.19762  0.00000 -0.39525
       8     H     0.47266  0.47266  0.00000  0.05468
       9     H     0.45681  0.45681  0.00000  0.08638
      10     H     0.39579  0.39579  0.00000  0.20841

   Total alpha = 17.00000, Total beta = 17.00000, Total charge =  0.00000

*** Psi4 exiting successfully. Buy a developer a beer!
