                              Psi4 1.0.54 Driver

  ==> Input File <==

--------------------------------------------------------------------------
set {
	reference rhf
	basis cc-pvtz
}

set_num_threads( 4 )
memory 2 gb

molecule MOL {
0 1

H	 -3.401682	 -1.036167	 0.000000
O	 -3.113760	 -0.140926	 0.000000
C	 -1.775087	 -0.058754	 0.000000
C	 -0.992086	 -0.768791	 -0.901771
C	 -1.184594	 0.768457	 0.940863
H	 -1.457520	 -1.408533	 -1.628770
C	 0.376563	 -0.648030	 -0.858058
H	 -1.806648	 1.307151	 1.627068
C	 0.187274	 0.878328	 0.971389
H	 0.991750	 -1.190504	 -1.548258
C	 0.983373	 0.176861	 0.078855
H	 0.646451	 1.519800	 1.700901
C	 2.451134	 0.310496	 0.130646
O	 3.210603	 -0.247768	 -0.588871
H	 2.822481	 0.986872	 0.908090

	symmetry c1
}
set optking {
	frozen_dihedral = ("
		5 3 2 1
	")
}

ee,wfn = optimize('scf', return_wfn=True)
oeprop( wfn, 'DIPOLE', 'QUADRUPOLE', 'MULLIKEN_CHARGES')
f=open( 'psi4out.xyz', 'w' )
f.write( "15  " )
f.write( str(ee) + "\n" )
f.write( MOL.save_string_xyz() )
f.close()
--------------------------------------------------------------------------

    Molecular point group: c1
  Charge       = 0
  Multiplicity = 1
  Basis Set: CC-PVTZ
  Basis Set:
  @DF-RHF Final Energy:  -418.43878807463375
    Total Energy =                       -418.4387880746331803
    Molecular point group: c1
  Basis Set: CC-PVTZ
  Basis Set:
  Basis Set: CC-PVTZ
  Basis Set:
  @DF-RHF Final Energy:  -418.43902451096159
    Total Energy =                       -418.4390245109610760
  Basis Set: CC-PVTZ
  Basis Set:
  Basis Set: CC-PVTZ
  Basis Set:
  @DF-RHF Final Energy:  -418.43903590588280
    Total Energy =                       -418.4390359058825197
  Basis Set: CC-PVTZ
  Basis Set:
  Basis Set: CC-PVTZ
  Basis Set:
  @DF-RHF Final Energy:  -418.43904528420103
    Total Energy =                       -418.4390452842009154
  Basis Set: CC-PVTZ
  Basis Set:
  Basis Set: CC-PVTZ
  Basis Set:
  @DF-RHF Final Energy:  -418.43905665673901
    Total Energy =                       -418.4390566567388987
  Basis Set: CC-PVTZ
  Basis Set:
  Basis Set: CC-PVTZ
  Basis Set:
  @DF-RHF Final Energy:  -418.43905857437403
    Total Energy =                       -418.4390585743740303
  Basis Set: CC-PVTZ
  Basis Set:
  Charge       = 0
  Multiplicity = 1
  Basis Set: CC-PVTZ
  Basis Set:

    Orbital Energies (a.u.)
    -----------------------

    Doubly Occupied:

       1A    -20.594149     2A    -20.548812     3A    -11.325031
       4A    -11.316476     5A    -11.258078     6A    -11.253144
       7A    -11.241808     8A    -11.240879     9A    -11.238816
      10A     -1.424928    11A     -1.404992    12A     -1.175578
      13A     -1.045055    14A     -1.041566    15A     -0.890551
      16A     -0.866049    17A     -0.798520    18A     -0.758777
      19A     -0.715357    20A     -0.671220    21A     -0.652141
      22A     -0.633883    23A     -0.622583    24A     -0.610138
      25A     -0.567602    26A     -0.558791    27A     -0.549991
      28A     -0.505701    29A     -0.489540    30A     -0.423931
      31A     -0.361013    32A     -0.339913

  @DF-RHF Final Energy:  -418.43905921701020

   => Energetics <=

    Nuclear Repulsion Energy =            401.9441475272154207
    One-Electron Energy =               -1366.5163850023920986
    Two-Electron Energy =                 546.1331782581663674
    DFT Exchange-Correlation Energy =       0.0000000000000000
    Empirical Dispersion Energy =           0.0000000000000000
    PCM Polarization Energy =               0.0000000000000000
    EFP Energy =                            0.0000000000000000
    Total Energy =                       -418.4390592170103673
    Molecular point group: c1
  Basis Set: CC-PVTZ
  Basis Set:

  -Total Gradient:
     Atom            X                  Y                   Z
    ------   -----------------  -----------------  -----------------
       1       -0.000125229049    -0.000037984753     0.003447865553
       2        0.000121848233    -0.000920915071    -0.003541353884
       3       -0.000060001151     0.002846481128    -0.001551470019
       4       -0.000067739150     0.000013001290     0.000026756169
       5        0.000114308996    -0.001910178193     0.001607961794
       6        0.000003493586     0.000000863820     0.000001718597
       7        0.000046832631     0.000025034190     0.000036286377
       8       -0.000003194855    -0.000002542699    -0.000009882199
       9       -0.000045153444     0.000015606967     0.000027208908
      10       -0.000002278080     0.000001884584    -0.000005215222
      11        0.000007134098    -0.000028914271    -0.000048225339
      12        0.000010334704     0.000000444681    -0.000000168150
      13        0.000003498541    -0.000015243732     0.000016827934
      14       -0.000003944421     0.000008215344    -0.000004006419
      15        0.000000089365     0.000004246713    -0.000004304101

  **** Optimization is complete! (in 7 steps) ****
    Final optimized geometry and variables:
    Molecular point group: c1

    Geometry (in Angstrom), charge = 0, multiplicity = 1:

    H           -3.417121327501    -1.012547139068    -0.031856888706
    O           -3.123720180823    -0.118563784371    -0.014940163104
    C           -1.771867696242    -0.051024797556     0.022976193325
    C           -0.992836626113    -0.762111717647    -0.881148474294
    C           -1.180790334143     0.752169174967     0.977908488036
    H           -1.468972773564    -1.374480139807    -1.623085113820
    C            0.376493090318    -0.663009453563    -0.825548876627
    H           -1.801084335152     1.286788728886     1.669053121088
    C            0.195441917808     0.854273454168     1.015509988506
    H            0.991392249975    -1.204906825198    -1.516415752916
    C            0.984484833844     0.149978185113     0.123409126634
    H            0.657950369970     1.481807922159     1.754911382014
    C            2.456005131287     0.266768254376     0.187494219431
    O            3.212709125985    -0.298996759630    -0.527679524217
    H            2.828588863467     0.936777829915     0.969775660243

  Mulliken Charges: (a.u.)
   Center  Symbol    Alpha    Beta     Spin     Total
       1     H     0.38352  0.38352  0.00000  0.23296
       2     O     4.17972  4.17972  0.00000 -0.35943
       3     C     2.85943  2.85943  0.00000  0.28115
       4     C     3.12133  3.12133  0.00000 -0.24266
       5     C     3.10747  3.10747  0.00000 -0.21494
       6     H     0.41998  0.41998  0.00000  0.16003
       7     C     3.06927  3.06927  0.00000 -0.13854
       8     H     0.41399  0.41399  0.00000  0.17202
       9     C     3.07192  3.07192  0.00000 -0.14383
      10     H     0.40704  0.40704  0.00000  0.18592
      11     C     2.99870  2.99870  0.00000  0.00260
      12     H     0.42097  0.42097  0.00000  0.15806
      13     C     2.91037  2.91037  0.00000  0.17926
      14     O     4.17664  4.17664  0.00000 -0.35327
      15     H     0.45966  0.45966  0.00000  0.08069

   Total alpha = 32.00000, Total beta = 32.00000, Total charge = -0.00000

*** Psi4 exiting successfully. Buy a developer a beer!
