  ==> Input File <==

--------------------------------------------------------------------------
set {
	reference rhf
	basis 6-31G*
}

set_num_threads( 4 )
memory 2 gb

molecule MOL {
0 1

H	 -2.098997	 -0.674324	 -0.616650
O	 -2.035884	 -0.060112	 0.102722
C	 -0.955155	 0.788182	 -0.092531
C	 0.353668	 0.040312	 -0.004810
H	 -0.985057	 1.290372	 -1.054184
H	 -0.974469	 1.533190	 0.688632
F	 0.447419	 -0.854115	 -0.982453
F	 1.372960	 0.875580	 -0.125517
F	 0.490930	 -0.604472	 1.135787

	symmetry c1
}
set optking {
	frozen_dihedral = ("
		7 4 3 5
	")
}

ee = optimize('scf')
oeprop('DIPOLE', 'QUADRUPOLE', 'MULLIKEN_CHARGES')
f=open( 'psi4out.xyz', 'w' )
f.write( "9  " )
f.write( str(ee) + "\n" )
f.write( MOL.save_string_xyz() )
f.close()
--------------------------------------------------------------------------

    Molecular point group: c1
  Charge       = 0
  Multiplicity = 1
  Basis Set: 6-31G*
  Basis Set:
  @DF-RHF Final Energy:  -450.66265350702156
    Total Energy =                       -450.6626535070215027
    Molecular point group: c1
  Basis Set: 6-31G*
  Basis Set:
  Basis Set: 6-31G*
  Basis Set:
  @DF-RHF Final Energy:  -450.66267570696596
    Total Energy =                       -450.6626757069661267
  Basis Set: 6-31G*
  Basis Set:
  Basis Set: 6-31G*
  Basis Set:
  @DF-RHF Final Energy:  -450.66268096336597
    Total Energy =                       -450.6626809633661992
  Basis Set: 6-31G*
  Basis Set:
  Charge       = 0
  Multiplicity = 1
  Basis Set: 6-31G*
  Basis Set:

    Orbital Energies (a.u.)
    -----------------------

    Doubly Occupied:

       1A    -26.343179     2A    -26.342598     3A    -26.339394
       4A    -20.590440     5A    -11.499787     6A    -11.309823
       7A     -1.739832     8A     -1.638146     9A     -1.636937
      10A     -1.402311    11A     -1.048042    12A     -0.923472
      13A     -0.830417    14A     -0.828203    15A     -0.804744
      16A     -0.727714    17A     -0.711340    18A     -0.696863
      19A     -0.664153    20A     -0.658579    21A     -0.642263
      22A     -0.628866    23A     -0.614166    24A     -0.531457
      25A     -0.480387

  @DF-RHF Final Energy:  -450.66268117577431

   => Energetics <=

    Nuclear Repulsion Energy =            277.0400952385258506
    One-Electron Energy =               -1176.1393267355999797
    Two-Electron Energy =                 448.4365503213000466
    DFT Exchange-Correlation Energy =       0.0000000000000000
    Empirical Dispersion Energy =           0.0000000000000000
    PCM Polarization Energy =               0.0000000000000000
    EFP Energy =                            0.0000000000000000
    Total Energy =                       -450.6626811757740825
    Molecular point group: c1
  Basis Set: 6-31G*
  Basis Set:

  -Total Gradient:
     Atom            X                  Y                   Z
    ------   -----------------  -----------------  -----------------
       1       -0.000010432058    -0.000012986780     0.000004476067
       2        0.000001064872    -0.000011220746    -0.000007510007
       3        0.001030280905     0.001940673960     0.000549838966
       4       -0.000891104379    -0.001433507824     0.000897060849
       5       -0.000698970391    -0.001317229437    -0.000665770021
       6        0.000011467579    -0.000014016189     0.000002098910
       7        0.000597338676     0.000925102866    -0.000827727584
       8       -0.000061588696    -0.000060076630     0.000002919828
       9        0.000021943493    -0.000016739214     0.000044612993

  **** Optimization is complete! (in 4 steps) ****
    Final optimized geometry and variables:
    Molecular point group: c1

    Geometry (in Angstrom), charge = 0, multiplicity = 1:

    H           -2.108578852054    -0.663268723897    -0.633031470772
    O           -2.036801548484    -0.064972523833     0.098945780741
    C           -0.956081449374     0.786769002643    -0.088339724803
    C            0.352852681460     0.039015339563    -0.002317088137
    H           -0.987015604447     1.284142631099    -1.052194799341
    H           -0.979603683317     1.529082159496     0.694953490395
    F            0.443171055172    -0.859484197570    -0.976896008857
    F            1.370051993321     0.875421454137    -0.137757663132
    F            0.498776452624    -0.596878799227     1.141144010698

  Mulliken Charges: (a.u.)
   Center  Symbol    Alpha    Beta     Spin     Total
       1     H     0.27282  0.27282  0.00000  0.45436
       2     O     4.36167  4.36167  0.00000 -0.72335
       3     C     3.05257  3.05257  0.00000 -0.10514
       4     C     2.46537  2.46537  0.00000  1.06926
       5     H     0.40954  0.40954  0.00000  0.18091
       6     H     0.39546  0.39546  0.00000  0.20908
       7     F     4.68619  4.68619  0.00000 -0.37237
       8     F     4.68204  4.68204  0.00000 -0.36408
       9     F     4.67433  4.67433  0.00000 -0.34867

   Total alpha = 25.00000, Total beta = 25.00000, Total charge = -0.00000
