  ==> Input File <==

--------------------------------------------------------------------------
set {
	reference rhf
	basis 6-31G*
}

set_num_threads( 1 )
memory 2 gb

molecule MOL {
0 1

H	 2.271841	 -0.765213	 -0.581000
C	 1.951159	 -0.223429	 0.317018
C	 0.692068	 0.589600	 0.160137
O	 2.584110	 -0.302641	 1.319629
C	 -0.558097	 -0.297372	 0.091132
H	 0.791645	 1.202255	 -0.728243
H	 0.616171	 1.253469	 1.020572
C	 -1.850991	 0.512573	 -0.019058
H	 -0.476753	 -0.965681	 -0.762987
H	 -0.604799	 -0.930658	 0.975228
C	 -3.096943	 -0.368295	 -0.099594
H	 -1.800724	 1.150330	 -0.898172
H	 -1.931651	 1.177355	 0.838044
H	 -3.060452	 -1.020287	 -0.967456
H	 -3.996858	 0.233488	 -0.175704
H	 -3.191959	 -0.995686	 0.782074

	symmetry c1
}
set optking {
	frozen_dihedral = ("
		9 5 8 12,
		6 3 5 9
	")
}

ee = energy('scf')
oeprop('DIPOLE', 'QUADRUPOLE', 'MULLIKEN_CHARGES')
f=open( 'psi4out.xyz', 'w' )
f.write( "16  " )
f.write( str(ee) + "\n" )
f.write( MOL.save_string_xyz() )
f.close()
--------------------------------------------------------------------------

    Molecular point group: c1

    Geometry (in Angstrom), charge = 0, multiplicity = 1:

       Center              X                  Y                   Z               Mass
    ------------   -----------------  -----------------  -----------------  -----------------
           H          2.324048267425    -0.742653525628    -0.883085268066     1.007825032070
           C          2.003366267425    -0.200869525628     0.014932731934    12.000000000000
           C          0.744275267425     0.612159474372    -0.141948268066    12.000000000000
           O          2.636317267425    -0.280081525628     1.017543731934    15.994914619560
           C         -0.505889732575    -0.274812525628    -0.210953268066    12.000000000000
           H          0.843852267425     1.224814474372    -1.030328268066     1.007825032070
           H          0.668378267425     1.276028474372     0.718486731934     1.007825032070
           C         -1.798783732575     0.535132474372    -0.321143268066    12.000000000000
           H         -0.424545732575    -0.943121525628    -1.065072268066     1.007825032070
           H         -0.552591732575    -0.908098525628     0.673142731934     1.007825032070
           C         -3.044735732575    -0.345735525628    -0.401679268066    12.000000000000
           H         -1.748516732575     1.172889474372    -1.200257268066     1.007825032070
           H         -1.879443732575     1.199914474372     0.535958731934     1.007825032070
           H         -3.008244732575    -0.997727525628    -1.269541268066     1.007825032070
           H         -3.944650732575     0.256047474372    -0.477789268066     1.007825032070
           H         -3.139751732575    -0.973126525628     0.479988731934     1.007825032070

  Charge       = 0
  Multiplicity = 1
  Basis Set: 6-31G*
  Basis Set:

    Orbital Energies (a.u.)
    -----------------------

    Doubly Occupied:

       1A    -20.562793     2A    -11.326494     3A    -11.236632
       4A    -11.234810     5A    -11.228884     6A    -11.218033
       7A     -1.402475     8A     -1.095728     9A     -1.018363
      10A     -0.906617    11A     -0.812472    12A     -0.790896
      13A     -0.680495    14A     -0.645293    15A     -0.629771
      16A     -0.603901    17A     -0.579125    18A     -0.551474
      19A     -0.525029    20A     -0.511400    21A     -0.487307
      22A     -0.480211    23A     -0.478601    24A     -0.408577

  @DF-RHF Final Energy:  -270.01938972253038

   => Energetics <=

    Nuclear Repulsion Energy =            229.2896388224312716
    One-Electron Energy =                -819.7873019314018848
    Two-Electron Energy =                 320.4782733864400370
    DFT Exchange-Correlation Energy =       0.0000000000000000
    Empirical Dispersion Energy =           0.0000000000000000
    PCM Polarization Energy =               0.0000000000000000
    EFP Energy =                            0.0000000000000000
    Total Energy =                       -270.0193897225306046

  Mulliken Charges: (a.u.)
   Center  Symbol    Alpha    Beta     Spin     Total
       1     H     0.43200  0.43200  0.00000  0.13601
       2     C     2.83259  2.83259  0.00000  0.33483
       3     C     3.20586  3.20586  0.00000 -0.41171
       4     O     4.23588  4.23588  0.00000 -0.47176
       5     C     3.16331  3.16331  0.00000 -0.32661
       6     H     0.41158  0.41158  0.00000  0.17684
       7     H     0.40130  0.40130  0.00000  0.19741
       8     C     3.15166  3.15166  0.00000 -0.30333
       9     H     0.41938  0.41938  0.00000  0.16124
      10     H     0.41064  0.41064  0.00000  0.17871
      11     C     3.24061  3.24061  0.00000 -0.48122
      12     H     0.42091  0.42091  0.00000  0.15818
      13     H     0.41826  0.41826  0.00000  0.16349
      14     H     0.42049  0.42049  0.00000  0.15903
      15     H     0.41646  0.41646  0.00000  0.16709
      16     H     0.41909  0.41909  0.00000  0.16182

   Total alpha = 24.00000, Total beta = 24.00000, Total charge =  0.00000
