                              Psi4 1.0.54 Driver

  ==> Input File <==

--------------------------------------------------------------------------
set {
	reference rhf
	basis cc-pvtz
}

set_num_threads( 4 )
memory 2 gb

molecule MOL {
0 1

H	 -2.816458	 -0.841657	 -0.064679
N	 -1.878861	 -0.711874	 0.250184
C	 -1.341419	 0.551458	 -0.220231
H	 -1.333674	 -1.468530	 -0.105118
C	 0.082190	 0.731516	 0.254705
H	 -1.357065	 0.652078	 -1.304747
H	 -1.939897	 1.357530	 0.189797
O	 0.744158	 1.591327	 -0.622923
H	 0.086173	 1.148368	 1.260882
H	 0.582659	 -0.233691	 0.283586
C	 2.088774	 1.785927	 -0.334203
H	 2.492099	 2.465315	 -1.071188
H	 2.224452	 2.221592	 0.653462
H	 2.644163	 0.851983	 -0.377260

	symmetry c1
}
set optking {
	frozen_dihedral = ("
		8 5 3 6
	")
}

ee,wfn = optimize('scf', return_wfn=True)
oeprop( wfn, 'DIPOLE', 'QUADRUPOLE', 'MULLIKEN_CHARGES')
f=open( 'psi4out.xyz', 'w' )
f.write( "14  " )
f.write( str(ee) + "\n" )
f.write( MOL.save_string_xyz() )
f.close()
--------------------------------------------------------------------------

    Molecular point group: c1
  Charge       = 0
  Multiplicity = 1
  Basis Set: CC-PVTZ
  Basis Set:
  @DF-RHF Final Energy:  -248.22186170984259
    Total Energy =                       -248.2218617098426421
    Molecular point group: c1
  Basis Set: CC-PVTZ
  Basis Set:
  Basis Set: CC-PVTZ
  Basis Set:
  @DF-RHF Final Energy:  -248.22260887030330
    Total Energy =                       -248.2226088703033611
  Basis Set: CC-PVTZ
  Basis Set:
  Basis Set: CC-PVTZ
  Basis Set:
  @DF-RHF Final Energy:  -248.22273774128587
    Total Energy =                       -248.2227377412858687
  Basis Set: CC-PVTZ
  Basis Set:
  Basis Set: CC-PVTZ
  Basis Set:
  @DF-RHF Final Energy:  -248.22276601631259
    Total Energy =                       -248.2227660163124483
  Basis Set: CC-PVTZ
  Basis Set:
  Charge       = 0
  Multiplicity = 1
  Basis Set: CC-PVTZ
  Basis Set:

    Orbital Energies (a.u.)
    -----------------------

    Doubly Occupied:

       1A    -20.548703     2A    -15.532441     3A    -11.262561
       4A    -11.262227     5A    -11.239713     6A     -1.382983
       7A     -1.182508     8A     -0.999325     9A     -0.900525
      10A     -0.823950    11A     -0.688359    12A     -0.666477
      13A     -0.654513    14A     -0.621719    15A     -0.586050
      16A     -0.571038    17A     -0.515787    18A     -0.498139
      19A     -0.471697    20A     -0.416862    21A     -0.389535

  @DF-RHF Final Energy:  -248.22276782752581

   => Energetics <=

    Nuclear Repulsion Energy =            191.0679069732146615
    One-Electron Energy =                -716.1511234979352594
    Two-Electron Energy =                 276.8604486971946699
    DFT Exchange-Correlation Energy =       0.0000000000000000
    Empirical Dispersion Energy =           0.0000000000000000
    PCM Polarization Energy =               0.0000000000000000
    EFP Energy =                            0.0000000000000000
    Total Energy =                       -248.2227678275258995
    Molecular point group: c1
  Basis Set: CC-PVTZ
  Basis Set:

  -Total Gradient:
     Atom            X                  Y                   Z
    ------   -----------------  -----------------  -----------------
       1        0.000054891250    -0.000019248804    -0.000021079098
       2       -0.000009682526    -0.000081200517     0.000026424612
       3        0.000822489025    -0.005913683481    -0.000863370068
       4       -0.000052448225    -0.000004305871     0.000006788068
       5       -0.001214784650     0.004497404969     0.002322223654
       6       -0.000453497497     0.004241494370     0.000282927147
       7        0.000007674000     0.000034836055    -0.000016054931
       8        0.000890541650    -0.002747089978    -0.001740635187
       9       -0.000007251621    -0.000007061218     0.000005554623
      10        0.000006517924    -0.000003876575     0.000003919657
      11        0.000011803707     0.000011748254     0.000024019041
      12       -0.000007131393    -0.000007876054    -0.000011147886
      13       -0.000011175763    -0.000013946018    -0.000008933653
      14       -0.000037945875     0.000012804870    -0.000010635978

  **** Optimization is complete! (in 5 steps) ****
    Final optimized geometry and variables:
    Molecular point group: c1

    Geometry (in Angstrom), charge = 0, multiplicity = 1:

    H           -2.905954547591    -1.380934064159     0.168878791150
    N           -1.925782650976    -1.387388224003     0.351023771271
    C           -1.289614439610    -0.186751845471    -0.158425475070
    H           -1.548408910812    -2.205671413882    -0.078648123461
    C            0.128829016516    -0.071516290083     0.377562991813
    H           -1.248681113402    -0.109540602476    -1.242189442942
    H           -1.865673775483     0.667108845872     0.178921091330
    O            0.875504837392     0.729654079193    -0.483191704905
    H            0.124872606287     0.336872024420     1.385229848489
    H            0.574887778254    -1.064399677911     0.435878190971
    C            2.179258036829     0.960814815305    -0.065468871348
    H            2.662077735766     1.577103942447    -0.810049325163
    H            2.206661200313     1.479860272247     0.890005627257
    H            2.736041681609     0.031215924100     0.033622877466

  Mulliken Charges: (a.u.)
   Center  Symbol    Alpha    Beta     Spin     Total
       1     H     0.42689  0.42689  0.00000  0.14621
       2     N     3.69515  3.69515  0.00000 -0.39031
       3     C     3.03281  3.03281  0.00000 -0.06562
       4     H     0.42856  0.42856  0.00000  0.14287
       5     C     2.95269  2.95269  0.00000  0.09462
       6     H     0.46126  0.46126  0.00000  0.07749
       7     H     0.45693  0.45693  0.00000  0.08614
       8     O     4.17416  4.17416  0.00000 -0.34832
       9     H     0.47156  0.47156  0.00000  0.05688
      10     H     0.47935  0.47935  0.00000  0.04131
      11     C     3.02997  3.02997  0.00000 -0.05995
      12     H     0.44732  0.44732  0.00000  0.10537
      13     H     0.47096  0.47096  0.00000  0.05807
      14     H     0.47239  0.47239  0.00000  0.05523

   Total alpha = 21.00000, Total beta = 21.00000, Total charge =  0.00000

*** Psi4 exiting successfully. Buy a developer a beer!
