  ==> Input File <==

--------------------------------------------------------------------------
set {
	reference rhf
	basis 6-31G*
}

set_num_threads( 4 )
memory 2 gb

molecule MOL {
0 1

H	 3.276176	 0.174363	 -0.109463
N	 2.434251	 -0.367735	 -0.081097
C	 1.267428	 0.496480	 0.024474
H	 2.501951	 -0.965776	 0.720575
C	 -0.016086	 -0.325158	 -0.029487
H	 1.288818	 1.183521	 -0.816092
H	 1.267576	 1.109062	 0.929528
C	 -1.282277	 0.529072	 0.046735
H	 -0.012495	 -0.908639	 -0.945788
H	 -0.015903	 -1.041248	 0.791956
C	 -1.969151	 0.696021	 -1.308269
H	 -1.031741	 1.509916	 0.445688
H	 -1.980903	 0.082612	 0.751398
H	 -1.307729	 1.172354	 -2.026147
H	 -2.862256	 1.307435	 -1.224257
H	 -2.263838	 -0.265489	 -1.719217

	symmetry c1
}
set optking {
	frozen_dihedral = ("
		12 8 5 9
	")
}

ee = optimize('scf')
oeprop('DIPOLE', 'QUADRUPOLE', 'MULLIKEN_CHARGES')
f=open( 'psi4out.xyz', 'w' )
f.write( "16  " )
f.write( str(ee) + "\n" )
f.write( MOL.save_string_xyz() )
f.close()
--------------------------------------------------------------------------

    Molecular point group: c1
  Charge       = 0
  Multiplicity = 1
  Basis Set: 6-31G*
  Basis Set:
  @DF-RHF Final Energy:  -212.31228352776418
    Total Energy =                       -212.3122835277641798
    Molecular point group: c1
  Basis Set: 6-31G*
  Basis Set:
  Basis Set: 6-31G*
  Basis Set:
  @DF-RHF Final Energy:  -212.31257897798992
    Total Energy =                       -212.3125789779899151
  Basis Set: 6-31G*
  Basis Set:
  Basis Set: 6-31G*
  Basis Set:
  @DF-RHF Final Energy:  -212.31266095480979
    Total Energy =                       -212.3126609548098713
  Basis Set: 6-31G*
  Basis Set:
  Charge       = 0
  Multiplicity = 1
  Basis Set: 6-31G*
  Basis Set:

    Orbital Energies (a.u.)
    -----------------------

    Doubly Occupied:

       1A    -15.532651     2A    -11.240209     3A    -11.214898
       4A    -11.209430     5A    -11.207268     6A     -1.176900
       7A     -1.057135     8A     -0.956365     9A     -0.848266
      10A     -0.788430    11A     -0.662133    12A     -0.622885
      13A     -0.620780    14A     -0.586535    15A     -0.549481
      16A     -0.524194    17A     -0.507292    18A     -0.469722
      19A     -0.462587    20A     -0.455917    21A     -0.381368

  @DF-RHF Final Energy:  -212.31266171326300

   => Energetics <=

    Nuclear Repulsion Energy =            187.5381294032943913
    One-Electron Energy =                -657.5526893981166268
    Two-Electron Energy =                 257.7018982815592381
    DFT Exchange-Correlation Energy =       0.0000000000000000
    Empirical Dispersion Energy =           0.0000000000000000
    PCM Polarization Energy =               0.0000000000000000
    EFP Energy =                            0.0000000000000000
    Total Energy =                       -212.3126617132629690
    Molecular point group: c1
  Basis Set: 6-31G*
  Basis Set:

  -Total Gradient:
     Atom            X                  Y                   Z
    ------   -----------------  -----------------  -----------------
       1        0.000041417530    -0.000021224161    -0.000004919893
       2        0.000081960819     0.000006967399    -0.000040535361
       3       -0.000078710228    -0.000068679697     0.000093559997
       4       -0.000008045548     0.000017912494    -0.000002326553
       5       -0.001569236294    -0.002319009898     0.000986218616
       6        0.000001147462    -0.000022871722     0.000011414872
       7        0.000004052680     0.000039878690    -0.000000746413
       8       -0.000341700025    -0.000645410945     0.002846961883
       9        0.001340015447     0.002065265527    -0.001327246736
      10        0.000013759073     0.000031446322    -0.000003990428
      11        0.000002411401    -0.000008939038     0.000042326560
      12        0.000525629119     0.000915820473    -0.002584894277
      13       -0.000003567724    -0.000000054001    -0.000014028700
      14        0.000002341708    -0.000013102609     0.000008034557
      15       -0.000011056472     0.000016429050    -0.000007766068
      16       -0.000000418945     0.000005572116    -0.000002062057

  **** Optimization is complete! (in 4 steps) ****
    Final optimized geometry and variables:
    Molecular point group: c1

    Geometry (in Angstrom), charge = 0, multiplicity = 1:

    H            3.144740508814    -0.006827034093     0.106223696309
    N            2.308894745334    -0.557659218752     0.145095803638
    C            1.137199590038     0.290192102698     0.305317758356
    H            2.405230407981    -1.175467286240     0.928683298404
    C           -0.141061716657    -0.545188758554     0.277190084586
    H            1.123863901192     0.994366716167    -0.521568814966
    H            1.158479891826     0.884964227320     1.221824230916
    C           -1.419181654645     0.315783907784     0.323216996960
    H           -0.117244977305    -1.138351206332    -0.631581912505
    H           -0.121916154164    -1.242602208766     1.111476272612
    C           -2.067269936772     0.495872112735    -1.051561675867
    H           -1.180420890569     1.301380747515     0.716890968286
    H           -2.144680477739    -0.120793119182     1.002576417545
    H           -1.370411843020     0.935516878638    -1.759821159718
    H           -2.935545632627     1.145666259518    -0.995849030804
    H           -2.390948249478    -0.457589149048    -1.458411662688

  Mulliken Charges: (a.u.)
   Center  Symbol    Alpha    Beta     Spin     Total
       1     H     0.33242  0.33242  0.00000  0.33517
       2     N     3.92193  3.92193  0.00000 -0.84385
       3     C     3.06245  3.06245  0.00000 -0.12490
       4     H     0.33532  0.33532  0.00000  0.32936
       5     C     3.15495  3.15495  0.00000 -0.30991
       6     H     0.42103  0.42103  0.00000  0.15794
       7     H     0.43422  0.43422  0.00000  0.13157
       8     C     3.15912  3.15912  0.00000 -0.31825
       9     H     0.41045  0.41045  0.00000  0.17911
      10     H     0.42481  0.42481  0.00000  0.15039
      11     C     3.23929  3.23929  0.00000 -0.47858
      12     H     0.42217  0.42217  0.00000  0.15566
      13     H     0.41929  0.41929  0.00000  0.16143
      14     H     0.42131  0.42131  0.00000  0.15737
      15     H     0.42087  0.42087  0.00000  0.15827
      16     H     0.42038  0.42038  0.00000  0.15924

   Total alpha = 21.00000, Total beta = 21.00000, Total charge =  0.00000
