  ==> Input File <==

--------------------------------------------------------------------------
set {
	reference rhf
	basis cc-pvtz
}

set_num_threads( 4 )
memory 2 gb

molecule MOL {
0 1

H	 -0.793904	 0.165123	 2.676474
O	 0.059473	 0.115309	 2.284405
C	 0.121398	 0.965918	 1.181564
C	 -0.793473	 0.591216	 0.050087
H	 1.147314	 0.942435	 0.833356
H	 -0.083260	 1.994422	 1.473100
C	 -1.534243	 -0.493009	 -0.013340
H	 -0.814917	 1.298265	 -0.762851
H	 -1.101195	 -1.466332	 -0.144046
H	 -2.604242	 -0.437780	 0.050785

	symmetry c1
}
set optking {
	frozen_dihedral = ("
		3 4 7 9
	")
}

ee = optimize('scf')
oeprop('DIPOLE', 'QUADRUPOLE', 'MULLIKEN_CHARGES')
f=open( 'psi4out.xyz', 'w' )
f.write( "10  " )
f.write( str(ee) + "\n" )
f.write( MOL.save_string_xyz() )
f.close()
--------------------------------------------------------------------------

    Molecular point group: c1
  Charge       = 0
  Multiplicity = 1
  Basis Set: CC-PVTZ
  Basis Set:
  @DF-RHF Final Energy:  -191.88972515792381
    Total Energy =                       -191.8897251579239764
    Molecular point group: c1
  Basis Set: CC-PVTZ
  Basis Set:
  Basis Set: CC-PVTZ
  Basis Set:
  @DF-RHF Final Energy:  -191.92122201487967
    Total Energy =                       -191.9212220148796746
  Basis Set: CC-PVTZ
  Basis Set:
  Basis Set: CC-PVTZ
  Basis Set:
  @DF-RHF Final Energy:  -191.95081744106378
    Total Energy =                       -191.9508174410638617
  Basis Set: CC-PVTZ
  Basis Set:
  Basis Set: CC-PVTZ
  Basis Set:
  @DF-RHF Final Energy:  -191.95952977725739
    Total Energy =                       -191.9595297772575009
  Basis Set: CC-PVTZ
  Basis Set:
  @DF-RHF Final Energy:  -191.96038699018845
    Total Energy =                       -191.9603869901883115
  Basis Set: CC-PVTZ
  Basis Set:
  @DF-RHF Final Energy:  -191.96043426215354
    Total Energy =                       -191.9604342621535409
  Basis Set: CC-PVTZ
  Basis Set:
  Basis Set: CC-PVTZ
  Basis Set:
  @DF-RHF Final Energy:  -191.96051647205621
    Total Energy =                       -191.9605164720561561
  Basis Set: CC-PVTZ
  Basis Set:
  Basis Set: CC-PVTZ
  Basis Set:
  @DF-RHF Final Energy:  -191.96051905255717
    Total Energy =                       -191.9605190525572311
  Basis Set: CC-PVTZ
  Basis Set:
  Charge       = 0
  Multiplicity = 1
  Basis Set: CC-PVTZ
  Basis Set:

    Orbital Energies (a.u.)
    -----------------------

    Doubly Occupied:

       1A    -20.553198     2A    -11.283842     3A    -11.246413
       4A    -11.223355     5A     -1.374757     6A     -1.066264
       7A     -0.938290     8A     -0.777099     9A     -0.688318
      10A     -0.657944    11A     -0.628149    12A     -0.571338
      13A     -0.538434    14A     -0.502112    15A     -0.448108
      16A     -0.361281

  @DF-RHF Final Energy:  -191.96051872950966

   => Energetics <=

    Nuclear Repulsion Energy =            118.5374081861679798
    One-Electron Energy =                -495.2780524706871006
    Two-Electron Energy =                 184.7801255550095334
    DFT Exchange-Correlation Energy =       0.0000000000000000
    Empirical Dispersion Energy =           0.0000000000000000
    PCM Polarization Energy =               0.0000000000000000
    EFP Energy =                            0.0000000000000000
    Total Energy =                       -191.9605187295096016
    Molecular point group: c1
  Basis Set: CC-PVTZ
  Basis Set:

  -Total Gradient:
     Atom            X                  Y                   Z
    ------   -----------------  -----------------  -----------------
       1        0.000003074655    -0.000019827157     0.000015163570
       2       -0.000013423515    -0.000063785787     0.000093270361
       3       -0.017849200760     0.020081932141     0.003743783347
       4        0.031934172244    -0.037257840260    -0.023413023372
       5        0.000012884797     0.000024969709    -0.000019017205
       6        0.000021130806     0.000010088054     0.000001124010
       7       -0.017886387393     0.024278911644     0.055711707676
       8        0.000080362981    -0.000135084077    -0.000133719633
       9        0.003697727570    -0.006885341231    -0.035984935263
      10       -0.000000341383    -0.000034023036    -0.000014353488

  **** Optimization is complete! (in 9 steps) ****
    Final optimized geometry and variables:
    Molecular point group: c1

    Geometry (in Angstrom), charge = 0, multiplicity = 1:

    H           -0.082938668287    -0.424440407261     1.597059415244
    O            0.763247243013    -0.144148802427     1.295034809581
    C            0.608444701970     0.702767367811     0.201843481963
    C           -0.241066207823     0.159998877758    -0.916469816054
    H            1.605436805919     0.956012934036    -0.138293460303
    H            0.125430080313     1.634201857065     0.487072895680
    C           -1.230129607451    -0.729917654705    -0.847175301679
    H           -0.397151909012     0.947492128940    -1.643164668974
    H           -1.119807831448    -1.780990543158    -0.633192916669
    H           -1.971626396201    -0.626335281190    -1.626518961593

  Mulliken Charges: (a.u.)
   Center  Symbol    Alpha    Beta     Spin     Total
       1     H     0.38871  0.38871  0.00000  0.22258
       2     O     4.20078  4.20078  0.00000 -0.40156
       3     C     2.95223  2.95223  0.00000  0.09554
       4     C     3.05953  3.05953  0.00000 -0.11907
       5     H     0.45200  0.45200  0.00000  0.09600
       6     H     0.46712  0.46712  0.00000  0.06575
       7     C     3.18890  3.18890  0.00000 -0.37779
       8     H     0.43309  0.43309  0.00000  0.13382
       9     H     0.42020  0.42020  0.00000  0.15960
      10     H     0.43744  0.43744  0.00000  0.12512

   Total alpha = 16.00000, Total beta = 16.00000, Total charge = -0.00000
