                              Psi4 1.0.54 Driver

  ==> Input File <==

--------------------------------------------------------------------------
set {
	reference rhf
	basis cc-pvtz
}

set_num_threads( 4 )
memory 2 gb

molecule MOL {
0 1

O	 -0.377998	 0.231423	 -0.808401
C	 0.485107	 0.171416	 -0.000134
C	 1.606966	 -0.836201	 0.000174
O	 0.579025	 0.996997	 1.027573
C	 2.988788	 -0.202529	 -0.000115
H	 1.465110	 -1.474645	 -0.864821
H	 1.465209	 -1.474077	 0.865596
H	 3.131767	 0.419673	 -0.873407
H	 3.750876	 -0.972315	 0.000098
H	 3.131883	 0.420264	 0.872742
C	 -0.412468	 2.005764	 1.160302
C	 -0.090568	 2.809454	 2.398426
H	 -1.384349	 1.538192	 1.232220
H	 -0.408191	 2.623905	 0.273619
H	 -0.096772	 2.180031	 3.279426
H	 -0.830198	 3.590419	 2.529851
H	 0.884900	 3.271983	 2.315360

	symmetry c1
}
set optking {
	frozen_dihedral = ("
		4 2 3 6
	")
}

ee,wfn = optimize('scf', return_wfn=True)
oeprop( wfn, 'DIPOLE', 'QUADRUPOLE', 'MULLIKEN_CHARGES')
f=open( 'psi4out.xyz', 'w' )
f.write( "17  " )
f.write( str(ee) + "\n" )
f.write( MOL.save_string_xyz() )
f.close()
--------------------------------------------------------------------------

    Molecular point group: c1
  Charge       = 0
  Multiplicity = 1
  Basis Set: CC-PVTZ
  Basis Set:
  @DF-RHF Final Energy:  -345.03872584261273
    Total Energy =                       -345.0387258426127914
    Molecular point group: c1
  Basis Set: CC-PVTZ
  Basis Set:
  Basis Set: CC-PVTZ
  Basis Set:
  @DF-RHF Final Energy:  -345.03885194453704
    Total Energy =                       -345.0388519445366455
  Basis Set: CC-PVTZ
  Basis Set:
  Basis Set: CC-PVTZ
  Basis Set:
  @DF-RHF Final Energy:  -345.03895591763114
    Total Energy =                       -345.0389559176310286
  Basis Set: CC-PVTZ
  Basis Set:
  Basis Set: CC-PVTZ
  Basis Set:
  @DF-RHF Final Energy:  -345.03902703307864
    Total Energy =                       -345.0390270330784688
  Basis Set: CC-PVTZ
  Basis Set:
  Basis Set: CC-PVTZ
  Basis Set:
  @DF-RHF Final Energy:  -345.03902875461051
    Total Energy =                       -345.0390287546106265
  Basis Set: CC-PVTZ
  Basis Set:
  Charge       = 0
  Multiplicity = 1
  Basis Set: CC-PVTZ
  Basis Set:

    Orbital Energies (a.u.)
    -----------------------

    Doubly Occupied:

       1A    -20.594233     2A    -20.531596     3A    -11.362784
       4A    -11.282877     5A    -11.235177     6A    -11.222882
       7A    -11.220813     8A     -1.470401     9A     -1.363754
      10A     -1.073860    11A     -1.031247    12A     -0.907968
      13A     -0.858080    14A     -0.779655    15A     -0.695037
      16A     -0.681974    17A     -0.673996    18A     -0.622868
      19A     -0.592280    20A     -0.575149    21A     -0.553644
      22A     -0.544809    23A     -0.525965    24A     -0.510430
      25A     -0.505261    26A     -0.496946    27A     -0.455633
      28A     -0.434454

  @DF-RHF Final Energy:  -345.03902888424540

   => Energetics <=

    Nuclear Repulsion Energy =            317.6633267432615071
    One-Electron Energy =               -1099.7971637700161409
    Two-Electron Energy =                 437.0948081425094642
    DFT Exchange-Correlation Energy =       0.0000000000000000
    Empirical Dispersion Energy =           0.0000000000000000
    PCM Polarization Energy =               0.0000000000000000
    EFP Energy =                            0.0000000000000000
    Total Energy =                       -345.0390288842452264
    Molecular point group: c1
  Basis Set: CC-PVTZ
  Basis Set:

  -Total Gradient:
     Atom            X                  Y                   Z
    ------   -----------------  -----------------  -----------------
       1        0.000005154800     0.000002197382    -0.000008801986
       2       -0.000238300892    -0.000239512303     0.000215851015
       3       -0.000220955327    -0.000243953311     0.000244892781
       4        0.000221171637     0.000250738253    -0.000218062755
       5       -0.000008173641    -0.000010526369    -0.000004715935
       6        0.000233416545     0.000264848519    -0.000236651542
       7        0.000004876741    -0.000007142996    -0.000016930073
       8        0.000006316340     0.000002777562     0.000007898786
       9        0.000009143978    -0.000001583732     0.000001667328
      10        0.000002896416     0.000009145987    -0.000004120042
      11       -0.000060831334    -0.000058846871     0.000055629699
      12        0.000019209012     0.000012193587    -0.000013264208
      13        0.000004194629     0.000016298050    -0.000004901247
      14        0.000017148126     0.000001801361    -0.000018070391
      15       -0.000002769741    -0.000004039452    -0.000005060428
      16        0.000001481052    -0.000001550016    -0.000003919292
      17        0.000006021658     0.000007154347     0.000008558290

  **** Optimization is complete! (in 6 steps) ****
    Final optimized geometry and variables:
    Molecular point group: c1

    Geometry (in Angstrom), charge = 0, multiplicity = 1:

    O           -1.064084454403    -0.543558475115    -1.332422257918
    C           -0.190315814109    -0.587149373673    -0.533969192897
    C            0.934001162498    -1.591920311578    -0.552447668168
    O           -0.097927298092     0.246814120051     0.487117729404
    C            2.320535591650    -0.949808916903    -0.595919995723
    H            0.775869081330    -2.224342665547    -1.413150155348
    H            0.840940041337    -2.203180464915     0.338632313820
    H            2.431829896121    -0.323249148002    -1.473267619117
    H            3.082021436334    -1.718285713873    -0.638378206431
    H            2.499486726675    -0.341899018463     0.279919883141
    C           -1.102846515318     1.241843166019     0.623483335118
    C           -0.777345659106     2.062874649712     1.849216254393
    H           -2.066231849254     0.760057470149     0.712557219044
    H           -1.119427182167     1.850667848026    -0.269398617020
    H           -0.761488620379     1.442304771856     2.736370968906
    H           -1.528021891496     2.832791164598     1.983016468524
    H            0.188964456007     2.540996621165     1.748580377863

  Mulliken Charges: (a.u.)
   Center  Symbol    Alpha    Beta     Spin     Total
       1     O     4.19896  4.19896  0.00000 -0.39792
       2     C     2.80804  2.80804  0.00000  0.38391
       3     C     3.08457  3.08457  0.00000 -0.16913
       4     O     4.15393  4.15393  0.00000 -0.30786
       5     C     3.14935  3.14935  0.00000 -0.29870
       6     H     0.43620  0.43620  0.00000  0.12759
       7     H     0.44799  0.44799  0.00000  0.10402
       8     H     0.45050  0.45050  0.00000  0.09901
       9     H     0.44793  0.44793  0.00000  0.10415
      10     H     0.44599  0.44599  0.00000  0.10801
      11     C     2.97844  2.97844  0.00000  0.04313
      12     C     3.13380  3.13380  0.00000 -0.26760
      13     H     0.45314  0.45314  0.00000  0.09372
      14     H     0.45436  0.45436  0.00000  0.09129
      15     H     0.45148  0.45148  0.00000  0.09704
      16     H     0.45390  0.45390  0.00000  0.09219
      17     H     0.45143  0.45143  0.00000  0.09714

   Total alpha = 28.00000, Total beta = 28.00000, Total charge = -0.00000

*** Psi4 exiting successfully. Buy a developer a beer!
