  ==> Input File <==

--------------------------------------------------------------------------
set {
	reference rhf
	basis cc-pvtz
}

set_num_threads( 4 )
memory 2 gb

molecule MOL {
0 1

O	 -2.374409	 1.338660	 -0.336961
C	 -2.104891	 0.204655	 -0.107126
C	 -0.881910	 -0.448129	 -0.720509
C	 -2.949910	 -0.638219	 0.818225
C	 -0.174971	 -1.355641	 0.294135
H	 -0.209961	 0.341822	 -1.031270
H	 -1.161816	 -1.022737	 -1.597061
C	 1.071528	 -2.017338	 -0.289734
H	 0.082364	 -0.760044	 1.160894
H	 -0.860877	 -2.126804	 0.636391
C	 1.785043	 -2.980073	 0.661026
H	 1.768288	 -1.246205	 -0.608888
H	 0.789741	 -2.562544	 -1.186367
C	 2.411598	 -2.318625	 1.886095
H	 2.564020	 -3.492621	 0.105332
H	 1.087689	 -3.749250	 0.982581
H	 3.109526	 -1.540706	 1.593986
H	 2.956826	 -3.045482	 2.477006
H	 1.666774	 -1.868707	 2.531146
H	 -3.440322	 -1.417144	 0.243099
H	 -3.694377	 -0.025850	 1.303346
H	 -2.331085	 -1.129829	 1.560495

	symmetry c1
}
set optking {
	frozen_dihedral = ("
		6 3 2 1
	")
}

ee = optimize('scf')
oeprop('DIPOLE', 'QUADRUPOLE', 'MULLIKEN_CHARGES')
f=open( 'psi4out.xyz', 'w' )
f.write( "22  " )
f.write( str(ee) + "\n" )
f.write( MOL.save_string_xyz() )
f.close()
--------------------------------------------------------------------------

    Molecular point group: c1
  Charge       = 0
  Multiplicity = 1
  Basis Set: CC-PVTZ
  Basis Set:
  @DF-RHF Final Energy:  -348.21865356669201
    Total Energy =                       -348.2186535666921827
    Molecular point group: c1
  Basis Set: CC-PVTZ
  Basis Set:
  Basis Set: CC-PVTZ
  Basis Set:
  @DF-RHF Final Energy:  -348.22003975252989
    Total Energy =                       -348.2200397525301128
  Basis Set: CC-PVTZ
  Basis Set:
  Basis Set: CC-PVTZ
  Basis Set:
  @DF-RHF Final Energy:  -348.22157989861165
    Total Energy =                       -348.2215798986116511
  Basis Set: CC-PVTZ
  Basis Set:
  Basis Set: CC-PVTZ
  Basis Set:
  @DF-RHF Final Energy:  -348.22198632897431
    Total Energy =                       -348.2219863289744239
  Basis Set: CC-PVTZ
  Basis Set:
  @DF-RHF Final Energy:  -348.22209580896691
    Total Energy =                       -348.2220958089666283
  @DF-RHF Final Energy:  -348.22220093171802
    Total Energy =                       -348.2222009317181346
  @DF-RHF Final Energy:  -348.22226768173971
    Total Energy =                       -348.2222676817398792
  Basis Set: CC-PVTZ
  Basis Set:
  @DF-RHF Final Energy:  -348.22229299934173
    Total Energy =                       -348.2222929993419029
  Basis Set: CC-PVTZ
  Basis Set:
  Basis Set: CC-PVTZ
  Basis Set:
  @DF-RHF Final Energy:  -348.22228596855643
    Total Energy =                       -348.2222859685560934
  Basis Set: CC-PVTZ
  Basis Set:
  Basis Set: CC-PVTZ
  Basis Set:
  @DF-RHF Final Energy:  -348.22229696678488
    Total Energy =                       -348.2222969667843131
  Basis Set: CC-PVTZ
  Basis Set:
  Charge       = 0
  Multiplicity = 1
  Basis Set: CC-PVTZ
  Basis Set:

    Orbital Energies (a.u.)
    -----------------------

    Doubly Occupied:

       1A    -20.536216     2A    -11.319696     3A    -11.229193
       4A    -11.228535     5A    -11.226264     6A    -11.222577
       7A    -11.221279     8A    -11.212767     9A     -1.396514
      10A     -1.100173    11A     -1.047021    12A     -0.997521
      13A     -0.941868    14A     -0.864005    15A     -0.789681
      16A     -0.733190    17A     -0.663337    18A     -0.648510
      19A     -0.634887    20A     -0.615722    21A     -0.608464
      22A     -0.584946    23A     -0.558401    24A     -0.543287
      25A     -0.535019    26A     -0.525309    27A     -0.502779
      28A     -0.485738    29A     -0.473567    30A     -0.471023
      31A     -0.465577    32A     -0.398643

  @DF-RHF Final Energy:  -348.22229694447270

   => Energetics <=

    Nuclear Repulsion Energy =            373.3056647990153465
    One-Electron Energy =               -1211.4925106160299038
    Two-Electron Energy =                 489.9645488725418545
    DFT Exchange-Correlation Energy =       0.0000000000000000
    Empirical Dispersion Energy =           0.0000000000000000
    PCM Polarization Energy =               0.0000000000000000
    EFP Energy =                            0.0000000000000000
    Total Energy =                       -348.2222969444726459
    Molecular point group: c1
  Basis Set: CC-PVTZ
  Basis Set:

  -Total Gradient:
     Atom            X                  Y                   Z
    ------   -----------------  -----------------  -----------------
       1       -0.000811019840    -0.000547202472    -0.001175511331
       2        0.001258991262     0.000774389895     0.001919089785
       3       -0.001081687130    -0.000314956110    -0.002106675669
       4        0.000001444248     0.000004857307     0.000003624671
       5        0.000005666499     0.000003203407     0.000001483174
       6        0.000642384893     0.000083684650     0.001366223327
       7       -0.000000325436     0.000000157402    -0.000000418561
       8       -0.000008072599    -0.000012290416    -0.000007809626
       9        0.000009425793    -0.000001322798     0.000014564692
      10        0.000001173730     0.000002541738    -0.000001577468
      11        0.000009195397     0.000001984534    -0.000005843278
      12       -0.000002007527    -0.000002783191    -0.000001201170
      13       -0.000002730906    -0.000003242708     0.000000071984
      14       -0.000008035154     0.000005637140    -0.000001137525
      15        0.000001179521     0.000005054823    -0.000002248376
      16        0.000001278265    -0.000002302771    -0.000004494783
      17        0.000001218051    -0.000003004253     0.000000194710
      18       -0.000003682395    -0.000001437218     0.000001187664
      19       -0.000009644950     0.000010719985     0.000001687287
      20        0.000000225425    -0.000001132277    -0.000001064573
      21       -0.000001944092    -0.000002766473     0.000002093640
      22       -0.000003033053     0.000000209811    -0.000002238575

  **** Optimization is complete! (in 11 steps) ****
    Final optimized geometry and variables:
    Molecular point group: c1

    Geometry (in Angstrom), charge = 0, multiplicity = 1:

    O           -1.984416172100     2.358119252421    -0.726475351184
    C           -1.728919741793     1.247148887993    -0.391469788690
    C           -0.493212914075     0.546072028985    -0.926112124168
    C           -2.653395706013     0.481327806245     0.527175233271
    C            0.241228287689    -0.371999675481     0.052067787828
    H            0.172166921301     1.320584758179    -1.283786786421
    H           -0.816157544589    -0.027157704045    -1.792692698765
    C            1.503757901966    -0.969380802230    -0.567327221129
    H            0.498239449092     0.190975261625     0.943386501565
    H           -0.410536452446    -1.178959300299     0.371862275155
    C            2.249489240023    -1.958341794218     0.329932276237
    H            2.177651910227    -0.165535465343    -0.852613138871
    H            1.230703659319    -1.476812579542    -1.488499679702
    C            2.861090820891    -1.344048792271     1.586736984633
    H            3.041418929194    -2.416933224658    -0.253673605121
    H            1.577170145116    -2.764298166596     0.612225599707
    H            3.532742480402    -0.529729617281     1.334925623953
    H            3.431830254268    -2.083732632872     2.136048366128
    H            2.105665959037    -0.953841104559     2.258191454924
    H           -2.895050048231    -0.488202748261     0.105962050859
    H           -3.556451473894     1.051379887114     0.681009972521
    H           -2.171241410062     0.307123383234     1.482235269321

  Mulliken Charges: (a.u.)
   Center  Symbol    Alpha    Beta     Spin     Total
       1     O     4.17261  4.17261  0.00000 -0.34523
       2     C     2.86007  2.86007  0.00000  0.27986
       3     C     3.09615  3.09615  0.00000 -0.19231
       4     C     3.16555  3.16555  0.00000 -0.33111
       5     C     3.10939  3.10939  0.00000 -0.21877
       6     H     0.43773  0.43773  0.00000  0.12454
       7     H     0.44421  0.44421  0.00000  0.11158
       8     C     3.09730  3.09730  0.00000 -0.19461
       9     H     0.44503  0.44503  0.00000  0.10995
      10     H     0.45014  0.45014  0.00000  0.09972
      11     C     3.09021  3.09021  0.00000 -0.18042
      12     H     0.44943  0.44943  0.00000  0.10115
      13     H     0.44805  0.44805  0.00000  0.10389
      14     C     3.15224  3.15224  0.00000 -0.30447
      15     H     0.44686  0.44686  0.00000  0.10629
      16     H     0.45449  0.45449  0.00000  0.09103
      17     H     0.45336  0.45336  0.00000  0.09327
      18     H     0.44529  0.44529  0.00000  0.10943
      19     H     0.45446  0.45446  0.00000  0.09109
      20     H     0.44828  0.44828  0.00000  0.10343
      21     H     0.43188  0.43188  0.00000  0.13624
      22     H     0.44728  0.44728  0.00000  0.10544

   Total alpha = 32.00000, Total beta = 32.00000, Total charge = -0.00000
