  ==> Input File <==

--------------------------------------------------------------------------
set {
	reference rhf
	basis 6-31G*
}

set_num_threads( 4 )
memory 2 gb

molecule MOL {
0 1

O	 0.715802	 -0.049073	 -0.636319
C	 1.705091	 0.115954	 0.001797
C	 1.978993	 1.289951	 0.909858
O	 2.721346	 -0.737485	 -0.000216
C	 0.839194	 2.303258	 0.951222
H	 2.189057	 0.892994	 1.899309
H	 2.903866	 1.751133	 0.574239
C	 1.142791	 3.480763	 1.878785
H	 -0.070311	 1.805465	 1.272457
H	 0.645935	 2.665348	 -0.053691
C	 0.009457	 4.506665	 1.932972
H	 1.339205	 3.110848	 2.884062
H	 2.057149	 3.974317	 1.552849
C	 0.313887	 5.683562	 2.858978
H	 -0.904106	 4.015728	 2.260880
H	 -0.187337	 4.877766	 0.929631
H	 0.481462	 5.347595	 3.878419
H	 -0.507581	 6.393039	 2.875809
H	 1.204266	 6.216240	 2.536814
C	 4.024888	 -0.184556	 -0.001949
H	 4.179030	 0.422472	 -0.882452
H	 4.701782	 -1.024608	 -0.003642
H	 4.181981	 0.421185	 0.878906

	symmetry c1
}
set optking {
	frozen_dihedral = ("
		1 2 4 20
	")
}

ee = optimize('scf')
oeprop('DIPOLE', 'QUADRUPOLE', 'MULLIKEN_CHARGES')
f=open( 'psi4out.xyz', 'w' )
f.write( "23  " )
f.write( str(ee) + "\n" )
f.write( MOL.save_string_xyz() )
f.close()
--------------------------------------------------------------------------

    Molecular point group: c1
  Charge       = 0
  Multiplicity = 1
  Basis Set: 6-31G*
  Basis Set:
  @DF-RHF Final Energy:  -422.95036575466844
    Total Energy =                       -422.9503657546680415
    Molecular point group: c1
  Basis Set: 6-31G*
  Basis Set:
  Basis Set: 6-31G*
  Basis Set:
  @DF-RHF Final Energy:  -422.95060032450061
    Total Energy =                       -422.9506003245005559
  Basis Set: 6-31G*
  Basis Set:
  Basis Set: 6-31G*
  Basis Set:
  @DF-RHF Final Energy:  -422.95624286165628
    Total Energy =                       -422.9562428616565057
  Basis Set: 6-31G*
  Basis Set:
  Basis Set: 6-31G*
  Basis Set:
  @DF-RHF Final Energy:  -422.95742540876853
    Total Energy =                       -422.9574254087688132
  Basis Set: 6-31G*
  Basis Set:
  Basis Set: 6-31G*
  Basis Set:
  @DF-RHF Final Energy:  -422.95727752610730
    Total Energy =                       -422.9572775261074185
  Basis Set: 6-31G*
  Basis Set:
  Basis Set: 6-31G*
  Basis Set:
  @DF-RHF Final Energy:  -422.95829576323115
    Total Energy =                       -422.9582957632314901
  Basis Set: 6-31G*
  Basis Set:
  Basis Set: 6-31G*
  Basis Set:
  @DF-RHF Final Energy:  -422.95830810615001
    Total Energy =                       -422.9583081061499570
  Basis Set: 6-31G*
  Basis Set:
  Charge       = 0
  Multiplicity = 1
  Basis Set: 6-31G*
  Basis Set:

    Orbital Energies (a.u.)
    -----------------------

    Doubly Occupied:

       1A    -20.595247     2A    -20.546636     3A    -11.374148
       4A    -11.295607     5A    -11.244039     6A    -11.223564
       7A    -11.221684     8A    -11.219199     9A    -11.212055
      10A     -1.460798    11A     -1.366686    12A     -1.096151
      13A     -1.041630    14A     -0.984020    15A     -0.951158
      16A     -0.853746    17A     -0.799017    18A     -0.766084
      19A     -0.698630    20A     -0.685180    21A     -0.673269
      22A     -0.654430    23A     -0.615898    24A     -0.605483
      25A     -0.580275    26A     -0.569424    27A     -0.558562
      28A     -0.539845    29A     -0.512677    30A     -0.505826
      31A     -0.488768    32A     -0.473774    33A     -0.469652
      34A     -0.467726    35A     -0.448660    36A     -0.430766

  @DF-RHF Final Energy:  -422.95830910046658

   => Energetics <=

    Nuclear Repulsion Energy =            454.2753895282787084
    One-Electron Energy =               -1476.0067695677876145
    Two-Electron Energy =                 598.7730709390423272
    DFT Exchange-Correlation Energy =       0.0000000000000000
    Empirical Dispersion Energy =           0.0000000000000000
    PCM Polarization Energy =               0.0000000000000000
    EFP Energy =                            0.0000000000000000
    Total Energy =                       -422.9583091004665221
    Molecular point group: c1
  Basis Set: 6-31G*
  Basis Set:

  -Total Gradient:
     Atom            X                  Y                   Z
    ------   -----------------  -----------------  -----------------
       1        0.001829879456     0.001645051825    -0.002926962019
       2       -0.002579087732    -0.002447900703     0.002456155997
       3       -0.000002288641     0.000043478241    -0.000038638920
       4        0.000703855517     0.000784472271     0.003756604117
       5        0.000021314001    -0.000007542868     0.000004130191
       6        0.000015958263    -0.000023361213     0.000019358718
       7       -0.000012774721    -0.000018243208     0.000034729040
       8       -0.000000976096     0.000001477685     0.000000707050
       9        0.000012809587     0.000003403874    -0.000008092909
      10       -0.000005539485     0.000004125845    -0.000011954484
      11        0.000001187940     0.000000146157     0.000002583453
      12        0.000005499873     0.000003232947     0.000001691234
      13       -0.000003178297     0.000002637225    -0.000002439457
      14       -0.000001609750    -0.000004474901     0.000003901962
      15       -0.000002153600    -0.000000250622    -0.000001694248
      16        0.000002399961     0.000001558368    -0.000000555172
      17        0.000000924452     0.000000714176     0.000000986779
      18       -0.000000591632    -0.000001208269     0.000000331767
      19       -0.000000336919    -0.000000386194    -0.000001365033
      20        0.000006116109     0.000007178206    -0.003288265231
      21        0.000036366186     0.000015409439    -0.000003871384
      22       -0.000003002136    -0.000005242205     0.000016499700
      23       -0.000024772339    -0.000004276066    -0.000013841141

  **** Optimization is complete! (in 8 steps) ****
    Final optimized geometry and variables:
    Molecular point group: c1

    Geometry (in Angstrom), charge = 0, multiplicity = 1:

    O           -0.712171976165    -1.726425566551    -1.567841583001
    C            0.252779295882    -1.609315291524    -0.894396982625
    C            0.513607138394    -0.415641984058     0.002292189816
    O            1.175751841620    -2.584049831401    -0.878911298989
    C           -0.683700715134     0.526152586607     0.104616655287
    H            0.800309005724    -0.787981728832     0.982581140214
    H            1.378776481885     0.121505475774    -0.379493445740
    C           -0.402852288951     1.724088003763     1.012908702994
    H           -1.540694737744    -0.026537207846     0.476185792795
    H           -0.952579937731     0.868201570016    -0.888922863501
    C           -1.594068272120     2.676704498465     1.129199548451
    H           -0.127825701128     1.372497717136     2.006285895994
    H            0.458627651796     2.273496728442     0.635505383426
    C           -1.313781738066     3.873984267620     2.036473300161
    H           -2.455029321466     2.130307526124     1.507444568876
    H           -1.868956372805     3.030477663666     0.138152695814
    H           -1.068847580243     3.553298130569     3.045164243985
    H           -2.176449894135     4.529829237125     2.098801843896
    H           -0.478497082191     4.461030020329     1.664972518151
    C            2.550980639451    -2.278311754464    -0.860440730882
    H            2.813428662330    -1.612680329909    -1.674386623203
    H            3.065550958932    -3.216959246573    -0.993978977909
    H            2.856189947146    -1.838983939598     0.081383672380

  Mulliken Charges: (a.u.)
   Center  Symbol    Alpha    Beta     Spin     Total
       1     O     4.25927  4.25927  0.00000 -0.51854
       2     C     2.60359  2.60359  0.00000  0.79282
       3     C     3.22932  3.22932  0.00000 -0.45864
       4     O     4.30722  4.30722  0.00000 -0.61445
       5     C     3.14998  3.14998  0.00000 -0.29996
       6     H     0.40245  0.40245  0.00000  0.19510
       7     H     0.40513  0.40513  0.00000  0.18975
       8     C     3.15367  3.15367  0.00000 -0.30735
       9     H     0.41053  0.41053  0.00000  0.17894
      10     H     0.40821  0.40821  0.00000  0.18359
      11     C     3.15189  3.15189  0.00000 -0.30378
      12     H     0.42422  0.42422  0.00000  0.15155
      13     H     0.42501  0.42501  0.00000  0.14998
      14     C     3.23970  3.23970  0.00000 -0.47940
      15     H     0.42054  0.42054  0.00000  0.15891
      16     H     0.42064  0.42064  0.00000  0.15871
      17     H     0.42178  0.42178  0.00000  0.15643
      18     H     0.41779  0.41779  0.00000  0.16441
      19     H     0.42198  0.42198  0.00000  0.15603
      20     C     3.09425  3.09425  0.00000 -0.18850
      21     H     0.41565  0.41565  0.00000  0.16871
      22     H     0.39906  0.39906  0.00000  0.20187
      23     H     0.41810  0.41810  0.00000  0.16379

   Total alpha = 36.00000, Total beta = 36.00000, Total charge =  0.00000
