                              Psi4 1.0.54 Driver

  ==> Input File <==

--------------------------------------------------------------------------
set {
	reference rhf
	basis cc-pvtz
}

set_num_threads( 4 )
memory 2 gb

molecule MOL {
0 1

H	 -0.418464	 -1.454358	 0.557199
N	 -0.625934	 -0.663929	 -0.000707
C	 -1.978635	 -0.158664	 0.001017
C	 0.376397	 -0.115060	 -0.722274
H	 -2.519057	 -0.493535	 -0.876362
H	 -1.938890	 0.917202	 -0.004137
H	 -2.514266	 -0.485137	 0.884506
C	 1.713930	 -0.805331	 -0.569459
O	 0.231853	 0.842334	 -1.423400
H	 1.644409	 -1.839189	 -0.887112
H	 2.443376	 -0.292282	 -1.174237
H	 2.030767	 -0.792744	 0.466916

	symmetry c1
}
set optking {
	frozen_dihedral = ("
		4 2 3 5
	")
}

ee,wfn = optimize('scf', return_wfn=True)
oeprop( wfn, 'DIPOLE', 'QUADRUPOLE', 'MULLIKEN_CHARGES')
f=open( 'psi4out.xyz', 'w' )
f.write( "12  " )
f.write( str(ee) + "\n" )
f.write( MOL.save_string_xyz() )
f.close()
--------------------------------------------------------------------------

    Molecular point group: c1
  Charge       = 0
  Multiplicity = 1
  Basis Set: CC-PVTZ
  Basis Set:
  @DF-RHF Final Energy:  -247.10077658761102
    Total Energy =                       -247.1007765876110511
    Molecular point group: c1
  Basis Set: CC-PVTZ
  Basis Set:
  Basis Set: CC-PVTZ
  Basis Set:
  @DF-RHF Final Energy:  -247.10100939116299
    Total Energy =                       -247.1010093911629610
  Basis Set: CC-PVTZ
  Basis Set:
  Basis Set: CC-PVTZ
  Basis Set:
  @DF-RHF Final Energy:  -247.10104357306153
    Total Energy =                       -247.1010435730614745
  Basis Set: CC-PVTZ
  Basis Set:
  Basis Set: CC-PVTZ
  Basis Set:
  @DF-RHF Final Energy:  -247.10118511693389
    Total Energy =                       -247.1011851169340048
  Basis Set: CC-PVTZ
  Basis Set:
  @DF-RHF Final Energy:  -247.10120843509125
    Total Energy =                       -247.1012084350913369
  @DF-RHF Final Energy:  -247.10121580511526
    Total Energy =                       -247.1012158051152028
  @DF-RHF Final Energy:  -247.10123159652684
    Total Energy =                       -247.1012315965268158
  @DF-RHF Final Energy:  -247.10124030660717
    Total Energy =                       -247.1012403066071101
  @DF-RHF Final Energy:  -247.10124198954074
    Total Energy =                       -247.1012419895405969
  @DF-RHF Final Energy:  -247.10125137042439
    Total Energy =                       -247.1012513704243929
  @DF-RHF Final Energy:  -247.09846926622816
    Total Energy =                       -247.0984692662282214
  @DF-RHF Final Energy:  -247.10129027307363
    Total Energy =                       -247.1012902730736300
  @DF-RHF Final Energy:  -247.10133540146063
    Total Energy =                       -247.1013354014607444
  @DF-RHF Final Energy:  -247.10113600350186
    Total Energy =                       -247.1011360035017788
  @DF-RHF Final Energy:  -247.10140891720985
    Total Energy =                       -247.1014089172098807
  Basis Set: CC-PVTZ
  Basis Set:
  @DF-RHF Final Energy:  -247.10140389275313
    Total Energy =                       -247.1014038927530692
  Basis Set: CC-PVTZ
  Basis Set:
  Basis Set: CC-PVTZ
  Basis Set:
  @DF-RHF Final Energy:  -247.10141434631987
    Total Energy =                       -247.1014143463199844
  Basis Set: CC-PVTZ
  Basis Set:
  Basis Set: CC-PVTZ
  Basis Set:
  @DF-RHF Final Energy:  -247.10141839073779
    Total Energy =                       -247.1014183907378765
  Basis Set: CC-PVTZ
  Basis Set:
  Charge       = 0
  Multiplicity = 1
  Basis Set: CC-PVTZ
  Basis Set:

    Orbital Energies (a.u.)
    -----------------------

    Doubly Occupied:

       1A    -20.504475     2A    -15.576845     3A    -11.335758
       4A    -11.253871     5A    -11.228476     6A     -1.387643
       7A     -1.231704     8A     -1.016047     9A     -0.934188
      10A     -0.789989    11A     -0.690825    12A     -0.652041
      13A     -0.635720    14A     -0.585882    15A     -0.583027
      16A     -0.555604    17A     -0.547942    18A     -0.506096
      19A     -0.416917    20A     -0.390852

  @DF-RHF Final Energy:  -247.10141927626884

   => Energetics <=

    Nuclear Repulsion Energy =            181.8278145811937918
    One-Electron Energy =                -696.2106640439894818
    Two-Electron Energy =                 267.2814301865269044
    DFT Exchange-Correlation Energy =       0.0000000000000000
    Empirical Dispersion Energy =           0.0000000000000000
    PCM Polarization Energy =               0.0000000000000000
    EFP Energy =                            0.0000000000000000
    Total Energy =                       -247.1014192762687571
    Molecular point group: c1
  Basis Set: CC-PVTZ
  Basis Set:

  -Total Gradient:
     Atom            X                  Y                   Z
    ------   -----------------  -----------------  -----------------
       1        0.000007994121    -0.000006385797     0.000020457811
       2       -0.000090577102    -0.000301127826    -0.000096973099
       3        0.000103881944     0.000239067094    -0.000199656752
       4        0.000099905480     0.000273810646     0.000089395650
       5       -0.000077188944    -0.000141177751     0.000163461545
       6       -0.000005544042     0.000015398088    -0.000006587605
       7        0.000019147805    -0.000007958943     0.000010054743
       8        0.000026216581     0.000061623191     0.000095140699
       9       -0.000065685423    -0.000015464263    -0.000012844656
      10       -0.000002312029    -0.000063499644    -0.000030176178
      11        0.000000300246    -0.000007143790    -0.000025784038
      12       -0.000016138636    -0.000047141004    -0.000006488127

  **** Optimization is complete! (in 19 steps) ****
    Final optimized geometry and variables:
    Molecular point group: c1

    Geometry (in Angstrom), charge = 0, multiplicity = 1:

    H           -0.278511961275    -0.908800098754     1.445923876729
    N           -0.510200868467    -0.284522126754     0.715319213104
    C           -1.890052484404     0.112120803875     0.554831791691
    C            0.436674080150     0.024799547612    -0.194267956386
    H           -2.425401927066    -0.543026970388    -0.123020862625
    H           -1.934042325077     1.115537664950     0.162425576077
    H           -2.377665626384     0.088815505456     1.519644553859
    C            1.813413516353    -0.542687656834     0.067761818787
    O            0.210922838521     0.697827886337    -1.157019407975
    H            1.982029257519    -1.361412180570    -0.621190503544
    H            2.546454792889     0.222771848435    -0.139375181463
    H            1.941672452946    -0.904268848095     1.079434289173

  Mulliken Charges: (a.u.)
   Center  Symbol    Alpha    Beta     Spin     Total
       1     H     0.41085  0.41085  0.00000  0.17830
       2     N     3.61414  3.61414  0.00000 -0.22829
       3     C     3.07843  3.07843  0.00000 -0.15685
       4     C     2.84236  2.84236  0.00000  0.31529
       5     H     0.45662  0.45662  0.00000  0.08677
       6     H     0.43821  0.43821  0.00000  0.12359
       7     H     0.45547  0.45547  0.00000  0.08906
       8     C     3.14418  3.14418  0.00000 -0.28836
       9     O     4.22016  4.22016  0.00000 -0.44032
      10     H     0.44348  0.44348  0.00000  0.11304
      11     H     0.43773  0.43773  0.00000  0.12454
      12     H     0.45837  0.45837  0.00000  0.08326

   Total alpha = 20.00000, Total beta = 20.00000, Total charge = -0.00000

*** Psi4 exiting successfully. Buy a developer a beer!
