  ==> Input File <==

--------------------------------------------------------------------------
set {
	reference rhf
	basis 6-31G*
}

set_num_threads( 4 )
memory 2 gb

molecule MOL {
0 1

H	 -3.948330	 0.575396	 -0.795070
O	 -3.517110	 -0.026191	 -0.205115
C	 -2.306886	 0.532354	 0.237577
C	 -1.177863	 -0.397191	 -0.171080
H	 -2.156308	 1.517575	 -0.201710
H	 -2.315015	 0.655684	 1.319734
C	 0.198102	 0.111031	 0.262842
H	 -1.208843	 -0.518759	 -1.250427
H	 -1.368741	 -1.376554	 0.258909
C	 1.331804	 -0.827780	 -0.158768
H	 0.361943	 1.100838	 -0.156218
H	 0.217265	 0.229072	 1.345532
C	 2.723619	 -0.410569	 0.329459
H	 1.342964	 -0.912588	 -1.244120
H	 1.116806	 -1.824343	 0.220779
C	 3.243875	 0.895854	 -0.272975
H	 3.424222	 -1.207124	 0.091250
H	 2.714788	 -0.329854	 1.414619
H	 3.251977	 0.848779	 -1.358681
H	 2.637085	 1.747371	 0.016682
H	 4.259473	 1.094070	 0.055697

	symmetry c1
}
set optking {
	frozen_dihedral = ("
		1 2 3 5
	")
}

ee = optimize('scf')
oeprop('DIPOLE', 'QUADRUPOLE', 'MULLIKEN_CHARGES')
f=open( 'psi4out.xyz', 'w' )
f.write( "21  " )
f.write( str(ee) + "\n" )
f.write( MOL.save_string_xyz() )
f.close()
--------------------------------------------------------------------------

    Molecular point group: c1
  Charge       = 0
  Multiplicity = 1
  Basis Set: 6-31G*
  Basis Set:
  @DF-RHF Final Energy:  -310.21038526810469
    Total Energy =                       -310.2103852681045169
    Molecular point group: c1
  Basis Set: 6-31G*
  Basis Set:
  Basis Set: 6-31G*
  Basis Set:
  @DF-RHF Final Energy:  -310.21073722446783
    Total Energy =                       -310.2107372244675503
  Basis Set: 6-31G*
  Basis Set:
  Basis Set: 6-31G*
  Basis Set:
  @DF-RHF Final Energy:  -310.21086300588229
    Total Energy =                       -310.2108630058825156
  Basis Set: 6-31G*
  Basis Set:
  Charge       = 0
  Multiplicity = 1
  Basis Set: 6-31G*
  Basis Set:

    Orbital Energies (a.u.)
    -----------------------

    Doubly Occupied:

       1A    -20.550413     2A    -11.267442     3A    -11.215941
       4A    -11.215537     5A    -11.214120     6A    -11.210448
       7A    -11.208759     8A     -1.356935     9A     -1.086442
      10A     -1.033193    11A     -0.954573    12A     -0.876839
      13A     -0.809871    14A     -0.778990    15A     -0.699949
      16A     -0.649023    17A     -0.623277    18A     -0.601795
      19A     -0.591709    20A     -0.570135    21A     -0.539664
      22A     -0.520975    23A     -0.509252    24A     -0.489521
      25A     -0.475677    26A     -0.463512    27A     -0.458329
      28A     -0.455020    29A     -0.420835

  @DF-RHF Final Energy:  -310.21086373437140

   => Energetics <=

    Nuclear Repulsion Energy =            312.1119037120423627
    One-Electron Energy =               -1038.9491819011191183
    Two-Electron Energy =                 416.6264144547054684
    DFT Exchange-Correlation Energy =       0.0000000000000000
    Empirical Dispersion Energy =           0.0000000000000000
    PCM Polarization Energy =               0.0000000000000000
    EFP Energy =                            0.0000000000000000
    Total Energy =                       -310.2108637343712871
    Molecular point group: c1
  Basis Set: 6-31G*
  Basis Set:

  -Total Gradient:
     Atom            X                  Y                   Z
    ------   -----------------  -----------------  -----------------
       1        0.000045916534    -0.000029334857    -0.000054434785
       2        0.000003916468     0.000097509557     0.000124022822
       3        0.000010300161    -0.000078083006    -0.000154466500
       4        0.000008830853    -0.000015960315     0.000069355781
       5       -0.000074304618     0.000060753045     0.000055619168
       6       -0.000027657487    -0.000016146277    -0.000009311909
       7       -0.000046031251    -0.000011455919    -0.000046852583
       8        0.000007621263    -0.000004078452     0.000009988133
       9       -0.000016807875    -0.000012250981    -0.000000574993
      10        0.000004670464     0.000021078058     0.000015021791
      11        0.000005782169     0.000000377980     0.000015050143
      12        0.000015090708    -0.000008567215    -0.000014718683
      13        0.000034851190    -0.000027729905    -0.000024550655
      14        0.000007230312     0.000002552247     0.000007935344
      15       -0.000013733158     0.000014178605    -0.000003796148
      16        0.000001734037     0.000001256875     0.000010299156
      17        0.000030119785     0.000006576016     0.000008130999
      18       -0.000000424820    -0.000000470082    -0.000008421501
      19        0.000000997502    -0.000003776251     0.000002921882
      20        0.000003952302     0.000001160866    -0.000002400254
      21       -0.000002054530     0.000002410010     0.000001182792

  **** Optimization is complete! (in 4 steps) ****
    Final optimized geometry and variables:
    Molecular point group: c1

    Geometry (in Angstrom), charge = 0, multiplicity = 1:

    H           -4.014090137003     0.567612716611    -0.719551615875
    O           -3.548710452394    -0.022140661037    -0.147332119703
    C           -2.307335635384     0.532100884024     0.220685895977
    C           -1.174121139085    -0.398289512273    -0.184415619247
    H           -2.170460051294     1.509084223010    -0.237408532990
    H           -2.301282692965     0.681429985067     1.296632341996
    C            0.200350808401     0.109284023120     0.255249661121
    H           -1.198132298236    -0.525971999549    -1.264066251514
    H           -1.367255017529    -1.376668054270     0.247219524477
    C            1.337222736178    -0.829043304921    -0.159151150145
    H            0.367025782240     1.099509314620    -0.162627701618
    H            0.213015873219     0.228092825635     1.337845287483
    C            2.725736611676    -0.412931987887     0.339534210285
    H            1.356515787227    -0.912913356821    -1.244546102427
    H            1.119018578539    -1.825846851230     0.217799521548
    C            3.250132343837     0.894907543129    -0.256190940766
    H            3.428168061332    -1.208828057792     0.104467789359
    H            2.709269562030    -0.334625560265     1.424723023139
    H            3.265972638260     0.850324704794    -1.341960357865
    H            2.641314276405     1.745733252017     0.031249367779
    H            4.263366462886     1.092436232453     0.080044852086

  Mulliken Charges: (a.u.)
   Center  Symbol    Alpha    Beta     Spin     Total
       1     H     0.27969  0.27969  0.00000  0.44061
       2     O     4.37429  4.37429  0.00000 -0.74857
       3     C     2.99198  2.99198  0.00000  0.01604
       4     C     3.15703  3.15703  0.00000 -0.31407
       5     H     0.43291  0.43291  0.00000  0.13418
       6     H     0.42418  0.42418  0.00000  0.15165
       7     C     3.16274  3.16274  0.00000 -0.32548
       8     H     0.42153  0.42153  0.00000  0.15693
       9     H     0.41437  0.41437  0.00000  0.17127
      10     C     3.15147  3.15147  0.00000 -0.30294
      11     H     0.42286  0.42286  0.00000  0.15428
      12     H     0.42301  0.42301  0.00000  0.15398
      13     C     3.15248  3.15248  0.00000 -0.30497
      14     H     0.42374  0.42374  0.00000  0.15251
      15     H     0.42066  0.42066  0.00000  0.15867
      16     C     3.24117  3.24117  0.00000 -0.48235
      17     H     0.42062  0.42062  0.00000  0.15876
      18     H     0.42319  0.42319  0.00000  0.15363
      19     H     0.42235  0.42235  0.00000  0.15530
      20     H     0.42064  0.42064  0.00000  0.15872
      21     H     0.41908  0.41908  0.00000  0.16185

   Total alpha = 29.00000, Total beta = 29.00000, Total charge =  0.00000
