  ==> Input File <==

--------------------------------------------------------------------------
set {
	reference rhf
	basis 6-31G*
}

set_num_threads( 4 )
memory 2 gb

molecule MOL {
0 1

H	 0.928054	 0.743465	 -1.946138
O	 1.194264	 1.252618	 -1.192648
C	 0.709265	 0.639550	 -0.033818
C	 -0.793441	 0.596080	 0.058728
H	 1.109082	 1.207312	 0.798645
H	 1.102391	 -0.371995	 0.062376
C	 -1.530462	 -0.493172	 -0.025500
H	 -1.268471	 1.554324	 0.202247
H	 -1.092586	 -1.461565	 -0.186463
H	 -2.602122	 -0.450675	 0.050101

	symmetry c1
}
set optking {
	frozen_dihedral = ("
		5 3 4 7
	")
}

ee = optimize('scf')
oeprop('DIPOLE', 'QUADRUPOLE', 'MULLIKEN_CHARGES')
f=open( 'psi4out.xyz', 'w' )
f.write( "10  " )
f.write( str(ee) + "\n" )
f.write( MOL.save_string_xyz() )
f.close()
--------------------------------------------------------------------------

    Molecular point group: c1
  Charge       = 0
  Multiplicity = 1
  Basis Set: 6-31G*
  Basis Set:
  @DF-RHF Final Energy:  -191.91652263420065
    Total Energy =                       -191.9165226342007315
    Molecular point group: c1
  Basis Set: 6-31G*
  Basis Set:
  Basis Set: 6-31G*
  Basis Set:
  @DF-RHF Final Energy:  -191.91718966431904
    Total Energy =                       -191.9171896643190394
  Basis Set: 6-31G*
  Basis Set:
  Basis Set: 6-31G*
  Basis Set:
  @DF-RHF Final Energy:  -191.91724150991058
    Total Energy =                       -191.9172415099105251
  Basis Set: 6-31G*
  Basis Set:
  Basis Set: 6-31G*
  Basis Set:
  @DF-RHF Final Energy:  -191.91724917516635
    Total Energy =                       -191.9172491751663188
  Basis Set: 6-31G*
  Basis Set:
  Charge       = 0
  Multiplicity = 1
  Basis Set: 6-31G*
  Basis Set:

    Orbital Energies (a.u.)
    -----------------------

    Doubly Occupied:

       1A    -20.556300     2A    -11.275875     3A    -11.232814
       4A    -11.229420     5A     -1.363148     6A     -1.064569
       7A     -0.922024     8A     -0.776021     9A     -0.702831
      10A     -0.622646    11A     -0.618946    12A     -0.600357
      13A     -0.530453    14A     -0.488531    15A     -0.443068
      16A     -0.376046

  @DF-RHF Final Energy:  -191.91724950671630

   => Energetics <=

    Nuclear Repulsion Energy =            117.7258504798161169
    One-Electron Energy =                -493.6801009436634899
    Two-Electron Energy =                 184.0370009571311698
    DFT Exchange-Correlation Energy =       0.0000000000000000
    Empirical Dispersion Energy =           0.0000000000000000
    PCM Polarization Energy =               0.0000000000000000
    EFP Energy =                            0.0000000000000000
    Total Energy =                       -191.9172495067161890
    Molecular point group: c1
  Basis Set: 6-31G*
  Basis Set:

  -Total Gradient:
     Atom            X                  Y                   Z
    ------   -----------------  -----------------  -----------------
       1        0.000004358814     0.000008081292    -0.000019766519
       2        0.000001471009    -0.000012323018    -0.000029980628
       3        0.000034327603    -0.001595761763     0.000404934976
       4        0.000057632243     0.000084428677     0.002055510352
       5       -0.000071224718     0.001330015853    -0.000899648929
       6        0.000004075862    -0.000006579163     0.000008502960
       7       -0.000025818243     0.000187228362    -0.001514813874
       8       -0.000003743050     0.000004972779    -0.000004033675
       9       -0.000005406702     0.000003573010    -0.000000012642
      10        0.000004327182    -0.000003636030    -0.000000692018

  **** Optimization is complete! (in 5 steps) ****
    Final optimized geometry and variables:
    Molecular point group: c1

    Geometry (in Angstrom), charge = 0, multiplicity = 1:

    H            0.861443396973     0.296781144991    -1.593055662875
    O            1.218356726856     0.737481447354    -0.833917845365
    C            0.753400363472     0.093764945485     0.326333638810
    C           -0.749066678165     0.084161421283     0.391526200806
    H            1.163982939905     0.665063421552     1.149104423721
    H            1.140458555345    -0.920073731119     0.393264868847
    C           -1.488466126228    -1.005007209473     0.311714466948
    H           -1.220073212768     1.051625867300     0.459786791146
    H           -1.047762752474    -1.984829599430     0.232117801457
    H           -2.562943603930    -0.965022948243     0.334698257525

  Mulliken Charges: (a.u.)
   Center  Symbol    Alpha    Beta     Spin     Total
       1     H     0.28247  0.28247  0.00000  0.43506
       2     O     4.36754  4.36754  0.00000 -0.73509
       3     C     3.00889  3.00889  0.00000 -0.01778
       4     C     3.08399  3.08399  0.00000 -0.16798
       5     H     0.41172  0.41172  0.00000  0.17657
       6     H     0.42480  0.42480  0.00000  0.15040
       7     C     3.19695  3.19695  0.00000 -0.39390
       8     H     0.40341  0.40341  0.00000  0.19317
       9     H     0.41204  0.41204  0.00000  0.17591
      10     H     0.40818  0.40818  0.00000  0.18363

   Total alpha = 16.00000, Total beta = 16.00000, Total charge =  0.00000
