  ==> Input File <==

--------------------------------------------------------------------------
set {
	reference rhf
	basis cc-pvtz
}

set_num_threads( 4 )
memory 2 gb

molecule MOL {
0 1

H	 2.307501	 1.595216	 0.232181
O	 1.389306	 1.630414	 0.425377
C	 0.700177	 0.619554	 -0.266242
C	 -0.713111	 0.588314	 0.266177
H	 1.170599	 -0.345330	 -0.103063
H	 0.683364	 0.821813	 -1.334037
O	 -1.421673	 -0.521378	 -0.196983
H	 -1.244794	 1.469161	 -0.069059
H	 -0.685100	 0.604721	 1.352683
H	 -0.933408	 -1.297830	 0.014544

	symmetry c1
}
set optking {
	frozen_dihedral = ("
		5 3 4 7
	")
}

ee = optimize('scf')
oeprop('DIPOLE', 'QUADRUPOLE', 'MULLIKEN_CHARGES')
f=open( 'psi4out.xyz', 'w' )
f.write( "10  " )
f.write( str(ee) + "\n" )
f.write( MOL.save_string_xyz() )
f.close()
--------------------------------------------------------------------------

    Molecular point group: c1
  Charge       = 0
  Multiplicity = 1
  Basis Set: CC-PVTZ
  Basis Set:
  @DF-RHF Final Energy:  -229.02425118903435
    Total Energy =                       -229.0242511890343167
    Molecular point group: c1
  Basis Set: CC-PVTZ
  Basis Set:
  Basis Set: CC-PVTZ
  Basis Set:
  @DF-RHF Final Energy:  -229.02498612433399
    Total Energy =                       -229.0249861243339637
  Basis Set: CC-PVTZ
  Basis Set:
  Basis Set: CC-PVTZ
  Basis Set:
  @DF-RHF Final Energy:  -229.02522661948811
    Total Energy =                       -229.0252266194881372
  Basis Set: CC-PVTZ
  Basis Set:
  Basis Set: CC-PVTZ
  Basis Set:
  @DF-RHF Final Energy:  -229.02525763507819
    Total Energy =                       -229.0252576350782192
  Basis Set: CC-PVTZ
  Basis Set:
  Charge       = 0
  Multiplicity = 1
  Basis Set: CC-PVTZ
  Basis Set:

    Orbital Energies (a.u.)
    -----------------------

    Doubly Occupied:

       1A    -20.556271     2A    -20.552557     3A    -11.271460
       4A    -11.267345     5A     -1.379736     6A     -1.366166
       7A     -0.999634     8A     -0.848019     9A     -0.726798
      10A     -0.686648    11A     -0.646148    12A     -0.617244
      13A     -0.577698    14A     -0.528625    15A     -0.495973
      16A     -0.447172    17A     -0.442130

  @DF-RHF Final Energy:  -229.02525936423211

   => Energetics <=

    Nuclear Repulsion Energy =            131.5368900764952400
    One-Electron Energy =                -574.3050505069918472
    Two-Electron Energy =                 213.7429010662644373
    DFT Exchange-Correlation Energy =       0.0000000000000000
    Empirical Dispersion Energy =           0.0000000000000000
    PCM Polarization Energy =               0.0000000000000000
    EFP Energy =                            0.0000000000000000
    Total Energy =                       -229.0252593642321699
    Molecular point group: c1
  Basis Set: CC-PVTZ
  Basis Set:

  -Total Gradient:
     Atom            X                  Y                   Z
    ------   -----------------  -----------------  -----------------
       1       -0.000027327167    -0.000008315156     0.000010657331
       2       -0.000129667796    -0.000175908310    -0.000151764157
       3        0.001065243283     0.000543225431     0.002866411868
       4       -0.000803460799     0.001060039912    -0.002100351508
       5       -0.000619041399    -0.000578402721    -0.001863238092
       6        0.000013271367     0.000013267912    -0.000042265410
       7        0.000489134681    -0.000862346557     0.001232074464
       8        0.000009095582     0.000022545595     0.000001770245
       9       -0.000013413930     0.000010780939     0.000034459813
      10        0.000016166177    -0.000024887044     0.000012245445

  **** Optimization is complete! (in 5 steps) ****
    Final optimized geometry and variables:
    Molecular point group: c1

    Geometry (in Angstrom), charge = 0, multiplicity = 1:

    H            2.241483140295     1.177592018015     0.074272959867
    O            1.383081349759     1.041198922298     0.429389659448
    C            0.704808310802     0.057864388604    -0.297702921292
    C           -0.727707669317     0.015620641331     0.198680626266
    H            1.161091232819    -0.922404206723    -0.168008962862
    H            0.711895663192     0.276199660104    -1.361851976344
    O           -1.429159263128    -1.068609780140    -0.341150414751
    H           -1.248962905926     0.912976911080    -0.102530944069
    H           -0.724631404177    -0.014236230743     1.283987874442
    H           -1.136927064307    -1.870071608454     0.052751704714

  Mulliken Charges: (a.u.)
   Center  Symbol    Alpha    Beta     Spin     Total
       1     H     0.39253  0.39253  0.00000  0.21494
       2     O     4.19911  4.19911  0.00000 -0.39822
       3     C     2.96242  2.96242  0.00000  0.07516
       4     C     2.97519  2.97519  0.00000  0.04962
       5     H     0.48269  0.48269  0.00000  0.03461
       6     H     0.47094  0.47094  0.00000  0.05811
       7     O     4.20348  4.20348  0.00000 -0.40697
       8     H     0.45338  0.45338  0.00000  0.09325
       9     H     0.46680  0.46680  0.00000  0.06639
      10     H     0.39345  0.39345  0.00000  0.21310

   Total alpha = 17.00000, Total beta = 17.00000, Total charge = -0.00000
