  ==> Input File <==

--------------------------------------------------------------------------
set {
	reference rhf
	basis cc-pvtz
}

set_num_threads( 4 )
memory 2 gb

molecule MOL {
0 1

H	 -2.644180	 -0.653737	 1.272255
C	 -2.092774	 -0.380414	 0.391915
O	 -0.808934	 -0.154049	 0.752536
F	 -2.163230	 -1.351640	 -0.507133
F	 -2.627232	 0.691260	 -0.169301
C	 0.085006	 0.250800	 -0.215074
C	 1.370439	 -0.548013	 -0.012993
Cl	 0.421658	 1.987697	 -0.091007
H	 -0.272219	 0.063284	 -1.212508
F	 1.731477	 -0.524564	 1.244832
F	 2.330035	 0.001291	 -0.719218
F	 1.245152	 -1.790862	 -0.389665

	symmetry c1
}
set optking {
	frozen_dihedral = ("
		10 7 6 9
	")
}

ee = optimize('scf')
oeprop('DIPOLE', 'QUADRUPOLE', 'MULLIKEN_CHARGES')
f=open( 'psi4out.xyz', 'w' )
f.write( "12  " )
f.write( str(ee) + "\n" )
f.write( MOL.save_string_xyz() )
f.close()
--------------------------------------------------------------------------

    Molecular point group: c1
  Charge       = 0
  Multiplicity = 1
  Basis Set: CC-PVTZ
  Basis Set:
  @DF-RHF Final Energy: -1146.61825110319796
    Total Energy =                      -1146.6182511031972808
    Molecular point group: c1
  Basis Set: CC-PVTZ
  Basis Set:
  Basis Set: CC-PVTZ
  Basis Set:
  @DF-RHF Final Energy: -1146.61929622742218
    Total Energy =                      -1146.6192962274212732
  Basis Set: CC-PVTZ
  Basis Set:
  Basis Set: CC-PVTZ
  Basis Set:
  @DF-RHF Final Energy: -1146.61978471032717
    Total Energy =                      -1146.6197847103269396
  Basis Set: CC-PVTZ
  Basis Set:
  Basis Set: CC-PVTZ
  Basis Set:
  @DF-RHF Final Energy: -1146.61980874564279
    Total Energy =                      -1146.6198087456427857
  Basis Set: CC-PVTZ
  Basis Set:
  Basis Set: CC-PVTZ
  Basis Set:
  @DF-RHF Final Energy: -1146.61981269302805
    Total Energy =                      -1146.6198126930285071
  Basis Set: CC-PVTZ
  Basis Set:
  Charge       = 0
  Multiplicity = 1
  Basis Set: CC-PVTZ
  Basis Set:

    Orbital Energies (a.u.)
    -----------------------

    Doubly Occupied:

       1A   -104.857157     2A    -26.355895     3A    -26.353066
       4A    -26.352817     5A    -26.343060     6A    -26.342948
       7A    -20.640717     8A    -11.520295     9A    -11.483580
      10A    -11.401066    11A    -10.582691    12A     -8.049494
      13A     -8.047498    14A     -8.047430    15A     -1.767968
      16A     -1.724537    17A     -1.663957    18A     -1.660080
      19A     -1.644583    20A     -1.486717    21A     -1.178502
      22A     -1.053581    23A     -0.990407    24A     -0.924476
      25A     -0.864750    26A     -0.858368    27A     -0.852094
      28A     -0.829384    29A     -0.817765    30A     -0.794078
      31A     -0.733125    32A     -0.732178    33A     -0.712468
      34A     -0.708419    35A     -0.684388    36A     -0.681772
      37A     -0.665103    38A     -0.663972    39A     -0.649646
      40A     -0.638563    41A     -0.598770    42A     -0.581954
      43A     -0.525882    44A     -0.478383    45A     -0.470421

  @DF-RHF Final Energy: -1146.61981331860397

   => Energetics <=

    Nuclear Repulsion Energy =            738.3433714382977087
    One-Electron Energy =               -3059.8983654443245541
    Two-Electron Energy =                1174.9351806874228714
    DFT Exchange-Correlation Energy =       0.0000000000000000
    Empirical Dispersion Energy =           0.0000000000000000
    PCM Polarization Energy =               0.0000000000000000
    EFP Energy =                            0.0000000000000000
    Total Energy =                      -1146.6198133186039740
    Molecular point group: c1
  Basis Set: CC-PVTZ
  Basis Set:

  -Total Gradient:
     Atom            X                  Y                   Z
    ------   -----------------  -----------------  -----------------
       1       -0.000002635534     0.000009475045     0.000001203351
       2        0.000047962927    -0.000031745899    -0.000028713804
       3       -0.000025113533     0.000044773883     0.000047951019
       4       -0.000022116168    -0.000007213586    -0.000009786410
       5       -0.000051199736    -0.000017597263     0.000009443964
       6        0.001779215933     0.002510947140    -0.001331797810
       7        0.001715371744     0.002628651636    -0.000430152340
       8        0.000037639645    -0.000029818882     0.000015092928
       9       -0.001833883583    -0.002654742588     0.001199325457
      10       -0.001571618729    -0.002382112145     0.000515365402
      11       -0.000065999819     0.000001197898     0.000029076884
      12       -0.000007623119    -0.000071815130    -0.000017008642

  **** Optimization is complete! (in 6 steps) ****
    Final optimized geometry and variables:
    Molecular point group: c1

    Geometry (in Angstrom), charge = 0, multiplicity = 1:

    H           -2.635278496468    -0.697628456295     1.249351086045
    C           -2.084839815000    -0.403125985410     0.375171301773
    O           -0.803714577210    -0.173377369603     0.741877739782
    F           -2.146589058429    -1.358001305827    -0.542241112964
    F           -2.628238213375     0.674210711401    -0.166646258991
    C            0.089733912792     0.258851388547    -0.217836123539
    C            1.379604518782    -0.534340937356    -0.010080263845
    CL           0.393388402138     1.997201911374    -0.072448693227
    H           -0.270621278890     0.056952326400    -1.211323966605
    F            1.772438559861    -0.513417836111     1.233851856926
    F            2.342725543016    -0.084074134529    -0.769349721440
    F            1.155160605433    -1.786218774514    -0.341885459532

  Mulliken Charges: (a.u.)
   Center  Symbol    Alpha    Beta     Spin     Total
       1     H     0.45197  0.45197  0.00000  0.09607
       2     C     2.74030  2.74030  0.00000  0.51939
       3     O     4.15612  4.15612  0.00000 -0.31223
       4     F     4.61812  4.61812  0.00000 -0.23624
       5     F     4.61516  4.61516  0.00000 -0.23032
       6     C     2.93867  2.93867  0.00000  0.12265
       7     C     2.66992  2.66992  0.00000  0.66017
       8    CL     8.57292  8.57292  0.00000 -0.14584
       9     H     0.43026  0.43026  0.00000  0.13947
      10     F     4.60009  4.60009  0.00000 -0.20019
      11     F     4.60009  4.60009  0.00000 -0.20018
      12     F     4.60638  4.60638  0.00000 -0.21275

   Total alpha = 45.00000, Total beta = 45.00000, Total charge =  0.00000
