                              Psi4 1.0.54 Driver

  ==> Input File <==

--------------------------------------------------------------------------
set {
	reference rhf
	basis cc-pvtz
}

set_num_threads( 4 )
memory 2 gb

molecule MOL {
0 1

H	 4.427797	 -0.029446	 -1.260919
C	 3.640671	 -0.528342	 -0.708068
C	 2.349801	 0.282423	 -0.739171
H	 3.497998	 -1.508751	 -1.150199
H	 3.992078	 -0.672880	 0.308121
C	 1.215950	 -0.382441	 0.027187
H	 2.031632	 0.437771	 -1.764061
H	 2.534188	 1.268718	 -0.319885
N	 0.000002	 0.398953	 -0.040851
H	 1.013983	 -1.357434	 -0.406135
H	 1.533042	 -0.563439	 1.058583
C	 -1.215959	 -0.382435	 0.027143
H	 -0.000012	 1.086078	 0.683841
C	 -2.451944	 0.502410	 -0.038737
H	 -1.221867	 -1.069392	 -0.813828
H	 -1.259993	 -0.999709	 0.929424
C	 -3.752217	 -0.292550	 0.005776
H	 -2.407325	 1.093801	 -0.946480
H	 -2.431979	 1.206234	 0.790023
H	 -3.817783	 -0.982946	 -0.828547
H	 -4.612613	 0.364348	 -0.042306
H	 -3.830160	 -0.871666	 0.919868

	symmetry c1
}
set optking {
	frozen_dihedral = ("
		10 6 9 12
	")
}

ee,wfn = optimize('scf', return_wfn=True)
oeprop( wfn, 'DIPOLE', 'QUADRUPOLE', 'MULLIKEN_CHARGES')
f=open( 'psi4out.xyz', 'w' )
f.write( "22  " )
f.write( str(ee) + "\n" )
f.write( MOL.save_string_xyz() )
f.close()
--------------------------------------------------------------------------

    Molecular point group: c1
  Charge       = 0
  Multiplicity = 1
  Basis Set: CC-PVTZ
  Basis Set:
  @DF-RHF Final Energy:  -290.48765989077219
    Total Energy =                       -290.4876598907720791
    Molecular point group: c1
  Basis Set: CC-PVTZ
  Basis Set:
  Basis Set: CC-PVTZ
  Basis Set:
  @DF-RHF Final Energy:  -290.48789680301115
    Total Energy =                       -290.4878968030112105
  Basis Set: CC-PVTZ
  Basis Set:
  Basis Set: CC-PVTZ
  Basis Set:
  @DF-RHF Final Energy:  -290.48794243927131
    Total Energy =                       -290.4879424392715350
  Basis Set: CC-PVTZ
  Basis Set:
  Basis Set: CC-PVTZ
  Basis Set:
  @DF-RHF Final Energy:  -290.48794513747652
    Total Energy =                       -290.4879451374764585
  Basis Set: CC-PVTZ
  Basis Set:
  Charge       = 0
  Multiplicity = 1
  Basis Set: CC-PVTZ
  Basis Set:

    Orbital Energies (a.u.)
    -----------------------

    Doubly Occupied:

       1A    -15.526398     2A    -11.236912     3A    -11.236364
       4A    -11.211888     5A    -11.207695     6A    -11.207664
       7A    -11.205470     8A     -1.204752     9A     -1.059158
      10A     -1.026275    11A     -0.928504    12A     -0.869970
      13A     -0.809046    14A     -0.794250    15A     -0.670354
      16A     -0.629180    17A     -0.616417    18A     -0.606308
      19A     -0.577089    20A     -0.561437    21A     -0.534065
      22A     -0.519303    23A     -0.518236    24A     -0.485896
      25A     -0.484529    26A     -0.473113    27A     -0.465460
      28A     -0.453224    29A     -0.356040

  @DF-RHF Final Energy:  -290.48794539856789

   => Energetics <=

    Nuclear Repulsion Energy =            313.5519161045038459
    One-Electron Energy =               -1013.1297269853610032
    Two-Electron Energy =                 409.0898654822892127
    DFT Exchange-Correlation Energy =       0.0000000000000000
    Empirical Dispersion Energy =           0.0000000000000000
    PCM Polarization Energy =               0.0000000000000000
    EFP Energy =                            0.0000000000000000
    Total Energy =                       -290.4879453985680016
    Molecular point group: c1
  Basis Set: CC-PVTZ
  Basis Set:

  -Total Gradient:
     Atom            X                  Y                   Z
    ------   -----------------  -----------------  -----------------
       1        0.000016373556    -0.000013313907    -0.000001713345
       2        0.000018747440     0.000011540027    -0.000028041924
       3       -0.000031230698    -0.000028733868     0.000046520334
       4       -0.000000700320     0.000002050305     0.000002505976
       5       -0.000007283141     0.000006953612    -0.000005820559
       6        0.001052411706     0.001336256300    -0.004792713584
       7        0.000006050644    -0.000001728091     0.000008326984
       8       -0.000007513847     0.000001329577     0.000004842329
       9       -0.000171495395     0.000047789558     0.004390499870
      10       -0.000855561869    -0.001158056696     0.002950692792
      11        0.000008849210     0.000007506646     0.000014978022
      12       -0.000009543894    -0.000209240217    -0.002592205160
      13        0.000003575711     0.000003560255     0.000002387682
      14       -0.000014099130    -0.000006226597    -0.000000474080
      15       -0.000005032309     0.000001286182     0.000002166838
      16       -0.000001458234     0.000011706295    -0.000008569244
      17       -0.000010907529     0.000004990795     0.000002244520
      18        0.000006807108    -0.000011319458     0.000000589842
      19        0.000003959988    -0.000005451735     0.000001799528
      20        0.000000669589     0.000001569942    -0.000001123079
      21       -0.000002514361    -0.000001247517     0.000001873339
      22       -0.000000104226    -0.000001221408     0.000001232919

  **** Optimization is complete! (in 5 steps) ****
    Final optimized geometry and variables:
    Molecular point group: c1

    Geometry (in Angstrom), charge = 0, multiplicity = 1:

    H            4.485066096697     0.063649211025    -1.015866448647
    C            3.694641522236    -0.445698698428    -0.477311570519
    C            2.391043035281     0.342749101466    -0.538464090979
    H            3.578557300104    -1.430924094024    -0.917398924386
    H            4.027623080247    -0.580313008490     0.546649716844
    C            1.249994862836    -0.339955972669     0.201475088192
    H            2.092193664084     0.494554831906    -1.569651093809
    H            2.543249943537     1.332160469539    -0.115631778114
    N            0.025311098444     0.435021536304     0.149019375621
    H            1.054314391406    -1.315457594309    -0.231138899641
    H            1.558142880569    -0.540752239057     1.230624241638
    C           -1.201272701448    -0.327534313880     0.226223380519
    H            0.034998117903     1.154843718798     0.838712739081
    C           -2.421403736913     0.580091779652     0.175821046942
    H           -1.227258979376    -1.008155355640    -0.618818905702
    H           -1.253799751093    -0.948468772883     1.125886165840
    C           -3.735550190801    -0.191787080044     0.217940473291
    H           -2.369877027091     1.180093111205    -0.725996591271
    H           -2.385243227297     1.274267725382     1.012135433472
    H           -3.817143012815    -0.872046828246    -0.623254958250
    H           -4.584105712426     0.481033611586     0.180534054903
    H           -3.819933279322    -0.778808217746     1.126371270067

  Mulliken Charges: (a.u.)
   Center  Symbol    Alpha    Beta     Spin     Total
       1     H     0.44778  0.44778  0.00000  0.10443
       2     C     3.15496  3.15496  0.00000 -0.30993
       3     C     3.07195  3.07195  0.00000 -0.14389
       4     H     0.45580  0.45580  0.00000  0.08839
       5     H     0.45677  0.45677  0.00000  0.08645
       6     C     3.03450  3.03450  0.00000 -0.06900
       7     H     0.45262  0.45262  0.00000  0.09475
       8     H     0.45827  0.45827  0.00000  0.08345
       9     N     3.64315  3.64315  0.00000 -0.28630
      10     H     0.45650  0.45650  0.00000  0.08700
      11     H     0.46548  0.46548  0.00000  0.06904
      12     C     3.02123  3.02123  0.00000 -0.04245
      13     H     0.44230  0.44230  0.00000  0.11540
      14     C     3.08207  3.08207  0.00000 -0.16414
      15     H     0.45996  0.45996  0.00000  0.08008
      16     H     0.47575  0.47575  0.00000  0.04851
      17     C     3.15354  3.15354  0.00000 -0.30709
      18     H     0.44933  0.44933  0.00000  0.10135
      19     H     0.45943  0.45943  0.00000  0.08114
      20     H     0.45484  0.45484  0.00000  0.09032
      21     H     0.44767  0.44767  0.00000  0.10465
      22     H     0.45608  0.45608  0.00000  0.08784

   Total alpha = 29.00000, Total beta = 29.00000, Total charge = -0.00000

*** Psi4 exiting successfully. Buy a developer a beer!
