  ==> Input File <==

--------------------------------------------------------------------------
set {
	reference rhf
	basis 6-31G*
}

set_num_threads( 1 )
memory 2 gb

molecule MOL {
0 1

O	 1.214711	 1.306902	 -0.000018
C	 1.122059	 0.121804	 -0.000188
C	 -0.170150	 -0.657997	 -0.000612
O	 2.172624	 -0.688929	 0.000216
C	 -1.412532	 0.227344	 -0.000452
H	 -0.153702	 -1.313099	 -0.867402
H	 -0.153924	 -1.313811	 0.865644
C	 -1.322877	 1.354778	 1.029218
H	 -2.287828	 -0.383439	 0.197801
H	 -1.554926	 0.645190	 -0.992234
C	 -2.563045	 2.247499	 1.035235
H	 -1.179441	 0.930663	 2.020998
H	 -0.442774	 1.962072	 0.827516
H	 -3.456261	 1.675134	 1.268083
H	 -2.474057	 3.038021	 1.773769
H	 -2.713972	 2.714385	 0.066278
C	 3.452279	 -0.082609	 0.000533
H	 3.583069	 0.529321	 -0.880332
H	 4.163299	 -0.894027	 0.001117
H	 3.582335	 0.529955	 0.881077

	symmetry c1
}
set optking {
	frozen_dihedral = ("
		9 5 8 12,
		1 2 3 6,
		1 2 4 17
	")
}

ee = energy('scf')
oeprop('DIPOLE', 'QUADRUPOLE', 'MULLIKEN_CHARGES')
f=open( 'psi4out.xyz', 'w' )
f.write( "20  " )
f.write( str(ee) + "\n" )
f.write( MOL.save_string_xyz() )
f.close()
--------------------------------------------------------------------------

    Molecular point group: c1

    Geometry (in Angstrom), charge = 0, multiplicity = 1:

       Center              X                  Y                   Z               Mass
    ------------   -----------------  -----------------  -----------------  -----------------
           O          0.867232545265     0.819338749990    -0.258199619169    15.994914619560
           C          0.774580545265    -0.365759250010    -0.258369619169    12.000000000000
           C         -0.517628454735    -1.145560250010    -0.258793619169    12.000000000000
           O          1.825145545265    -1.176492250010    -0.257965619169    15.994914619560
           C         -1.760010454735    -0.260219250010    -0.258633619169    12.000000000000
           H         -0.501180454735    -1.800662250010    -1.125583619169     1.007825032070
           H         -0.501402454735    -1.801374250010     0.607462380831     1.007825032070
           C         -1.670355454735     0.867214749990     0.771036380831    12.000000000000
           H         -2.635306454735    -0.871002250010    -0.060380619169     1.007825032070
           H         -1.902404454735     0.157626749990    -1.250415619169     1.007825032070
           C         -2.910523454735     1.759935749990     0.777053380831    12.000000000000
           H         -1.526919454735     0.443099749990     1.762816380831     1.007825032070
           H         -0.790252454735     1.474508749990     0.569334380831     1.007825032070
           H         -3.803739454735     1.187570749990     1.009901380831     1.007825032070
           H         -2.821535454735     2.550457749990     1.515587380831     1.007825032070
           H         -3.061450454735     2.226821749990    -0.191903619169     1.007825032070
           C          3.104800545265    -0.570172250010    -0.257648619169    12.000000000000
           H          3.235590545265     0.041757749990    -1.138513619169     1.007825032070
           H          3.815820545265    -1.381590250010    -0.257064619169     1.007825032070
           H          3.234856545265     0.042391749990     0.622895380831     1.007825032070

  Charge       = 0
  Multiplicity = 1
  Basis Set: 6-31G*
  Basis Set:

    Orbital Energies (a.u.)
    -----------------------

    Doubly Occupied:

       1A    -20.606422     2A    -20.547702     3A    -11.376134
       4A    -11.282818     5A    -11.236589     6A    -11.218596
       7A    -11.199454     8A    -11.197774     9A     -1.473086
      10A     -1.368169    11A     -1.084830    12A     -1.018587
      13A     -0.967548    14A     -0.881053    15A     -0.800722
      16A     -0.771358    17A     -0.700162    18A     -0.683458
      19A     -0.675145    20A     -0.633397    21A     -0.605116
      22A     -0.581788    23A     -0.573905    24A     -0.542471
      25A     -0.535597    26A     -0.518834    27A     -0.506020
      28A     -0.484342    29A     -0.466231    30A     -0.459834
      31A     -0.455646    32A     -0.417288

  @DF-RHF Final Energy:  -383.93103055568821

   => Energetics <=

    Nuclear Repulsion Energy =            393.8902554345450540
    One-Electron Energy =               -1303.9023446795363270
    Two-Electron Energy =                 526.0810586893039726
    DFT Exchange-Correlation Energy =       0.0000000000000000
    Empirical Dispersion Energy =           0.0000000000000000
    PCM Polarization Energy =               0.0000000000000000
    EFP Energy =                            0.0000000000000000
    Total Energy =                       -383.9310305556873573

  Mulliken Charges: (a.u.)
   Center  Symbol    Alpha    Beta     Spin     Total
       1     O     4.28753  4.28753  0.00000 -0.57505
       2     C     2.60256  2.60256  0.00000  0.79488
       3     C     3.21063  3.21063  0.00000 -0.42126
       4     O     4.30710  4.30710  0.00000 -0.61420
       5     C     3.15257  3.15257  0.00000 -0.30515
       6     H     0.39767  0.39767  0.00000  0.20466
       7     H     0.39951  0.39951  0.00000  0.20098
       8     C     3.17073  3.17073  0.00000 -0.34146
       9     H     0.41802  0.41802  0.00000  0.16396
      10     H     0.41669  0.41669  0.00000  0.16662
      11     C     3.23819  3.23819  0.00000 -0.47637
      12     H     0.43066  0.43066  0.00000  0.13868
      13     H     0.37988  0.37988  0.00000  0.24024
      14     H     0.42715  0.42715  0.00000  0.14570
      15     H     0.42008  0.42008  0.00000  0.15984
      16     H     0.42267  0.42267  0.00000  0.15467
      17     C     3.09270  3.09270  0.00000 -0.18539
      18     H     0.40882  0.40882  0.00000  0.18235
      19     H     0.40788  0.40788  0.00000  0.18424
      20     H     0.40898  0.40898  0.00000  0.18204

   Total alpha = 32.00000, Total beta = 32.00000, Total charge = -0.00000
