  ==> Input File <==

--------------------------------------------------------------------------
set {
	reference rhf
	basis 6-31G*
}

set_num_threads( 4 )
memory 2 gb

molecule MOL {
0 1

H	 2.395175	 -1.769893	 0.753160
N	 1.409579	 -1.597586	 0.769668
C	 0.827918	 -1.852219	 -0.535531
C	 1.138508	 -0.243519	 1.216585
H	 1.038758	 -2.877358	 -0.820848
H	 1.234159	 -1.196384	 -1.309152
C	 -0.677053	 -1.643038	 -0.459793
H	 1.574270	 -0.103673	 2.200111
H	 1.563560	 0.509749	 0.549083
C	 -0.366656	 -0.035335	 1.291237
H	 -1.109671	 -2.399649	 0.201630
H	 -1.112304	 -1.777019	 -1.444756
N	 -0.975995	 -0.298722	 0.000000
H	 -0.577749	 0.991712	 1.570809
H	 -0.778478	 -0.684236	 2.069972
C	 -2.393863	 -0.024976	 0.000000
H	 -2.854032	 -0.467193	 -0.876721
H	 -2.854032	 -0.467193	 0.876721
H	 -2.623281	 1.044943	 0.000000

	symmetry c1
}
set optking {
	frozen_dihedral = ("
		7 13 16 19
	")
}

ee = optimize('scf')
oeprop('DIPOLE', 'QUADRUPOLE', 'MULLIKEN_CHARGES')
f=open( 'psi4out.xyz', 'w' )
f.write( "19  " )
f.write( str(ee) + "\n" )
f.write( MOL.save_string_xyz() )
f.close()
--------------------------------------------------------------------------

    Molecular point group: c1
  Charge       = 0
  Multiplicity = 1
  Basis Set: 6-31G*
  Basis Set:
  @DF-RHF Final Energy:  -305.19771730217747
    Total Energy =                       -305.1977173021772387
    Molecular point group: c1
  Basis Set: 6-31G*
  Basis Set:
  Basis Set: 6-31G*
  Basis Set:
  @DF-RHF Final Energy:  -305.19863061951554
    Total Energy =                       -305.1986306195152565
  Basis Set: 6-31G*
  Basis Set:
  Basis Set: 6-31G*
  Basis Set:
  @DF-RHF Final Energy:  -305.19873440471679
    Total Energy =                       -305.1987344047165038
  Basis Set: 6-31G*
  Basis Set:
  Charge       = 0
  Multiplicity = 1
  Basis Set: 6-31G*
  Basis Set:

    Orbital Energies (a.u.)
    -----------------------

    Doubly Occupied:

       1A    -15.539665     2A    -15.536561     3A    -11.238434
       4A    -11.238409     5A    -11.237256     6A    -11.237015
       7A    -11.234822     8A     -1.246657     9A     -1.185041
      10A     -1.023085    11A     -0.964598    12A     -0.860995
      13A     -0.857105    14A     -0.756316    15A     -0.690990
      16A     -0.633669    17A     -0.626084    18A     -0.607322
      19A     -0.603007    20A     -0.580140    21A     -0.543407
      22A     -0.530939    23A     -0.510724    24A     -0.489957
      25A     -0.466834    26A     -0.457094    27A     -0.363389
      28A     -0.342354

  @DF-RHF Final Energy:  -305.19873597363789

   => Energetics <=

    Nuclear Repulsion Energy =            339.7068111766910761
    One-Electron Energy =               -1086.6073643566214741
    Two-Electron Energy =                 441.7018172062923895
    DFT Exchange-Correlation Energy =       0.0000000000000000
    Empirical Dispersion Energy =           0.0000000000000000
    PCM Polarization Energy =               0.0000000000000000
    EFP Energy =                            0.0000000000000000
    Total Energy =                       -305.1987359736380085
    Molecular point group: c1
  Basis Set: 6-31G*
  Basis Set:

  -Total Gradient:
     Atom            X                  Y                   Z
    ------   -----------------  -----------------  -----------------
       1        0.000005811527     0.000005050192     0.000003722776
       2        0.000018822976    -0.000012612288     0.000023075853
       3       -0.000030627761     0.000059004385     0.000038696936
       4       -0.000023832232    -0.000001300363    -0.000061672538
       5       -0.000004708576    -0.000007773208    -0.000000112070
       6       -0.000014839250    -0.000002492178    -0.000001498000
       7        0.000158235469     0.000745630956    -0.002466544481
       8       -0.000002652742    -0.000006007476     0.000003317522
       9        0.000010229892    -0.000002923057    -0.000001175391
      10       -0.000025539373     0.000027209711     0.000110266452
      11        0.000024830512     0.000054498332    -0.000007110918
      12       -0.000011210967     0.000004261760    -0.000008858292
      13       -0.000213238708    -0.001163638273     0.002444422372
      14       -0.000000417977     0.000006532145     0.000004587723
      15       -0.000010882488    -0.000000170128    -0.000049749435
      16       -0.000047845208     0.000303197431     0.003371127950
      17        0.000061050605    -0.000020658823    -0.000019890973
      18        0.000024145982    -0.000010787272    -0.000007943598
      19        0.000082668318     0.000022978154    -0.003374661888

  **** Optimization is complete! (in 4 steps) ****
    Final optimized geometry and variables:
    Molecular point group: c1

    Geometry (in Angstrom), charge = 0, multiplicity = 1:

    H            2.559947125165    -0.939539520740     0.415780876754
    N            1.573513674201    -0.772635556526     0.436370636158
    C            0.987627247463    -1.035095578297    -0.865493782234
    C            1.297241155808     0.581520311559     0.879968414667
    H            1.210236612676    -2.057435277712    -1.152117947802
    H            1.381603233252    -0.373874654068    -1.640954348434
    C           -0.519698711048    -0.844800401992    -0.783685824585
    H            1.740208135023     0.728580570452     1.859263082238
    H            1.712039127792     1.334418711516     0.205618533482
    C           -0.208695985119     0.778690925957     0.965550857523
    H           -0.939685050705    -1.614101022230    -0.128557934059
    H           -0.954706028970    -0.974748715744    -1.768786257162
    N           -0.828325899654     0.492944028250    -0.313714958015
    H           -0.427134706981     1.807573794317     1.233773729631
    H           -0.608605007072     0.137107374103     1.756482069609
    C           -2.242094780735     0.789553788335    -0.319229820297
    H           -2.687160054458     0.417217243101    -1.235069267442
    H           -2.781236783456     0.343958446747     0.520768147060
    H           -2.395833891847     1.863690618679    -0.307189616796

  Mulliken Charges: (a.u.)
   Center  Symbol    Alpha    Beta     Spin     Total
       1     H     0.32945  0.32945  0.00000  0.34111
       2     N     3.85429  3.85429  0.00000 -0.70859
       3     C     3.06391  3.06391  0.00000 -0.12783
       4     C     3.06359  3.06359  0.00000 -0.12717
       5     H     0.41771  0.41771  0.00000  0.16459
       6     H     0.42788  0.42788  0.00000  0.14425
       7     C     3.05277  3.05277  0.00000 -0.10554
       8     H     0.41768  0.41768  0.00000  0.16464
       9     H     0.42788  0.42788  0.00000  0.14424
      10     C     3.05305  3.05305  0.00000 -0.10609
      11     H     0.42861  0.42861  0.00000  0.14277
      12     H     0.41884  0.41884  0.00000  0.16233
      13     N     3.79086  3.79086  0.00000 -0.58171
      14     H     0.41886  0.41886  0.00000  0.16229
      15     H     0.42811  0.42811  0.00000  0.14378
      16     C     3.13891  3.13891  0.00000 -0.27782
      17     H     0.41884  0.41884  0.00000  0.16231
      18     H     0.43229  0.43229  0.00000  0.13542
      19     H     0.41648  0.41648  0.00000  0.16704

   Total alpha = 28.00000, Total beta = 28.00000, Total charge =  0.00000
