  ==> Input File <==

--------------------------------------------------------------------------
set {
	reference rhf
	basis cc-pvtz
}

set_num_threads( 4 )
memory 2 gb

molecule MOL {
0 1

H	 0.897186	 -2.167456	 -0.134298
C	 0.453585	 -1.459561	 0.556544
N	 0.526300	 -0.128137	 0.000000
H	 1.018353	 -1.503268	 1.479131
H	 -0.565385	 -1.793439	 0.763418
C	 -0.247113	 0.037112	 -1.209233
H	 0.239896	 0.541154	 0.680942
H	 -0.996493	 -0.743733	 -1.271440
H	 0.397975	 -0.057351	 -2.073512
H	 -0.763794	 0.997171	 -1.271673

	symmetry c1
}
set optking {
	frozen_dihedral = ("
		2 3 6 8
	")
}

ee = optimize('scf')
oeprop('DIPOLE', 'QUADRUPOLE', 'MULLIKEN_CHARGES')
f=open( 'psi4out.xyz', 'w' )
f.write( "10  " )
f.write( str(ee) + "\n" )
f.write( MOL.save_string_xyz() )
f.close()
--------------------------------------------------------------------------

    Molecular point group: c1
  Charge       = 0
  Multiplicity = 1
  Basis Set: CC-PVTZ
  Basis Set:
  @DF-RHF Final Energy:  -134.28899896350740
    Total Energy =                       -134.2889989635074812
    Molecular point group: c1
  Basis Set: CC-PVTZ
  Basis Set:
  Basis Set: CC-PVTZ
  Basis Set:
  @DF-RHF Final Energy:  -134.28969290949635
    Total Energy =                       -134.2896929094964094
  Basis Set: CC-PVTZ
  Basis Set:
  Basis Set: CC-PVTZ
  Basis Set:
  @DF-RHF Final Energy:  -134.28979922859486
    Total Energy =                       -134.2897992285948021
  Basis Set: CC-PVTZ
  Basis Set:
  Charge       = 0
  Multiplicity = 1
  Basis Set: CC-PVTZ
  Basis Set:

    Orbital Energies (a.u.)
    -----------------------

    Doubly Occupied:

       1A    -15.531381     2A    -11.234475     3A    -11.234169
       4A     -1.198488     5A     -0.948278     6A     -0.854823
       7A     -0.661084     8A     -0.612648     9A     -0.590671
      10A     -0.543032    11A     -0.509108    12A     -0.506056
      13A     -0.362649

  @DF-RHF Final Energy:  -134.28980093315664

   => Energetics <=

    Nuclear Repulsion Energy =             84.5710448947326654
    One-Electron Energy =                -348.1479639780257571
    Two-Electron Energy =                 129.2871181501363651
    DFT Exchange-Correlation Energy =       0.0000000000000000
    Empirical Dispersion Energy =           0.0000000000000000
    PCM Polarization Energy =               0.0000000000000000
    EFP Energy =                            0.0000000000000000
    Total Energy =                       -134.2898009331567266
    Molecular point group: c1
  Basis Set: CC-PVTZ
  Basis Set:

  -Total Gradient:
     Atom            X                  Y                   Z
    ------   -----------------  -----------------  -----------------
       1        0.000004238524     0.000021713036    -0.000008172033
       2       -0.002314056635     0.000902534156     0.001535861598
       3        0.003862458729    -0.001848416174    -0.002725679734
       4        0.000000434396     0.000024497068    -0.000001107963
       5       -0.000008274481    -0.000002601218     0.000005239970
       6       -0.003984225365     0.003120167047     0.003099196302
       7        0.000052984966    -0.000035565549    -0.000020461485
       8        0.002433750978    -0.002207715935    -0.001885366000
       9       -0.000019796251     0.000026584403    -0.000008177396
      10       -0.000027514862    -0.000001196834     0.000008666742

  **** Optimization is complete! (in 4 steps) ****
    Final optimized geometry and variables:
    Molecular point group: c1

    Geometry (in Angstrom), charge = 0, multiplicity = 1:

    H            0.682992366801    -1.648839514636     0.100756186823
    C            0.238101289882    -0.933149954866     0.782974550456
    N            0.299712604409     0.393524275871     0.212374672935
    H            0.808798453995    -0.962017134005     1.702668458812
    H           -0.777797855095    -1.268933104918     0.998351377456
    C           -0.477286461036     0.558712898425    -1.003606427323
    H            0.004254028382     1.056388809063     0.893616908728
    H           -1.246509939636    -0.203417567094    -1.114849312946
    H            0.162548551656     0.485541021619    -1.877214864355
    H           -0.950660654979     1.531871245797    -1.027110888386

  Mulliken Charges: (a.u.)
   Center  Symbol    Alpha    Beta     Spin     Total
       1     H     0.45659  0.45659  0.00000  0.08682
       2     C     3.08337  3.08337  0.00000 -0.16674
       3     N     3.62935  3.62935  0.00000 -0.25869
       4     H     0.45294  0.45294  0.00000  0.09413
       5     H     0.47362  0.47362  0.00000  0.05277
       6     C     3.07655  3.07655  0.00000 -0.15310
       7     H     0.44119  0.44119  0.00000  0.11762
       8     H     0.47268  0.47268  0.00000  0.05463
       9     H     0.45623  0.45623  0.00000  0.08754
      10     H     0.45749  0.45749  0.00000  0.08502

   Total alpha = 13.00000, Total beta = 13.00000, Total charge =  0.00000
