                              Psi4 1.0.54 Driver

  ==> Input File <==

--------------------------------------------------------------------------
set {
	reference rhf
	basis cc-pvtz
}

set_num_threads( 4 )
memory 2 gb

molecule MOL {
0 1

O	 -1.486911	 -4.047914	 -0.232146
C	 -0.755388	 -3.768646	 -1.125631
C	 -0.194679	 -2.367462	 -1.268243
C	 -0.331167	 -4.792751	 -2.151308
C	 1.049535	 -2.180406	 -0.390869
H	 -0.965339	 -1.673033	 -0.958462
H	 0.051198	 -2.164276	 -2.305125
C	 1.630207	 -0.772146	 -0.501001
H	 0.778396	 -2.399888	 0.634089
H	 1.810554	 -2.903110	 -0.675208
C	 2.907848	 -0.545876	 0.309149
H	 0.877436	 -0.050915	 -0.192552
H	 1.841928	 -0.562662	 -1.545938
C	 3.373802	 0.906639	 0.372125
H	 3.699140	 -1.146831	 -0.127906
H	 2.764321	 -0.923458	 1.318191
H	 3.519798	 1.311927	 -0.623875
H	 4.316899	 0.983758	 0.900700
H	 2.661122	 1.540651	 0.885346
H	 -0.759996	 -4.532497	 -3.113790
H	 -0.670857	 -5.774541	 -1.859299
H	 0.746535	 -4.791901	 -2.270248

	symmetry c1
}
set optking {
	frozen_dihedral = ("
		12 8 11 15
	")
}

ee,wfn = optimize('scf', return_wfn=True)
oeprop( wfn, 'DIPOLE', 'QUADRUPOLE', 'MULLIKEN_CHARGES')
f=open( 'psi4out.xyz', 'w' )
f.write( "22  " )
f.write( str(ee) + "\n" )
f.write( MOL.save_string_xyz() )
f.close()
--------------------------------------------------------------------------

    Molecular point group: c1
  Charge       = 0
  Multiplicity = 1
  Basis Set: CC-PVTZ
  Basis Set:
  @DF-RHF Final Energy:  -348.22451655282237
    Total Energy =                       -348.2245165528225925
    Molecular point group: c1
  Basis Set: CC-PVTZ
  Basis Set:
  Basis Set: CC-PVTZ
  Basis Set:
  @DF-RHF Final Energy:  -348.22483140086553
    Total Energy =                       -348.2248314008659236
  Basis Set: CC-PVTZ
  Basis Set:
  Basis Set: CC-PVTZ
  Basis Set:
  @DF-RHF Final Energy:  -348.22457610977619
    Total Energy =                       -348.2245761097759669
  Basis Set: CC-PVTZ
  Basis Set:
  Basis Set: CC-PVTZ
  Basis Set:
  @DF-RHF Final Energy:  -348.22485711354290
    Total Energy =                       -348.2248571135430666
  Basis Set: CC-PVTZ
  Basis Set:
  Basis Set: CC-PVTZ
  Basis Set:
  @DF-RHF Final Energy:  -348.22479682954344
    Total Energy =                       -348.2247968295440614
  Basis Set: CC-PVTZ
  Basis Set:
  Basis Set: CC-PVTZ
  Basis Set:
  @DF-RHF Final Energy:  -348.22486007272164
    Total Energy =                       -348.2248600727214125
  Basis Set: CC-PVTZ
  Basis Set:
  Basis Set: CC-PVTZ
  Basis Set:
  @DF-RHF Final Energy:  -348.22486232745564
    Total Energy =                       -348.2248623274557531
  Basis Set: CC-PVTZ
  Basis Set:
  Charge       = 0
  Multiplicity = 1
  Basis Set: CC-PVTZ
  Basis Set:

    Orbital Energies (a.u.)
    -----------------------

    Doubly Occupied:

       1A    -20.536758     2A    -11.319282     3A    -11.228517
       4A    -11.227634     5A    -11.226886     6A    -11.220384
       7A    -11.218833     8A    -11.210802     9A     -1.396881
      10A     -1.097688    11A     -1.047273    12A     -1.001668
      13A     -0.939956    14A     -0.846381    15A     -0.799521
      16A     -0.733798    17A     -0.667481    18A     -0.649218
      19A     -0.633853    20A     -0.610380    21A     -0.594794
      22A     -0.584717    23A     -0.562818    24A     -0.553862
      25A     -0.529912    26A     -0.517626    27A     -0.498838
      28A     -0.486469    29A     -0.476263    30A     -0.470206
      31A     -0.462335    32A     -0.398469

  @DF-RHF Final Energy:  -348.22486258260221

   => Energetics <=

    Nuclear Repulsion Energy =            369.2822553617264703
    One-Electron Energy =               -1203.5152234509498612
    Two-Electron Energy =                 486.0081055066212343
    DFT Exchange-Correlation Energy =       0.0000000000000000
    Empirical Dispersion Energy =           0.0000000000000000
    PCM Polarization Energy =               0.0000000000000000
    EFP Energy =                            0.0000000000000000
    Total Energy =                       -348.2248625826021566
    Molecular point group: c1
  Basis Set: CC-PVTZ
  Basis Set:

  -Total Gradient:
     Atom            X                  Y                   Z
    ------   -----------------  -----------------  -----------------
       1        0.000010824064     0.000005911998     0.000010650555
       2        0.000012910572    -0.000019399214    -0.000005290843
       3        0.000007042027    -0.000002152617    -0.000005924143
       4       -0.000038429025    -0.000000773308    -0.000008115881
       5       -0.000007967665     0.000001497798     0.000014450120
       6        0.000000994572     0.000000902657    -0.000004387850
       7        0.000003424385     0.000006305820     0.000011009083
       8       -0.000672989009    -0.001143871635     0.001330280817
       9       -0.000005029049    -0.000001877103    -0.000015603080
      10       -0.000005378644    -0.000003967710    -0.000003366329
      11       -0.000459594892    -0.001478456024     0.001054581654
      12        0.000645829248     0.001197306467    -0.001281514722
      13        0.000000093461     0.000000128194     0.000005187237
      14       -0.000002052740     0.000008091536    -0.000003821769
      15        0.000486942875     0.001423227858    -0.001099513722
      16        0.000000184673    -0.000000234207    -0.000007189268
      17        0.000000262393     0.000000744690     0.000004810431
      18       -0.000006809337    -0.000002924261    -0.000003667353
      19        0.000005802781    -0.000000852866    -0.000001139865
      20        0.000012823216    -0.000001476028     0.000000864602
      21        0.000004216925     0.000008390044     0.000000592610
      22        0.000006899173     0.000003477908     0.000007107713

  **** Optimization is complete! (in 8 steps) ****
    Final optimized geometry and variables:
    Molecular point group: c1

    Geometry (in Angstrom), charge = 0, multiplicity = 1:

    O           -2.273408573564    -1.834241430861     0.417775515670
    C           -1.548889352966    -1.561510442921    -0.483288825874
    C           -0.985738243548    -0.162763351565    -0.638176423361
    C           -1.137818866069    -2.591706507488    -1.508198004692
    C            0.279350188152     0.019584492649     0.209234241458
    H           -1.746178570870     0.534732322589    -0.310959998474
    H           -0.762626300662     0.039088284201    -1.680515202523
    C            0.864504413245     1.423586201471     0.098873148395
    H            0.037110131386    -0.195753222746     1.244032454316
    H            1.030689822888    -0.706116246016    -0.091722932552
    C            2.139541039485     1.615035402255     0.916784613227
    H            0.122434111746     2.154932801248     0.408616568289
    H            1.078367227002     1.643935203193    -0.944555525711
    C            2.602837443309     3.067971690299     0.961610236545
    H            2.932568338655     1.008014238216     0.489025068193
    H            1.980939036467     1.255576823156     1.929142115451
    H            2.785303636502     3.451644236868    -0.036862143592
    H            3.522020163674     3.169013563718     1.526874706618
    H            1.856467539267     3.702690481610     1.427106977825
    H           -1.579299680996    -2.336692968629    -2.466335182974
    H           -1.474484554630    -3.571471574823    -1.206161241135
    H           -0.061845111767    -2.592562692593    -1.641443993044

  Mulliken Charges: (a.u.)
   Center  Symbol    Alpha    Beta     Spin     Total
       1     O     4.17806  4.17806  0.00000 -0.35612
       2     C     2.85836  2.85836  0.00000  0.28328
       3     C     3.09789  3.09789  0.00000 -0.19578
       4     C     3.15521  3.15521  0.00000 -0.31042
       5     C     3.10078  3.10078  0.00000 -0.20157
       6     H     0.43903  0.43903  0.00000  0.12194
       7     H     0.44923  0.44923  0.00000  0.10153
       8     C     3.08807  3.08807  0.00000 -0.17613
       9     H     0.44059  0.44059  0.00000  0.11882
      10     H     0.45232  0.45232  0.00000  0.09536
      11     C     3.08468  3.08468  0.00000 -0.16937
      12     H     0.45216  0.45216  0.00000  0.09569
      13     H     0.45436  0.45436  0.00000  0.09128
      14     C     3.15017  3.15017  0.00000 -0.30035
      15     H     0.45406  0.45406  0.00000  0.09189
      16     H     0.45275  0.45275  0.00000  0.09450
      17     H     0.45529  0.45529  0.00000  0.08943
      18     H     0.44759  0.44759  0.00000  0.10482
      19     H     0.45417  0.45417  0.00000  0.09165
      20     H     0.44835  0.44835  0.00000  0.10330
      21     H     0.43600  0.43600  0.00000  0.12799
      22     H     0.45088  0.45088  0.00000  0.09825

   Total alpha = 32.00000, Total beta = 32.00000, Total charge = -0.00000

*** Psi4 exiting successfully. Buy a developer a beer!
