  ==> Input File <==

--------------------------------------------------------------------------
set {
	reference rhf
	basis cc-pvtz
}

set_num_threads( 4 )
memory 2 gb

molecule MOL {
0 1

H	 2.667601	 -0.332798	 -0.892200
N	 1.692040	 -0.130350	 -0.906508
C	 1.291090	 0.543904	 0.311878
C	 0.921633	 -1.338017	 -1.125268
H	 1.871202	 1.452098	 0.421445
H	 1.457686	 -0.069902	 1.199069
C	 -0.184297	 0.891856	 0.232909
H	 1.234028	 -1.793505	 -2.057089
H	 1.064886	 -2.070723	 -0.328876
C	 -0.553270	 -0.987598	 -1.202353
H	 -0.333253	 1.631171	 -0.559439
H	 -0.499794	 1.342996	 1.166212
N	 -0.976577	 -0.298712	 -0.000000
H	 -1.135558	 -1.895422	 -1.306835
H	 -0.727645	 -0.377761	 -2.093579
C	 -2.391156	 -0.021003	 -0.000000
H	 -2.853954	 -0.458728	 -0.875714
H	 -2.853954	 -0.458728	 0.875714
H	 -2.614037	 1.049773	 -0.000000

	symmetry c1
}
set optking {
	frozen_dihedral = ("
		7 13 16 19
	")
}

ee = optimize('scf')
oeprop('DIPOLE', 'QUADRUPOLE', 'MULLIKEN_CHARGES')
f=open( 'psi4out.xyz', 'w' )
f.write( "19  " )
f.write( str(ee) + "\n" )
f.write( MOL.save_string_xyz() )
f.close()
--------------------------------------------------------------------------

    Molecular point group: c1
  Charge       = 0
  Multiplicity = 1
  Basis Set: CC-PVTZ
  Basis Set:
  @DF-RHF Final Energy:  -305.30252932552560
    Total Energy =                       -305.3025293255255974
    Molecular point group: c1
  Basis Set: CC-PVTZ
  Basis Set:
  Basis Set: CC-PVTZ
  Basis Set:
  @DF-RHF Final Energy:  -305.30296666613413
    Total Energy =                       -305.3029666661338410
  Basis Set: CC-PVTZ
  Basis Set:
  Basis Set: CC-PVTZ
  Basis Set:
  @DF-RHF Final Energy:  -305.30306496354075
    Total Energy =                       -305.3030649635404075
  Basis Set: CC-PVTZ
  Basis Set:
  Basis Set: CC-PVTZ
  Basis Set:
  @DF-RHF Final Energy:  -305.30306730713863
    Total Energy =                       -305.3030673071387469
  Basis Set: CC-PVTZ
  Basis Set:
  Charge       = 0
  Multiplicity = 1
  Basis Set: CC-PVTZ
  Basis Set:

    Orbital Energies (a.u.)
    -----------------------

    Doubly Occupied:

       1A    -15.533476     2A    -15.530603     3A    -11.236484
       4A    -11.236459     5A    -11.235622     6A    -11.235604
       7A    -11.232868     8A     -1.246153     9A     -1.185116
      10A     -1.023399    11A     -0.964841    12A     -0.860991
      13A     -0.859170    14A     -0.756972    15A     -0.691851
      16A     -0.631796    17A     -0.624195    18A     -0.606078
      19A     -0.605586    20A     -0.581621    21A     -0.544212
      22A     -0.535036    23A     -0.512809    24A     -0.488367
      25A     -0.466954    26A     -0.457045    27A     -0.365342
      28A     -0.342271

  @DF-RHF Final Energy:  -305.30306762037122

   => Energetics <=

    Nuclear Repulsion Energy =            339.7460565697867310
    One-Electron Energy =               -1086.9164064014896667
    Two-Electron Energy =                 441.8672822113315988
    DFT Exchange-Correlation Energy =       0.0000000000000000
    Empirical Dispersion Energy =           0.0000000000000000
    PCM Polarization Energy =               0.0000000000000000
    EFP Energy =                            0.0000000000000000
    Total Energy =                       -305.3030676203712801
    Molecular point group: c1
  Basis Set: CC-PVTZ
  Basis Set:

  -Total Gradient:
     Atom            X                  Y                   Z
    ------   -----------------  -----------------  -----------------
       1       -0.000000378204    -0.000002008139     0.000003617972
       2       -0.000010032335     0.000005373817    -0.000004528576
       3        0.000007265641    -0.000001998522     0.000006483377
       4        0.000008390419    -0.000004947109    -0.000010029680
       5        0.000007885279     0.000001826174    -0.000001159863
       6       -0.000003845940     0.000003987758     0.000000666562
       7        0.000020766415     0.000235607121    -0.001080285825
       8        0.000011419601    -0.000003079300    -0.000003957548
       9       -0.000008094649     0.000002384506    -0.000003274706
      10       -0.000000067830    -0.000003107154    -0.000021951349
      11       -0.000006026512    -0.000008111650     0.000002608714
      12        0.000002133594    -0.000004915422    -0.000002481580
      13       -0.000022151060    -0.000333088736     0.001939013613
      14        0.000005148248     0.000004789739     0.000003298428
      15        0.000000521810    -0.000002608730     0.000007900290
      16       -0.000076341754     0.000159620967    -0.002288278484
      17        0.000009391143    -0.000009805763     0.000005739586
      18        0.000015592117    -0.000004565486    -0.000001272160
      19        0.000038424020    -0.000035354071     0.001447891228

  **** Optimization is complete! (in 5 steps) ****
    Final optimized geometry and variables:
    Molecular point group: c1

    Geometry (in Angstrom), charge = 0, multiplicity = 1:

    H            2.711711497374    -0.153964503306    -0.488499568848
    N            1.737219574065     0.053107744998    -0.512215161761
    C            1.328279070199     0.732235058227     0.700481159412
    C            0.963102264397    -1.151301049413    -0.734230567846
    H            1.911835417645     1.637977028544     0.813776580270
    H            1.483121147003     0.119462582827     1.590675715106
    C           -0.144517137005     1.087597686001     0.607259270701
    H            1.283047750821    -1.612731756232    -1.660762105911
    H            1.094035722104    -1.881100211535     0.067152141951
    C           -0.509736536806    -0.795677597397    -0.828383028170
    H           -0.281598514384     1.830295174843    -0.183939775801
    H           -0.462760438021     1.538997255277     1.539609558072
    N           -0.941485629269    -0.097856261648     0.366119768023
    H           -1.089756174995    -1.704864545732    -0.930721936130
    H           -0.672423988136    -0.194918986351    -1.727963901019
    C           -2.371976597341     0.157585604819     0.403185217705
    H           -2.868588947988    -0.250744357953    -0.469103437123
    H           -2.825448169622    -0.290116458516     1.281470501159
    H           -2.589661055227     1.221020022745     0.432280608927

  Mulliken Charges: (a.u.)
   Center  Symbol    Alpha    Beta     Spin     Total
       1     H     0.43998  0.43998  0.00000  0.12003
       2     N     3.64279  3.64279  0.00000 -0.28557
       3     C     3.04206  3.04206  0.00000 -0.08412
       4     C     3.04203  3.04203  0.00000 -0.08405
       5     H     0.45274  0.45274  0.00000  0.09452
       6     H     0.46603  0.46603  0.00000  0.06793
       7     C     3.03524  3.03524  0.00000 -0.07048
       8     H     0.45273  0.45273  0.00000  0.09454
       9     H     0.46608  0.46608  0.00000  0.06785
      10     C     3.03489  3.03489  0.00000 -0.06979
      11     H     0.46846  0.46846  0.00000  0.06309
      12     H     0.45358  0.45358  0.00000  0.09284
      13     N     3.61738  3.61738  0.00000 -0.23476
      14     H     0.45371  0.45371  0.00000  0.09258
      15     H     0.46860  0.46860  0.00000  0.06279
      16     C     3.09141  3.09141  0.00000 -0.18281
      17     H     0.45968  0.45968  0.00000  0.08064
      18     H     0.45042  0.45042  0.00000  0.09916
      19     H     0.46220  0.46220  0.00000  0.07560

   Total alpha = 28.00000, Total beta = 28.00000, Total charge = -0.00000
