                              Psi4 1.0.54 Driver

  ==> Input File <==

--------------------------------------------------------------------------
set {
	reference rhf
	basis cc-pvtz
}

set_num_threads( 4 )
memory 2 gb

molecule MOL {
0 1

O	 2.868453	 1.353349	 -0.000734
C	 2.841259	 0.166180	 -0.000295
C	 1.542794	 -0.614730	 -0.000853
C	 4.113372	 -0.651103	 0.000743
C	 0.288398	 0.247429	 0.000314
H	 1.557171	 -1.273139	 -0.866508
H	 1.557484	 -1.274998	 0.863344
C	 0.598676	 1.734366	 0.148153
H	 -0.363559	 -0.074638	 0.804266
H	 -0.262042	 0.075378	 -0.917590
C	 -0.650895	 2.610091	 0.151062
H	 1.152859	 1.899067	 1.069581
H	 1.254482	 2.049855	 -0.660331
C	 -0.348940	 4.098610	 0.298950
H	 -1.306956	 2.295648	 0.959036
H	 -1.205127	 2.446748	 -0.769955
C	 -1.602489	 4.967172	 0.301083
H	 0.204016	 4.262979	 1.219907
H	 0.305760	 4.414084	 -0.508987
H	 -2.262635	 4.699291	 1.119305
H	 -1.353379	 6.016750	 0.407618
H	 -2.159991	 4.851718	 -0.622447
H	 4.145311	 -1.294584	 -0.871587
H	 4.970080	 0.004978	 -0.000091
H	 4.145223	 -1.291980	 0.874988

	symmetry c1
}
set optking {
	frozen_dihedral = ("
		9 5 3 6
	")
}

ee,wfn = optimize('scf', return_wfn=True)
oeprop( wfn, 'DIPOLE', 'QUADRUPOLE', 'MULLIKEN_CHARGES')
f=open( 'psi4out.xyz', 'w' )
f.write( "25  " )
f.write( str(ee) + "\n" )
f.write( MOL.save_string_xyz() )
f.close()
--------------------------------------------------------------------------

    Molecular point group: c1
  Charge       = 0
  Multiplicity = 1
  Basis Set: CC-PVTZ
  Basis Set:
  @DF-RHF Final Energy:  -387.23306607211146
    Total Energy =                       -387.2330660721117965
    Molecular point group: c1
  Basis Set: CC-PVTZ
  Basis Set:
  Basis Set: CC-PVTZ
  Basis Set:
  @DF-RHF Final Energy:  -387.25478626272860
    Total Energy =                       -387.2547862627291124
  Basis Set: CC-PVTZ
  Basis Set:
  Basis Set: CC-PVTZ
  Basis Set:
  @DF-RHF Final Energy:  -387.25907403451964
    Total Energy =                       -387.2590740345194718
  Basis Set: CC-PVTZ
  Basis Set:
  Basis Set: CC-PVTZ
  Basis Set:
  @DF-RHF Final Energy:  -387.25829633012233
    Total Energy =                       -387.2582963301225618
  Basis Set: CC-PVTZ
  Basis Set:
  @DF-RHF Final Energy:  -387.26047755249340
    Total Energy =                       -387.2604775524933984
  @DF-RHF Final Energy:  -387.26111834413950
    Total Energy =                       -387.2611183441392768
  @DF-RHF Final Energy:  -387.26127061830334
    Total Energy =                       -387.2612706183041382
  @DF-RHF Final Energy:  -387.26134722001399
    Total Energy =                       -387.2613472200139313
  @DF-RHF Final Energy:  -387.26142125856990
    Total Energy =                       -387.2614212585697260
  @DF-RHF Final Energy:  -387.26136642628359
    Total Energy =                       -387.2613664262839848
  @DF-RHF Final Energy:  -387.26165675470338
    Total Energy =                       -387.2616567547033810
  @DF-RHF Final Energy:  -387.26192393552020
    Total Energy =                       -387.2619239355201444
  @DF-RHF Final Energy:  -387.26236548546763
    Total Energy =                       -387.2623654854675124
  @DF-RHF Final Energy:  -387.26264824043824
    Total Energy =                       -387.2626482404383523
  @DF-RHF Final Energy:  -387.26280173913460
    Total Energy =                       -387.2628017391348294
  @DF-RHF Final Energy:  -387.26287212061288
    Total Energy =                       -387.2628721206125419
  @DF-RHF Final Energy:  -387.26299612805610
    Total Energy =                       -387.2629961280566704
  @DF-RHF Final Energy:  -387.26197501605043
    Total Energy =                       -387.2619750160505419
  @DF-RHF Final Energy:  -387.26310496508910
    Total Energy =                       -387.2631049650894965
  @DF-RHF Final Energy:  -387.26335304755781
    Total Energy =                       -387.2633530475573025
  @DF-RHF Final Energy:  -387.26349640856870
    Total Energy =                       -387.2634964085689262
  @DF-RHF Final Energy:  -387.26371706974152
    Total Energy =                       -387.2637170697413467
  @DF-RHF Final Energy:  -387.26381580875511
    Total Energy =                       -387.2638158087552256
  @DF-RHF Final Energy:  -387.26385783839498
    Total Energy =                       -387.2638578383953245
  Basis Set: CC-PVTZ
  Basis Set:
  @DF-RHF Final Energy:  -387.26389241861148
    Total Energy =                       -387.2638924186114764
  Basis Set: CC-PVTZ
  Basis Set:
  Basis Set: CC-PVTZ
  Basis Set:
  @DF-RHF Final Energy:  -387.26389639012297
    Total Energy =                       -387.2638963901229090
  Basis Set: CC-PVTZ
  Basis Set:
  Basis Set: CC-PVTZ
  Basis Set:
  @DF-RHF Final Energy:  -387.26389771537373
    Total Energy =                       -387.2638977153736732
  Basis Set: CC-PVTZ
  Basis Set:
  Charge       = 0
  Multiplicity = 1
  Basis Set: CC-PVTZ
  Basis Set:

    Orbital Energies (a.u.)
    -----------------------

    Doubly Occupied:

       1A    -20.535862     2A    -11.319711     3A    -11.228173
       4A    -11.227471     5A    -11.226427     6A    -11.215472
       7A    -11.214066     8A    -11.213448     9A    -11.207075
      10A     -1.396753    11A     -1.095546    12A     -1.055832
      13A     -1.011881    14A     -0.971297    15A     -0.894333
      16A     -0.821395    17A     -0.794437    18A     -0.724684
      19A     -0.665741    20A     -0.643702    21A     -0.637259
      22A     -0.618264    23A     -0.605442    24A     -0.584871
      25A     -0.566678    26A     -0.562464    27A     -0.540770
      28A     -0.539646    29A     -0.512615    30A     -0.498161
      31A     -0.487808    32A     -0.472387    33A     -0.466839
      34A     -0.462960    35A     -0.445715    36A     -0.398544

  @DF-RHF Final Energy:  -387.26389790623330

   => Energetics <=

    Nuclear Repulsion Energy =            452.6226587885689696
    One-Electron Energy =               -1422.0456485126067037
    Two-Electron Energy =                 582.1590918178040965
    DFT Exchange-Correlation Energy =       0.0000000000000000
    Empirical Dispersion Energy =           0.0000000000000000
    PCM Polarization Energy =               0.0000000000000000
    EFP Energy =                            0.0000000000000000
    Total Energy =                       -387.2638979062336375
    Molecular point group: c1
  Basis Set: CC-PVTZ
  Basis Set:

  -Total Gradient:
     Atom            X                  Y                   Z
    ------   -----------------  -----------------  -----------------
       1       -0.000004642375    -0.000008066083     0.000011329604
       2        0.000008812828     0.000002558967     0.000001431221
       3       -0.001072542818    -0.001645342810     0.001311414291
       4       -0.000010297363     0.000018868311     0.000013552430
       5       -0.001159478064    -0.000715377886    -0.001877343416
       6        0.001065820323     0.001499462962    -0.000825935745
       7       -0.000001282442     0.000000486823    -0.000000146230
       8        0.000010705301     0.000002355030     0.000004500286
       9        0.001159379685     0.000858253890     0.001388214941
      10        0.000004507973     0.000001112706    -0.000000760803
      11       -0.000004670739     0.000002330641    -0.000005104765
      12       -0.000001349383    -0.000000676887    -0.000003264256
      13       -0.000004622140    -0.000002364832     0.000001166413
      14       -0.000000813130    -0.000001472767     0.000002218856
      15        0.000003204097     0.000000414885    -0.000002640580
      16        0.000000623619    -0.000000678968     0.000000107522
      17        0.000002009194    -0.000000257618     0.000001774761
      18       -0.000000743080     0.000002498113    -0.000000517823
      19       -0.000002593836    -0.000001367589     0.000001100968
      20        0.000001105001     0.000000130645    -0.000001694812
      21       -0.000000661276     0.000000645585     0.000000345618
      22        0.000002111206    -0.000001052973     0.000000936698
      23        0.000000539209    -0.000003179303    -0.000003594434
      24       -0.000001469020    -0.000001596507    -0.000004604784
      25        0.000006347233    -0.000007684335    -0.000012485962

  **** Optimization is complete! (in 28 steps) ****
    Final optimized geometry and variables:
    Molecular point group: c1

    Geometry (in Angstrom), charge = 0, multiplicity = 1:

    O            2.032672966542    -0.900097735688    -1.661349057848
    C            1.681905197388    -1.530825343005    -0.717623809033
    C            0.291401098846    -2.140719790125    -0.654277326092
    C            2.608159231649    -1.784797271263     0.447640279392
    C           -0.852371876107    -1.140780520758    -0.316037886673
    H            0.118958784484    -2.558345167312    -1.637194982371
    H            0.289862866364    -2.954985857015     0.059129139415
    C           -0.436052429303     0.257208464705     0.145166222990
    H           -1.461167809019    -1.581310434060     0.465405105513
    H           -1.490707436871    -1.038026779559    -1.184447342155
    C           -1.638650514433     1.133441235429     0.485007927576
    H            0.203473146913     0.183963940037     1.021735034225
    H            0.152105232294     0.738775301988    -0.626728979097
    C           -1.252602269611     2.537601578883     0.941448902353
    H           -2.229361336743     0.654215999461     1.262425876231
    H           -2.285271934358     1.206404016121    -0.386178432708
    C           -2.457292819227     3.411013130224     1.275384057060
    H           -0.606987749008     2.467191026301     1.812733818954
    H           -0.663794295265     3.017294505577     0.164887231474
    H           -3.048694064334     2.974431360756     2.073503780728
    H           -2.148862404446     4.399510137600     1.595716017100
    H           -3.105025044937     3.530232767244     0.413236569176
    H            2.857586141362    -2.840917615080     0.478358503543
    H            3.511712669517    -1.204854477968     0.337946670822
    H            2.120716701346    -1.544925984009     1.385485871148

  Mulliken Charges: (a.u.)
   Center  Symbol    Alpha    Beta     Spin     Total
       1     O     4.18420  4.18420  0.00000 -0.36841
       2     C     2.84714  2.84714  0.00000  0.30572
       3     C     3.10926  3.10926  0.00000 -0.21852
       4     C     3.15444  3.15444  0.00000 -0.30889
       5     C     3.09349  3.09349  0.00000 -0.18699
       6     H     0.43773  0.43773  0.00000  0.12454
       7     H     0.44657  0.44657  0.00000  0.10686
       8     C     3.10612  3.10612  0.00000 -0.21224
       9     H     0.44931  0.44931  0.00000  0.10138
      10     H     0.44609  0.44609  0.00000  0.10782
      11     C     3.08819  3.08819  0.00000 -0.17638
      12     H     0.45452  0.45452  0.00000  0.09095
      13     H     0.43747  0.43747  0.00000  0.12506
      14     C     3.08343  3.08343  0.00000 -0.16687
      15     H     0.45587  0.45587  0.00000  0.08826
      16     H     0.45355  0.45355  0.00000  0.09289
      17     C     3.15099  3.15099  0.00000 -0.30199
      18     H     0.45552  0.45552  0.00000  0.08895
      19     H     0.45209  0.45209  0.00000  0.09581
      20     H     0.45579  0.45579  0.00000  0.08842
      21     H     0.44802  0.44802  0.00000  0.10396
      22     H     0.45467  0.45467  0.00000  0.09066
      23     H     0.44740  0.44740  0.00000  0.10520
      24     H     0.43677  0.43677  0.00000  0.12647
      25     H     0.45134  0.45134  0.00000  0.09733

   Total alpha = 36.00000, Total beta = 36.00000, Total charge = -0.00000

*** Psi4 exiting successfully. Buy a developer a beer!
