  ==> Input File <==

--------------------------------------------------------------------------
set {
	reference rhf
	basis 6-31G*
}

set_num_threads( 4 )
memory 2 gb

molecule MOL {
0 1

H	 2.781702	 0.803084	 -0.177891
N	 2.332695	 -0.069570	 0.000000
C	 0.936681	 -0.007078	 0.000000
H	 2.710619	 -0.784841	 -0.583384
C	 0.227108	 -0.002120	 -1.198267
C	 0.227108	 -0.002120	 1.198267
H	 0.761569	 -0.014657	 -2.132680
C	 -1.156334	 0.010459	 -1.192360
H	 0.761569	 -0.014657	 2.132680
C	 -1.156334	 0.010459	 1.192360
H	 -1.684791	 0.014915	 -2.129421
C	 -1.862085	 0.017996	 0.000000
H	 -1.684791	 0.014915	 2.129421
H	 -2.936703	 0.028387	 0.000000

	symmetry c1
}
set optking {
	frozen_dihedral = ("
		1 2 3 5
	")
}

ee = optimize('scf')
oeprop('DIPOLE', 'QUADRUPOLE', 'MULLIKEN_CHARGES')
f=open( 'psi4out.xyz', 'w' )
f.write( "14  " )
f.write( str(ee) + "\n" )
f.write( MOL.save_string_xyz() )
f.close()
--------------------------------------------------------------------------

    Molecular point group: c1
  Charge       = 0
  Multiplicity = 1
  Basis Set: 6-31G*
  Basis Set:
  @DF-RHF Final Energy:  -285.72288201774660
    Total Energy =                       -285.7228820177465423
    Molecular point group: c1
  Basis Set: 6-31G*
  Basis Set:
  Basis Set: 6-31G*
  Basis Set:
  @DF-RHF Final Energy:  -285.72475914738277
    Total Energy =                       -285.7247591473828834
  Basis Set: 6-31G*
  Basis Set:
  Basis Set: 6-31G*
  Basis Set:
  @DF-RHF Final Energy:  -285.72507065744026
    Total Energy =                       -285.7250706574402557
  Basis Set: 6-31G*
  Basis Set:
  Basis Set: 6-31G*
  Basis Set:
  @DF-RHF Final Energy:  -285.72509449667001
    Total Energy =                       -285.7250944966700672
  Basis Set: 6-31G*
  Basis Set:
  Charge       = 0
  Multiplicity = 1
  Basis Set: 6-31G*
  Basis Set:

    Orbital Energies (a.u.)
    -----------------------

    Doubly Occupied:

       1A    -15.548712     2A    -11.260257     3A    -11.229916
       4A    -11.228044     5A    -11.225467     6A    -11.224825
       7A    -11.220211     8A     -1.206999     9A     -1.126543
      10A     -1.011456    11A     -0.985693    12A     -0.826676
      13A     -0.806529    14A     -0.701010    15A     -0.661792
      16A     -0.645653    17A     -0.622059    18A     -0.589694
      19A     -0.582148    20A     -0.505970    21A     -0.496804
      22A     -0.490807    23A     -0.413862    24A     -0.331089
      25A     -0.319321

  @DF-RHF Final Energy:  -285.72509713336746

   => Energetics <=

    Nuclear Repulsion Energy =            272.3837170504406799
    One-Electron Energy =                -925.6945550475718392
    Two-Electron Energy =                 367.5857408637639310
    DFT Exchange-Correlation Energy =       0.0000000000000000
    Empirical Dispersion Energy =           0.0000000000000000
    PCM Polarization Energy =               0.0000000000000000
    EFP Energy =                            0.0000000000000000
    Total Energy =                       -285.7250971333671714
    Molecular point group: c1
  Basis Set: 6-31G*
  Basis Set:

  -Total Gradient:
     Atom            X                  Y                   Z
    ------   -----------------  -----------------  -----------------
       1        0.000048416083    -0.000342504696    -0.002123882765
       2       -0.000045803675     0.001265796169     0.002705497495
       3       -0.000098105407    -0.002576245862    -0.000372584487
       4       -0.000004010768     0.000016865398    -0.000033080216
       5       -0.000034628775     0.001694962280    -0.000092459719
       6        0.000178255058    -0.000038235098    -0.000043111889
       7       -0.000005333398    -0.000001499233     0.000018956386
       8        0.000077364485    -0.000068389358    -0.000037852264
       9        0.000010152748     0.000000605716     0.000001924800
      10       -0.000096951479    -0.000023593232    -0.000088272945
      11       -0.000026752469     0.000010115072     0.000006911621
      12       -0.000008371609     0.000066119606     0.000091587423
      13        0.000011638565     0.000001209087    -0.000009010414
      14       -0.000005869355    -0.000005205848    -0.000024623025

  **** Optimization is complete! (in 5 steps) ****
    Final optimized geometry and variables:
    Molecular point group: c1

    Geometry (in Angstrom), charge = 0, multiplicity = 1:

    H            2.741113799437     0.841489292997    -0.097898833930
    N            2.356865159758    -0.072527154536     0.050881894364
    C            0.927523757218    -0.038400277959     0.000286705766
    H            2.725319953844    -0.660998873966    -0.671049107020
    C            0.220943047471    -0.020009204857    -1.196372604341
    C            0.225852212290    -0.004107807470     1.196762517315
    H            0.756912070118    -0.038201700809    -2.130224329744
    C           -1.163949496956     0.016886919036    -1.195436953518
    H            0.777813848277    -0.026711628602     2.118325924768
    C           -1.158687834499     0.048765876653     1.197909434852
    H           -1.697852737658     0.023408167181    -2.129207353908
    C           -1.859040632158     0.055975554897     0.002449488092
    H           -1.689849778956     0.075363646563     2.132822007435
    H           -2.933825188768     0.089543517393     0.003599399637

  Mulliken Charges: (a.u.)
   Center  Symbol    Alpha    Beta     Spin     Total
       1     H     0.32362  0.32362  0.00000  0.35277
       2     N     3.93700  3.93700  0.00000 -0.87400
       3     C     2.90155  2.90155  0.00000  0.19690
       4     H     0.32668  0.32668  0.00000  0.34665
       5     C     3.11284  3.11284  0.00000 -0.22569
       6     C     3.09998  3.09998  0.00000 -0.19996
       7     H     0.40362  0.40362  0.00000  0.19276
       8     C     3.09847  3.09847  0.00000 -0.19695
       9     H     0.39341  0.39341  0.00000  0.21319
      10     C     3.09886  3.09886  0.00000 -0.19773
      11     H     0.40003  0.40003  0.00000  0.19994
      12     C     3.10374  3.10374  0.00000 -0.20749
      13     H     0.39967  0.39967  0.00000  0.20066
      14     H     0.40053  0.40053  0.00000  0.19894

   Total alpha = 25.00000, Total beta = 25.00000, Total charge =  0.00000
