  ==> Input File <==

--------------------------------------------------------------------------
set {
	reference rhf
	basis cc-pvtz
}

set_num_threads( 4 )
memory 2 gb

molecule MOL {
0 1

H	 -0.981235	 1.134417	 3.135377
O	 -0.763323	 0.728185	 2.317121
C	 -0.306966	 1.693284	 1.404794
C	 0.027642	 1.012027	 0.090274
H	 0.584752	 2.183497	 1.787281
H	 -1.060978	 2.461356	 1.256495
C	 -1.138737	 0.285728	 -0.581921
H	 0.825938	 0.300744	 0.275496
H	 0.427909	 1.765379	 -0.583864
C	 -1.933983	 -0.631436	 0.343653
H	 -0.763151	 -0.285569	 -1.422081
H	 -1.808359	 1.035291	 -0.992333
H	 -2.789188	 -1.049673	 -0.174718
H	 -1.335629	 -1.461368	 0.700418
H	 -2.305435	 -0.092167	 1.209725

	symmetry c1
}
set optking {
	frozen_dihedral = ("
		8 4 7 11
	")
}

ee = optimize('scf')
oeprop('DIPOLE', 'QUADRUPOLE', 'MULLIKEN_CHARGES')
f=open( 'psi4out.xyz', 'w' )
f.write( "15  " )
f.write( str(ee) + "\n" )
f.write( MOL.save_string_xyz() )
f.close()
--------------------------------------------------------------------------

    Molecular point group: c1
  Charge       = 0
  Multiplicity = 1
  Basis Set: CC-PVTZ
  Basis Set:
  @DF-RHF Final Energy:  -232.22738215422925
    Total Energy =                       -232.2273821542290193
    Molecular point group: c1
  Basis Set: CC-PVTZ
  Basis Set:
  Basis Set: CC-PVTZ
  Basis Set:
  @DF-RHF Final Energy:  -232.23325467181510
    Total Energy =                       -232.2332546718150184
  Basis Set: CC-PVTZ
  Basis Set:
  Basis Set: CC-PVTZ
  Basis Set:
  @DF-RHF Final Energy:  -232.23469404766911
    Total Energy =                       -232.2346940476692225
  Basis Set: CC-PVTZ
  Basis Set:
  Basis Set: CC-PVTZ
  Basis Set:
  @DF-RHF Final Energy:  -232.23504633026937
    Total Energy =                       -232.2350463302694266
  Basis Set: CC-PVTZ
  Basis Set:
  Basis Set: CC-PVTZ
  Basis Set:
  @DF-RHF Final Energy:  -232.23510922537142
    Total Energy =                       -232.2351092253716160
  Basis Set: CC-PVTZ
  Basis Set:
  Basis Set: CC-PVTZ
  Basis Set:
  @DF-RHF Final Energy:  -232.23512383623833
    Total Energy =                       -232.2351238362383015
  Basis Set: CC-PVTZ
  Basis Set:
  Basis Set: CC-PVTZ
  Basis Set:
  @DF-RHF Final Energy:  -232.23512488356326
    Total Energy =                       -232.2351248835632305
  Basis Set: CC-PVTZ
  Basis Set:
  Charge       = 0
  Multiplicity = 1
  Basis Set: CC-PVTZ
  Basis Set:

    Orbital Energies (a.u.)
    -----------------------

    Doubly Occupied:

       1A    -20.546255     2A    -11.267037     3A    -11.211730
       4A    -11.210583     5A    -11.195147     6A     -1.364408
       7A     -1.063698     8A     -0.971134     9A     -0.866277
      10A     -0.776465    11A     -0.706302    12A     -0.649581
      13A     -0.607917    14A     -0.572610    15A     -0.558394
      16A     -0.539420    17A     -0.507938    18A     -0.475038
      19A     -0.465391    20A     -0.453938    21A     -0.429483

  @DF-RHF Final Energy:  -232.23512492789524

   => Energetics <=

    Nuclear Repulsion Energy =            192.8018046615011372
    One-Electron Energy =                -697.1963697209894235
    Two-Electron Energy =                 272.1594401315931009
    DFT Exchange-Correlation Energy =       0.0000000000000000
    Empirical Dispersion Energy =           0.0000000000000000
    PCM Polarization Energy =               0.0000000000000000
    EFP Energy =                            0.0000000000000000
    Total Energy =                       -232.2351249278951855
    Molecular point group: c1
  Basis Set: CC-PVTZ
  Basis Set:

  -Total Gradient:
     Atom            X                  Y                   Z
    ------   -----------------  -----------------  -----------------
       1        0.000000731616    -0.000004201624     0.000006378198
       2       -0.000005552087     0.000019107186     0.000004041790
       3        0.000015591213    -0.000021191767     0.000006781598
       4       -0.001579111793    -0.001293358174     0.003687580478
       5        0.000000407053     0.000004299831     0.000003352582
       6        0.000002434060    -0.000006640164    -0.000002767120
       7       -0.000001730663     0.003088092596    -0.002779125412
       8        0.001306743428     0.000639112554    -0.002669144160
       9        0.000001275400    -0.000001222377    -0.000002706897
      10       -0.000000559352    -0.000003549627     0.000006989076
      11        0.000270772756    -0.002415274147     0.001747218552
      12       -0.000002746780     0.000000179922    -0.000004284350
      13       -0.000004134648    -0.000004511387    -0.000002263978
      14       -0.000003672015     0.000000892062    -0.000002011777
      15       -0.000000448185    -0.000001734884    -0.000000038578

  **** Optimization is complete! (in 8 steps) ****
    Final optimized geometry and variables:
    Molecular point group: c1

    Geometry (in Angstrom), charge = 0, multiplicity = 1:

    H            0.098222851022     0.631112640854     2.469478037212
    O            0.296381586761     0.168812338083     1.676181016943
    C            0.489844390523     1.079627601784     0.624918468603
    C            0.811662068969     0.332647640107    -0.657499937705
    H            1.314868183780     1.746254016325     0.861924403996
    H           -0.396954006777     1.695356967732     0.484076994832
    C           -0.362965649930    -0.326671078385    -1.387438456261
    H            1.584976841548    -0.400891651796    -0.452406227378
    H            1.260417258877     1.049547448028    -1.340421031890
    C           -1.216546786517    -1.284057284123    -0.557252214806
    H            0.045999025083    -0.887230520235    -2.222630018793
    H           -0.999380001693     0.446081647550    -1.809771458903
    H           -1.963706464849    -1.756685710710    -1.185757979020
    H           -0.609761102432    -2.063930623533    -0.112070469503
    H           -1.728303904632    -0.775841214758     0.248409270005

  Mulliken Charges: (a.u.)
   Center  Symbol    Alpha    Beta     Spin     Total
       1     H     0.39593  0.39593  0.00000  0.20814
       2     O     4.19788  4.19788  0.00000 -0.39575
       3     C     2.98071  2.98071  0.00000  0.03858
       4     C     3.09453  3.09453  0.00000 -0.18906
       5     H     0.46015  0.46015  0.00000  0.07970
       6     H     0.47082  0.47082  0.00000  0.05836
       7     C     3.09235  3.09235  0.00000 -0.18470
       8     H     0.45025  0.45025  0.00000  0.09950
       9     H     0.45069  0.45069  0.00000  0.09862
      10     C     3.14039  3.14039  0.00000 -0.28077
      11     H     0.45126  0.45126  0.00000  0.09748
      12     H     0.45563  0.45563  0.00000  0.08873
      13     H     0.45284  0.45284  0.00000  0.09432
      14     H     0.45257  0.45257  0.00000  0.09487
      15     H     0.45400  0.45400  0.00000  0.09199

   Total alpha = 21.00000, Total beta = 21.00000, Total charge = -0.00000
