  ==> Input File <==

--------------------------------------------------------------------------
set {
	reference rhf
	basis cc-pvtz
}

set_num_threads( 4 )
memory 2 gb

molecule MOL {
0 1

O	 -0.988175	 -1.402891	 0.050086
C	 -0.675048	 -0.248293	 -0.009686
C	 -1.742492	 0.826599	 -0.011538
N	 0.622280	 0.144970	 -0.099307
H	 -1.692153	 1.431066	 -0.908439
H	 -2.698310	 0.331559	 0.031353
H	 -1.642148	 1.483784	 0.843455
C	 1.353933	 -0.131266	 -1.317636
C	 1.432296	 0.517795	 1.035871
H	 2.003517	 0.704784	 -1.546294
H	 0.663617	 -0.278661	 -2.128141
H	 1.967937	 -1.022519	 -1.216150
H	 2.145090	 1.273385	 0.731497
H	 0.837115	 0.933524	 1.830746
H	 1.991498	 -0.327441	 1.430730

	symmetry c1
}
set optking {
	frozen_dihedral = ("
		8 4 2 3
	")
}

ee = optimize('scf')
oeprop('DIPOLE', 'QUADRUPOLE', 'MULLIKEN_CHARGES')
f=open( 'psi4out.xyz', 'w' )
f.write( "15  " )
f.write( str(ee) + "\n" )
f.write( MOL.save_string_xyz() )
f.close()
--------------------------------------------------------------------------

    Molecular point group: c1
  Charge       = 0
  Multiplicity = 1
  Basis Set: CC-PVTZ
  Basis Set:
  @DF-RHF Final Energy:  -286.10236242244599
    Total Energy =                       -286.1023624224461059
    Molecular point group: c1
  Basis Set: CC-PVTZ
  Basis Set:
  Basis Set: CC-PVTZ
  Basis Set:
  @DF-RHF Final Energy:  -286.10618767367652
    Total Energy =                       -286.1061876736765726
  Basis Set: CC-PVTZ
  Basis Set:
  Basis Set: CC-PVTZ
  Basis Set:
  @DF-RHF Final Energy:  -286.10727505614227
    Total Energy =                       -286.1072750561421003
  Basis Set: CC-PVTZ
  Basis Set:
  Basis Set: CC-PVTZ
  Basis Set:
  @DF-RHF Final Energy:  -286.10844212682377
    Total Energy =                       -286.1084421268237747
  Basis Set: CC-PVTZ
  Basis Set:
  @DF-RHF Final Energy:  -286.11097052039412
    Total Energy =                       -286.1109705203946305
  @DF-RHF Final Energy:  -286.11223771848506
    Total Energy =                       -286.1122377184849483
  @DF-RHF Final Energy:  -286.11158389607328
    Total Energy =                       -286.1115838960733413
  @DF-RHF Final Energy:  -286.11442473367060
    Total Energy =                       -286.1144247336704325
  Basis Set: CC-PVTZ
  Basis Set:
  @DF-RHF Final Energy:  -286.11476591256968
    Total Energy =                       -286.1147659125699647
  Basis Set: CC-PVTZ
  Basis Set:
  Basis Set: CC-PVTZ
  Basis Set:
  @DF-RHF Final Energy:  -286.11485221000692
    Total Energy =                       -286.1148522100069158
  Basis Set: CC-PVTZ
  Basis Set:
  Basis Set: CC-PVTZ
  Basis Set:
  @DF-RHF Final Energy:  -286.11485901195420
    Total Energy =                       -286.1148590119546498
  Basis Set: CC-PVTZ
  Basis Set:
  Charge       = 0
  Multiplicity = 1
  Basis Set: CC-PVTZ
  Basis Set:

    Orbital Energies (a.u.)
    -----------------------

    Doubly Occupied:

       1A    -20.545384     2A    -15.556150     3A    -11.345429
       4A    -11.251280     5A    -11.246051     6A    -11.227836
       7A     -1.417739     8A     -1.230834     9A     -1.015150
      10A     -0.964455    11A     -0.894119    12A     -0.739099
      13A     -0.681652    14A     -0.660601    15A     -0.639789
      16A     -0.603933    17A     -0.583798    18A     -0.578115
      19A     -0.556626    20A     -0.537028    21A     -0.524256
      22A     -0.496478    23A     -0.428378    24A     -0.380805

  @DF-RHF Final Energy:  -286.11485934065945

   => Energetics <=

    Nuclear Repulsion Energy =            252.7789293645228383
    One-Electron Energy =                -889.5776073747401824
    Two-Electron Energy =                 350.6838186695582635
    DFT Exchange-Correlation Energy =       0.0000000000000000
    Empirical Dispersion Energy =           0.0000000000000000
    PCM Polarization Energy =               0.0000000000000000
    EFP Energy =                            0.0000000000000000
    Total Energy =                       -286.1148593406591090
    Molecular point group: c1
  Basis Set: CC-PVTZ
  Basis Set:

  -Total Gradient:
     Atom            X                  Y                   Z
    ------   -----------------  -----------------  -----------------
       1       -0.000014244117     0.000000376438     0.000008867742
       2        0.000401409934    -0.001795512824    -0.003053818869
       3        0.000055230969     0.000786825042     0.002498259984
       4       -0.001673887883     0.002767557838    -0.000968686700
       5       -0.000004449353    -0.000003353247    -0.000004389370
       6        0.000001884857     0.000005340776     0.000002105930
       7        0.000002362532     0.000005093476     0.000015035551
       8        0.001242509793    -0.001772149387     0.001489524199
       9       -0.000014585228     0.000004100655     0.000022140692
      10        0.000010889401    -0.000002464667    -0.000011679476
      11       -0.000000491419    -0.000006453226    -0.000007434575
      12       -0.000011027728     0.000003417856     0.000011471686
      13        0.000004128823     0.000000336318    -0.000000767634
      14        0.000007231882     0.000004162929     0.000011074353
      15       -0.000006962462     0.000002722020    -0.000011703514

  **** Optimization is complete! (in 12 steps) ****
    Final optimized geometry and variables:
    Molecular point group: c1

    Geometry (in Angstrom), charge = 0, multiplicity = 1:

    O           -0.744887541430    -1.287527933657     0.493712490043
    C           -0.676906532789    -0.176866034693     0.093152682953
    C           -1.884906308259     0.679936328608    -0.160372833171
    N            0.569519083292     0.488549072871    -0.139100593036
    H           -1.836301887039     1.109108938389    -1.153652751016
    H           -2.790992095020     0.106612530317    -0.039459594658
    H           -1.869552048727     1.506440258528     0.540825796584
    C            1.225526263733    -0.050265177550    -1.323178668706
    C            1.438693374655     0.407466915878     1.026926774855
    H            2.105356139292     0.541082453171    -1.537727307748
    H            0.564218165785     0.016546813143    -2.178669173215
    H            1.520533655868    -1.089281961148    -1.196941881251
    H            2.316571661456     1.013240733868     0.845765169270
    H            0.929584138451     0.807915036614     1.894192088710
    H            1.750050284266    -0.608845810780     1.250603880211

  Mulliken Charges: (a.u.)
   Center  Symbol    Alpha    Beta     Spin     Total
       1     O     4.17076  4.17076  0.00000 -0.34152
       2     C     2.83860  2.83860  0.00000  0.32280
       3     C     3.13238  3.13238  0.00000 -0.26477
       4     N     3.62037  3.62037  0.00000 -0.24075
       5     H     0.44826  0.44826  0.00000  0.10348
       6     H     0.44043  0.44043  0.00000  0.11914
       7     H     0.44794  0.44794  0.00000  0.10413
       8     C     3.09028  3.09028  0.00000 -0.18057
       9     C     3.08996  3.08996  0.00000 -0.17993
      10     H     0.45154  0.45154  0.00000  0.09693
      11     H     0.45324  0.45324  0.00000  0.09353
      12     H     0.45602  0.45602  0.00000  0.08795
      13     H     0.45253  0.45253  0.00000  0.09493
      14     H     0.45269  0.45269  0.00000  0.09463
      15     H     0.45499  0.45499  0.00000  0.09002

   Total alpha = 24.00000, Total beta = 24.00000, Total charge = -0.00000
