  ==> Input File <==

--------------------------------------------------------------------------
set {
	reference rhf
	basis 6-31G*
}

set_num_threads( 1 )
memory 2 gb

molecule MOL {
0 1

H	 -2.037988	 -0.888066	 0.449426
O	 -1.422729	 -0.573567	 -0.196946
C	 -0.731407	 0.539437	 0.309156
C	 0.680193	 0.672443	 -0.251532
H	 -1.319765	 1.404033	 0.030086
H	 -0.700012	 0.506517	 1.397677
C	 1.599139	 -0.492137	 0.118598
H	 0.616402	 0.758534	 -1.332349
H	 1.107032	 1.602637	 0.117369
H	 1.239738	 -1.428634	 -0.297334
H	 2.601428	 -0.335055	 -0.265730
H	 1.674954	 -0.608418	 1.197020

	symmetry c1
}
set optking {
	frozen_dihedral = ("
		8 4 3 2
	")
}

ee = energy('scf')
oeprop('DIPOLE', 'QUADRUPOLE', 'MULLIKEN_CHARGES')
f=open( 'psi4out.xyz', 'w' )
f.write( "12  " )
f.write( str(ee) + "\n" )
f.write( MOL.save_string_xyz() )
f.close()
--------------------------------------------------------------------------

    Molecular point group: c1

    Geometry (in Angstrom), charge = 0, multiplicity = 1:

       Center              X                  Y                   Z               Mass
    ------------   -----------------  -----------------  -----------------  -----------------
           H         -2.021759518305    -0.896095373226     0.444916371545     1.007825032070
           O         -1.406500518305    -0.581596373226    -0.201455628455    15.994914619560
           C         -0.715178518305     0.531407626774     0.304646371545    12.000000000000
           C          0.696421481695     0.664413626774    -0.256041628455    12.000000000000
           H         -1.303536518305     1.396003626774     0.025576371545     1.007825032070
           H         -0.683783518305     0.498487626774     1.393167371545     1.007825032070
           C          1.615367481695    -0.500166373226     0.114088371545    12.000000000000
           H          0.632630481695     0.750504626774    -1.336858628455     1.007825032070
           H          1.123260481695     1.594607626774     0.112859371545     1.007825032070
           H          1.255966481695    -1.436663373226    -0.301843628455     1.007825032070
           H          2.617656481695    -0.343084373226    -0.270239628455     1.007825032070
           H          1.691182481695    -0.616447373226     1.192510371545     1.007825032070

  Charge       = 0
  Multiplicity = 1
  Basis Set: 6-31G*
  Basis Set:

    Orbital Energies (a.u.)
    -----------------------

    Doubly Occupied:

       1A    -20.551095     2A    -11.267721     3A    -11.217171
       4A    -11.205860     5A     -1.358803     6A     -1.046682
       7A     -0.919226     8A     -0.800031     9A     -0.703257
      10A     -0.639352    11A     -0.591838    12A     -0.581410
      13A     -0.529110    14A     -0.502612    15A     -0.486823
      16A     -0.465042    17A     -0.427921

  @DF-RHF Final Energy:  -193.10821364820876

   => Energetics <=

    Nuclear Repulsion Energy =            132.5215098183917632
    One-Electron Energy =                -524.6714410273692692
    Two-Electron Energy =                 199.0417175607687454
    DFT Exchange-Correlation Energy =       0.0000000000000000
    Empirical Dispersion Energy =           0.0000000000000000
    PCM Polarization Energy =               0.0000000000000000
    EFP Energy =                            0.0000000000000000
    Total Energy =                       -193.1082136482087321

  Mulliken Charges: (a.u.)
   Center  Symbol    Alpha    Beta     Spin     Total
       1     H     0.27955  0.27955  0.00000  0.44090
       2     O     4.37198  4.37198  0.00000 -0.74395
       3     C     2.99439  2.99439  0.00000  0.01122
       4     C     3.15995  3.15995  0.00000 -0.31989
       5     H     0.42648  0.42648  0.00000  0.14704
       6     H     0.43430  0.43430  0.00000  0.13140
       7     C     3.24247  3.24247  0.00000 -0.48494
       8     H     0.41403  0.41403  0.00000  0.17193
       9     H     0.42216  0.42216  0.00000  0.15568
      10     H     0.40908  0.40908  0.00000  0.18184
      11     H     0.42003  0.42003  0.00000  0.15994
      12     H     0.42558  0.42558  0.00000  0.14884

   Total alpha = 17.00000, Total beta = 17.00000, Total charge = -0.00000
