  ==> Input File <==

--------------------------------------------------------------------------
set {
	reference rhf
	basis cc-pvtz
}

set_num_threads( 4 )
memory 2 gb

molecule MOL {
0 1

H	 2.190573	 -0.629143	 -0.208718
O	 1.355408	 -0.529451	 0.208662
C	 0.700177	 0.619554	 -0.266242
C	 -0.713111	 0.588314	 0.266177
H	 0.678680	 0.627133	 -1.351786
H	 1.199747	 1.521489	 0.077736
O	 -1.421673	 -0.521378	 -0.196983
H	 -1.244794	 1.469161	 -0.069059
H	 -0.685100	 0.604721	 1.352683
H	 -1.823139	 -0.948761	 0.539354

	symmetry c1
}
set optking {
	frozen_dihedral = ("
		10 7 4 3
	")
}

ee = optimize('scf')
oeprop('DIPOLE', 'QUADRUPOLE', 'MULLIKEN_CHARGES')
f=open( 'psi4out.xyz', 'w' )
f.write( "10  " )
f.write( str(ee) + "\n" )
f.write( MOL.save_string_xyz() )
f.close()
--------------------------------------------------------------------------

    Molecular point group: c1
  Charge       = 0
  Multiplicity = 1
  Basis Set: CC-PVTZ
  Basis Set:
  @DF-RHF Final Energy:  -229.02275620849565
    Total Energy =                       -229.0227562084955935
    Molecular point group: c1
  Basis Set: CC-PVTZ
  Basis Set:
  Basis Set: CC-PVTZ
  Basis Set:
  @DF-RHF Final Energy:  -229.02404264065802
    Total Energy =                       -229.0240426406580525
  Basis Set: CC-PVTZ
  Basis Set:
  Basis Set: CC-PVTZ
  Basis Set:
  @DF-RHF Final Energy:  -229.02417138237857
    Total Energy =                       -229.0241713823785403
  Basis Set: CC-PVTZ
  Basis Set:
  Basis Set: CC-PVTZ
  Basis Set:
  @DF-RHF Final Energy:  -229.02418045239145
    Total Energy =                       -229.0241804523914197
  Basis Set: CC-PVTZ
  Basis Set:
  @DF-RHF Final Energy:  -229.02418186429298
    Total Energy =                       -229.0241818642929275
  Basis Set: CC-PVTZ
  Basis Set:
  @DF-RHF Final Energy:  -229.02418292513144
    Total Energy =                       -229.0241829251314130
  Basis Set: CC-PVTZ
  Basis Set:
  Basis Set: CC-PVTZ
  Basis Set:
  @DF-RHF Final Energy:  -229.02418536172266
    Total Energy =                       -229.0241853617227150
  Basis Set: CC-PVTZ
  Basis Set:
  Basis Set: CC-PVTZ
  Basis Set:
  @DF-RHF Final Energy:  -229.02418687211059
    Total Energy =                       -229.0241868721106471
  Basis Set: CC-PVTZ
  Basis Set:
  Charge       = 0
  Multiplicity = 1
  Basis Set: CC-PVTZ
  Basis Set:

    Orbital Energies (a.u.)
    -----------------------

    Doubly Occupied:

       1A    -20.547742     2A    -20.544663     3A    -11.268196
       4A    -11.267226     5A     -1.375261     6A     -1.354980
       7A     -1.003613     8A     -0.834173     9A     -0.722982
      10A     -0.704133    11A     -0.622328    12A     -0.599184
      13A     -0.590067    14A     -0.527522    15A     -0.480178
      16A     -0.448889    17A     -0.438426

  @DF-RHF Final Energy:  -229.02418753209074

   => Energetics <=

    Nuclear Repulsion Energy =            133.4907318064678918
    One-Electron Energy =                -578.3707132972996305
    Two-Electron Energy =                 215.8557939587409464
    DFT Exchange-Correlation Energy =       0.0000000000000000
    Empirical Dispersion Energy =           0.0000000000000000
    PCM Polarization Energy =               0.0000000000000000
    EFP Energy =                            0.0000000000000000
    Total Energy =                       -229.0241875320907639
    Molecular point group: c1
  Basis Set: CC-PVTZ
  Basis Set:

  -Total Gradient:
     Atom            X                  Y                   Z
    ------   -----------------  -----------------  -----------------
       1        0.000008644150     0.000008228671     0.000002878570
       2       -0.000001733936    -0.000033156240     0.000006629190
       3       -0.000133803615     0.000288121331    -0.000338829631
       4        0.000066667064    -0.000212632155     0.000464819310
       5       -0.000006125052    -0.000008162199     0.000005432368
       6       -0.000002397134     0.000000826780    -0.000007978222
       7        0.000647432610    -0.000454239848    -0.000077982144
       8       -0.000002947562    -0.000004654388     0.000003878267
       9        0.000002293093    -0.000008803582    -0.000008839562
      10       -0.000578029617     0.000424471630    -0.000050008146

  **** Optimization is complete! (in 9 steps) ****
    Final optimized geometry and variables:
    Molecular point group: c1

    Geometry (in Angstrom), charge = 0, multiplicity = 1:

    H            2.215623581756    -0.634518311516    -0.208229481311
    O            1.420539425903    -0.491702534347     0.270204733068
    C            0.697946266635     0.567427339801    -0.293093831524
    C           -0.701487453663     0.561381525922     0.270466462529
    H            0.639866199422     0.471602275203    -1.373103001944
    H            1.167564919992     1.520786702896    -0.059441006791
    O           -1.439188331552    -0.504095165887    -0.262436811252
    H           -1.186199641964     1.499186478713     0.014708895464
    H           -0.642640373801     0.498706222439     1.351604494329
    H           -1.856078712294    -0.992265013235     0.420597750177

  Mulliken Charges: (a.u.)
   Center  Symbol    Alpha    Beta     Spin     Total
       1     H     0.39348  0.39348  0.00000  0.21305
       2     O     4.19937  4.19937  0.00000 -0.39875
       3     C     2.95825  2.95825  0.00000  0.08351
       4     C     2.96587  2.96587  0.00000  0.06825
       5     H     0.47161  0.47161  0.00000  0.05678
       6     H     0.47845  0.47845  0.00000  0.04309
       7     O     4.20320  4.20320  0.00000 -0.40641
       8     H     0.47107  0.47107  0.00000  0.05786
       9     H     0.46932  0.46932  0.00000  0.06137
      10     H     0.38938  0.38938  0.00000  0.22124

   Total alpha = 17.00000, Total beta = 17.00000, Total charge = -0.00000
