  ==> Input File <==

--------------------------------------------------------------------------
set {
	reference rhf
	basis 6-31G*
}

set_num_threads( 1 )
memory 2 gb

molecule MOL {
0 1

O	 1.442235	 3.586782	 -1.649916
C	 0.655181	 3.600151	 -2.546089
C	 -0.617099	 2.772210	 -2.518630
C	 0.877823	 4.451809	 -3.779080
C	 -0.786743	 1.934669	 -1.254517
H	 -1.459211	 3.451090	 -2.646524
H	 -0.621134	 2.137943	 -3.404119
C	 -2.078456	 1.115421	 -1.262976
H	 -0.770508	 2.589543	 -0.389066
H	 0.068360	 1.274737	 -1.147579
C	 -2.259874	 0.272531	 0.000494
H	 -2.931653	 1.783090	 -1.373974
H	 -2.088922	 0.462112	 -2.134265
C	 -3.549786	 -0.549746	 -0.000374
H	 -2.250276	 0.924664	 0.872073
H	 -1.407964	 -0.395908	 0.112009
C	 -4.809590	 0.315458	 -0.000369
H	 -3.560515	 -1.202009	 -0.871156
H	 -3.561123	 -1.202955	 0.869711
H	 -4.844746	 0.956611	 -0.876632
H	 -5.706986	 -0.295590	 -0.001609
H	 -4.845960	 0.954827	 0.877144
H	 0.059896	 5.154868	 -3.906835
H	 1.808424	 4.993962	 -3.684809
H	 0.909488	 3.829355	 -4.668565

	symmetry c1
}
set optking {
	frozen_dihedral = ("
		9 5 8 12,
		15 11 8 12,
		1 2 3 6,
		9 5 3 6
	")
}

ee = energy('scf')
oeprop('DIPOLE', 'QUADRUPOLE', 'MULLIKEN_CHARGES')
f=open( 'psi4out.xyz', 'w' )
f.write( "25  " )
f.write( str(ee) + "\n" )
f.write( MOL.save_string_xyz() )
f.close()
--------------------------------------------------------------------------

    Molecular point group: c1

    Geometry (in Angstrom), charge = 0, multiplicity = 1:

       Center              X                  Y                   Z               Mass
    ------------   -----------------  -----------------  -----------------  -----------------
           O          2.684827510116     1.635991280949    -0.203788417623    15.994914619560
           C          1.897773510116     1.649360280949    -1.099961417623    12.000000000000
           C          0.625493510116     0.821419280949    -1.072502417623    12.000000000000
           C          2.120415510116     2.501018280949    -2.332952417623    12.000000000000
           C          0.455849510116    -0.016121719051     0.191610582377    12.000000000000
           H         -0.216618489884     1.500299280949    -1.200396417623     1.007825032070
           H          0.621458510116     0.187152280949    -1.957991417623     1.007825032070
           C         -0.835863489884    -0.835369719051     0.183151582377    12.000000000000
           H          0.472084510116     0.638752280949     1.057061582377     1.007825032070
           H          1.310952510116    -0.676053719051     0.298548582377     1.007825032070
           C         -1.017281489884    -1.678259719051     1.446621582377    12.000000000000
           H         -1.689060489884    -0.167700719051     0.072153582377     1.007825032070
           H         -0.846329489884    -1.488678719051    -0.688137417623     1.007825032070
           C         -2.307193489884    -2.500536719051     1.445753582377    12.000000000000
           H         -1.007683489884    -1.026126719051     2.318200582377     1.007825032070
           H         -0.165371489884    -2.346698719051     1.558136582377     1.007825032070
           C         -3.566997489884    -1.635332719051     1.445758582377    12.000000000000
           H         -2.317922489884    -3.152799719051     0.574971582377     1.007825032070
           H         -2.318530489884    -3.153745719051     2.315838582377     1.007825032070
           H         -3.602153489884    -0.994179719051     0.569495582377     1.007825032070
           H         -4.464393489884    -2.246380719051     1.444518582377     1.007825032070
           H         -3.603367489884    -0.995963719051     2.323271582377     1.007825032070
           H          1.302488510116     3.204077280949    -2.460707417623     1.007825032070
           H          3.051016510116     3.043171280949    -2.238681417623     1.007825032070
           H          2.152080510116     1.878564280949    -3.222437417623     1.007825032070

  Charge       = 0
  Multiplicity = 1
  Basis Set: 6-31G*
  Basis Set:

    Orbital Energies (a.u.)
    -----------------------

    Doubly Occupied:

       1A    -20.550419     2A    -11.326263     3A    -11.231851
       4A    -11.228331     5A    -11.216821     6A    -11.216023
       7A    -11.215447     8A    -11.213469     9A    -11.208592
      10A     -1.395726    11A     -1.094643    12A     -1.056721
      13A     -1.013329    14A     -0.966420    15A     -0.895480
      16A     -0.823666    17A     -0.779243    18A     -0.729549
      19A     -0.658380    20A     -0.653196    21A     -0.625552
      22A     -0.620826    23A     -0.610707    24A     -0.590232
      25A     -0.566863    26A     -0.556190    27A     -0.542764
      28A     -0.521220    29A     -0.513016    30A     -0.493646
      31A     -0.488324    32A     -0.476580    33A     -0.461975
      34A     -0.456038    35A     -0.450888    36A     -0.399459

  @DF-RHF Final Energy:  -387.13429707009720

   => Energetics <=

    Nuclear Repulsion Energy =            443.6311362971432573
    One-Electron Energy =               -1403.8355357740754243
    Two-Electron Energy =                 573.0701024068343941
    DFT Exchange-Correlation Energy =       0.0000000000000000
    Empirical Dispersion Energy =           0.0000000000000000
    PCM Polarization Energy =               0.0000000000000000
    EFP Energy =                            0.0000000000000000
    Total Energy =                       -387.1342970700977730

  Mulliken Charges: (a.u.)
   Center  Symbol    Alpha    Beta     Spin     Total
       1     O     4.26116  4.26116  0.00000 -0.52233
       2     C     2.73573  2.73573  0.00000  0.52854
       3     C     3.21079  3.21079  0.00000 -0.42158
       4     C     3.28664  3.28664  0.00000 -0.57328
       5     C     3.14710  3.14710  0.00000 -0.29420
       6     H     0.41010  0.41010  0.00000  0.17981
       7     H     0.41006  0.41006  0.00000  0.17988
       8     C     3.15675  3.15675  0.00000 -0.31349
       9     H     0.41217  0.41217  0.00000  0.17566
      10     H     0.41231  0.41231  0.00000  0.17538
      11     C     3.15261  3.15261  0.00000 -0.30521
      12     H     0.42269  0.42269  0.00000  0.15463
      13     H     0.42515  0.42515  0.00000  0.14970
      14     C     3.15273  3.15273  0.00000 -0.30547
      15     H     0.42264  0.42264  0.00000  0.15471
      16     H     0.42037  0.42037  0.00000  0.15926
      17     C     3.24210  3.24210  0.00000 -0.48420
      18     H     0.42365  0.42365  0.00000  0.15270
      19     H     0.41998  0.41998  0.00000  0.16005
      20     H     0.42084  0.42084  0.00000  0.15831
      21     H     0.41892  0.41892  0.00000  0.16215
      22     H     0.42160  0.42160  0.00000  0.15679
      23     H     0.40875  0.40875  0.00000  0.18251
      24     H     0.39645  0.39645  0.00000  0.20709
      25     H     0.40871  0.40871  0.00000  0.18259

   Total alpha = 36.00000, Total beta = 36.00000, Total charge =  0.00000
