                              Psi4 1.0.54 Driver

  ==> Input File <==

--------------------------------------------------------------------------
set {
	reference rhf
	basis cc-pvtz
}

set_num_threads( 4 )
memory 2 gb

molecule MOL {
0 1

H	 3.721907	 -0.933076	 -0.066039
O	 2.824271	 -1.154299	 0.131461
C	 2.076458	 -0.067370	 -0.038225
C	 0.626018	 -0.337582	 0.258241
O	 2.538288	 0.965419	 -0.381593
C	 -0.267326	 0.883135	 0.076490
H	 0.325620	 -1.161483	 -0.378003
H	 0.574537	 -0.713685	 1.275261
C	 -1.726822	 0.642622	 0.463839
H	 -0.210803	 1.217591	 -0.953497
H	 0.129920	 1.693110	 0.675679
C	 -2.480891	 -0.340606	 -0.429852
H	 -2.243098	 1.597649	 0.438609
H	 -1.776542	 0.301208	 1.495542
C	 -3.567688	 0.333433	 -1.261127
H	 -1.774612	 -0.833642	 -1.092513
H	 -2.933163	 -1.122743	 0.171537
H	 -4.085209	 -0.384416	 -1.886864
H	 -3.148234	 1.095783	 -1.908876
H	 -4.306154	 0.811073	 -0.625767

	symmetry c1
}
set optking {
	frozen_dihedral = ("
		16 12 9 6
	")
}

ee,wfn = optimize('scf', return_wfn=True)
oeprop( wfn, 'DIPOLE', 'QUADRUPOLE', 'MULLIKEN_CHARGES')
f=open( 'psi4out.xyz', 'w' )
f.write( "20  " )
f.write( str(ee) + "\n" )
f.write( MOL.save_string_xyz() )
f.close()
--------------------------------------------------------------------------

    Molecular point group: c1
  Charge       = 0
  Multiplicity = 1
  Basis Set: CC-PVTZ
  Basis Set:
  @DF-RHF Final Energy:  -384.08933857727021
    Total Energy =                       -384.0893385772700412
    Molecular point group: c1
  Basis Set: CC-PVTZ
  Basis Set:
  Basis Set: CC-PVTZ
  Basis Set:
  @DF-RHF Final Energy:  -384.08850065757190
    Total Energy =                       -384.0885006575713305
  Basis Set: CC-PVTZ
  Basis Set:
  Basis Set: CC-PVTZ
  Basis Set:
  @DF-RHF Final Energy:  -384.08972801105841
    Total Energy =                       -384.0897280110588099
  Basis Set: CC-PVTZ
  Basis Set:
  Basis Set: CC-PVTZ
  Basis Set:
  @DF-RHF Final Energy:  -384.08970611471381
    Total Energy =                       -384.0897061147132945
  Basis Set: CC-PVTZ
  Basis Set:
  Basis Set: CC-PVTZ
  Basis Set:
  @DF-RHF Final Energy:  -384.08964481986186
    Total Energy =                       -384.0896448198619737
  Basis Set: CC-PVTZ
  Basis Set:
  Basis Set: CC-PVTZ
  Basis Set:
  @DF-RHF Final Energy:  -384.08986639798565
    Total Energy =                       -384.0898663979857020
  Basis Set: CC-PVTZ
  Basis Set:
  Basis Set: CC-PVTZ
  Basis Set:
  @DF-RHF Final Energy:  -384.08986746593212
    Total Energy =                       -384.0898674659324570
  Basis Set: CC-PVTZ
  Basis Set:
  Charge       = 0
  Multiplicity = 1
  Basis Set: CC-PVTZ
  Basis Set:

    Orbital Energies (a.u.)
    -----------------------

    Doubly Occupied:

       1A    -20.603917     2A    -20.540539     3A    -11.373472
       4A    -11.238681     5A    -11.221488     6A    -11.218608
       7A    -11.217982     8A    -11.210295     9A     -1.477504
      10A     -1.369003    11A     -1.096606    12A     -1.040445
      13A     -0.961347    14A     -0.871858    15A     -0.818155
      16A     -0.776502    17A     -0.703709    18A     -0.692692
      19A     -0.668954    20A     -0.631286    21A     -0.609864
      22A     -0.592957    23A     -0.576597    24A     -0.566963
      25A     -0.525320    26A     -0.514310    27A     -0.506040
      28A     -0.484505    29A     -0.469697    30A     -0.462140
      31A     -0.458410    32A     -0.446116

  @DF-RHF Final Energy:  -384.08986799199050

   => Energetics <=

    Nuclear Repulsion Energy =            377.7528950047456533
    One-Electron Energy =               -1271.7935962056740209
    Two-Electron Energy =                 509.9508332089378655
    DFT Exchange-Correlation Energy =       0.0000000000000000
    Empirical Dispersion Energy =           0.0000000000000000
    PCM Polarization Energy =               0.0000000000000000
    EFP Energy =                            0.0000000000000000
    Total Energy =                       -384.0898679919905589
    Molecular point group: c1
  Basis Set: CC-PVTZ
  Basis Set:

  -Total Gradient:
     Atom            X                  Y                   Z
    ------   -----------------  -----------------  -----------------
       1        0.000011709044    -0.000004806047     0.000001897080
       2        0.000002960405     0.000017844255    -0.000015678739
       3       -0.000019954202     0.000012347696     0.000005874445
       4       -0.000018046100    -0.000001439198    -0.000036622684
       5        0.000017668302    -0.000016944361     0.000010257490
       6        0.000181254436    -0.000631207121     0.000370017654
       7       -0.000002596411    -0.000004506329     0.000013113165
       8       -0.000000668012     0.000002735282     0.000014750802
       9       -0.000280102414     0.001079458654    -0.000634535193
      10       -0.000007883212    -0.000006938013    -0.000001794385
      11       -0.000001714412     0.000007354558     0.000001735271
      12        0.000203558956    -0.001264621385     0.000836901035
      13        0.000004351999     0.000007639705     0.000003748985
      14        0.000009928646    -0.000002460590    -0.000000977672
      15       -0.000000291377    -0.000013671155     0.000006241383
      16       -0.000098470826     0.000821280515    -0.000570326875
      17       -0.000003729059    -0.000000109194    -0.000004944093
      18       -0.000007884468    -0.000002602324    -0.000000835251
      19        0.000006872398    -0.000003614587    -0.000001131237
      20        0.000003036316     0.000004259640     0.000002308820

  **** Optimization is complete! (in 8 steps) ****
    Final optimized geometry and variables:
    Molecular point group: c1

    Geometry (in Angstrom), charge = 0, multiplicity = 1:

    H            3.626033863834    -1.183643942249     0.033669282162
    O            2.728082760549    -1.377279208356     0.257128667174
    C            2.011632455546    -0.264829880966     0.121109144316
    C            0.563002629280    -0.489979153193     0.460241627033
    O            2.496004814121     0.756033726584    -0.227117242932
    C           -0.294369853902     0.762825092332     0.335322605125
    H            0.210175579207    -1.290542598846    -0.179955341021
    H            0.530147715904    -0.884859649789     1.470651698716
    C           -1.767848752858     0.515703375654     0.665054702312
    H           -0.201961353488     1.164740029203    -0.667580994537
    H            0.102826336326     1.520808118718     0.999723248263
    C           -2.535529873727    -0.306408295274    -0.392321924810
    H           -2.253999147632     1.477213019635     0.787383885716
    H           -1.832407167969     0.027670518663     1.632996179152
    C           -3.578028607745     0.515080803693    -1.146945644135
    H           -1.840947199665    -0.720251453799    -1.115864480017
    H           -3.025071419687    -1.153398737113     0.075053546411
    H           -4.081624137653    -0.082680045859    -1.898216261823
    H           -3.119212180861     1.360687886995    -1.648856902306
    H           -4.332183457685     0.903408091245    -0.470876958688

  Mulliken Charges: (a.u.)
   Center  Symbol    Alpha    Beta     Spin     Total
       1     H     0.38242  0.38242  0.00000  0.23516
       2     O     4.16045  4.16045  0.00000 -0.32090
       3     C     2.80343  2.80343  0.00000  0.39315
       4     C     3.11211  3.11211  0.00000 -0.22422
       5     O     4.19111  4.19111  0.00000 -0.38222
       6     C     3.09197  3.09197  0.00000 -0.18394
       7     H     0.43668  0.43668  0.00000  0.12663
       8     H     0.43726  0.43726  0.00000  0.12548
       9     C     3.10721  3.10721  0.00000 -0.21443
      10     H     0.44473  0.44473  0.00000  0.11054
      11     H     0.44082  0.44082  0.00000  0.11835
      12     C     3.09115  3.09115  0.00000 -0.18229
      13     H     0.44548  0.44548  0.00000  0.10905
      14     H     0.44857  0.44857  0.00000  0.10286
      15     C     3.14681  3.14681  0.00000 -0.29362
      16     H     0.45546  0.45546  0.00000  0.08908
      17     H     0.44743  0.44743  0.00000  0.10515
      18     H     0.44933  0.44933  0.00000  0.10134
      19     H     0.45376  0.45376  0.00000  0.09248
      20     H     0.45383  0.45383  0.00000  0.09234

   Total alpha = 32.00000, Total beta = 32.00000, Total charge =  0.00000

*** Psi4 exiting successfully. Buy a developer a beer!
