  ==> Input File <==

--------------------------------------------------------------------------
set {
	reference rhf
	basis 6-31G*
}

set_num_threads( 4 )
memory 2 gb

molecule MOL {
0 1

H	 2.591676	 2.013956	 0.335017
O	 3.341076	 1.666752	 -0.126416
C	 3.569581	 0.339145	 0.272707
C	 2.390321	 -0.585022	 -0.010113
H	 4.435359	 0.008555	 -0.286590
H	 3.832608	 0.298728	 1.329099
C	 1.122075	 -0.232533	 0.771021
H	 2.180905	 -0.560412	 -1.076371
H	 2.692067	 -1.603060	 0.230545
C	 -0.026288	 -1.210339	 0.506488
H	 0.809174	 0.774190	 0.508405
H	 1.344813	 -0.223505	 1.838095
C	 -1.293857	 -0.952711	 1.329432
H	 -0.275208	 -1.191983	 -0.553017
H	 0.322364	 -2.218997	 0.718031
C	 -2.020511	 0.354545	 1.001508
H	 -1.980549	 -1.781011	 1.167602
H	 -1.044125	 -0.970591	 2.389220
C	 -3.332966	 0.516339	 1.771392
H	 -2.225143	 0.393136	 -0.067485
H	 -1.378482	 1.204544	 1.219690
C	 -4.057146	 1.823392	 1.450708
H	 -3.987671	 -0.323001	 1.546989
H	 -3.131749	 0.468301	 2.839610
H	 -4.301636	 1.887104	 0.394114
H	 -4.983832	 1.907580	 2.009994
H	 -3.442141	 2.683944	 1.698868

	symmetry c1
}
set optking {
	frozen_dihedral = ("
		4 3 2 1
	")
}

ee = optimize('scf')
oeprop('DIPOLE', 'QUADRUPOLE', 'MULLIKEN_CHARGES')
f=open( 'psi4out.xyz', 'w' )
f.write( "27  " )
f.write( str(ee) + "\n" )
f.write( MOL.save_string_xyz() )
f.close()
--------------------------------------------------------------------------

    Molecular point group: c1
  Charge       = 0
  Multiplicity = 1
  Basis Set: 6-31G*
  Basis Set:
  @DF-RHF Final Energy:  -388.28149002264399
    Total Energy =                       -388.2814900226439931
    Molecular point group: c1
  Basis Set: 6-31G*
  Basis Set:
  Basis Set: 6-31G*
  Basis Set:
  @DF-RHF Final Energy:  -388.28147027970181
    Total Energy =                       -388.2814702797015798
  Basis Set: 6-31G*
  Basis Set:
  Basis Set: 6-31G*
  Basis Set:
  @DF-RHF Final Energy:  -388.28151413842943
    Total Energy =                       -388.2815141384296567
  Basis Set: 6-31G*
  Basis Set:
  Charge       = 0
  Multiplicity = 1
  Basis Set: 6-31G*
  Basis Set:

    Orbital Energies (a.u.)
    -----------------------

    Doubly Occupied:

       1A    -20.551538     2A    -11.266681     3A    -11.222476
       4A    -11.218942     5A    -11.217281     6A    -11.216948
       7A    -11.216831     8A    -11.215438     9A    -11.210036
      10A     -1.358686    11A     -1.096654    12A     -1.062778
      13A     -1.012368    14A     -0.949466    15A     -0.889335
      16A     -0.821618    17A     -0.803093    18A     -0.779901
      19A     -0.688877    20A     -0.653781    21A     -0.641023
      22A     -0.613826    23A     -0.603862    24A     -0.583672
      25A     -0.580419    26A     -0.555460    27A     -0.541482
      28A     -0.532043    29A     -0.505339    30A     -0.496136
      31A     -0.486882    32A     -0.476368    33A     -0.469374
      34A     -0.462385    35A     -0.451869    36A     -0.440976
      37A     -0.424913

  @DF-RHF Final Energy:  -388.28151329352562

   => Energetics <=

    Nuclear Repulsion Energy =            459.4500824900799785
    One-Electron Energy =               -1436.8256763775946183
    Two-Electron Energy =                 589.0940805939887923
    DFT Exchange-Correlation Energy =       0.0000000000000000
    Empirical Dispersion Energy =           0.0000000000000000
    PCM Polarization Energy =               0.0000000000000000
    EFP Energy =                            0.0000000000000000
    Total Energy =                       -388.2815132935259044
    Molecular point group: c1
  Basis Set: 6-31G*
  Basis Set:

  -Total Gradient:
     Atom            X                  Y                   Z
    ------   -----------------  -----------------  -----------------
       1       -0.000775096799    -0.000369330117    -0.000897580436
       2        0.000891308333     0.000555766179     0.001483735968
       3        0.000284097428    -0.000409765785    -0.001436919152
       4       -0.000228543448     0.000019803285     0.000887019201
       5       -0.000018590957     0.000066836689    -0.000008088736
       6       -0.000057816231     0.000011651414     0.000029574547
       7        0.000040396219    -0.000056799511     0.000020241452
       8        0.000019990570    -0.000013810187    -0.000006414771
       9       -0.000001811980     0.000026208296     0.000003319991
      10       -0.000029484460     0.000069757985    -0.000078383053
      11       -0.000022864922    -0.000004004123     0.000013343758
      12       -0.000042332426     0.000039449043    -0.000052481473
      13        0.000064528951     0.000037028847     0.000085149259
      14       -0.000035349830     0.000056178672    -0.000006759799
      15        0.000009309538    -0.000009466204    -0.000057128089
      16       -0.000044137463    -0.000001173561    -0.000001170840
      17        0.000041761083    -0.000019102720     0.000024280913
      18        0.000009124189     0.000040664357     0.000009307437
      19       -0.000008692311    -0.000016378750    -0.000012983116
      20        0.000003840174     0.000010234511    -0.000022113104
      21       -0.000104697844    -0.000032348530     0.000031876991
      22        0.000000459017    -0.000001218542    -0.000006559765
      23       -0.000002813695     0.000000731304     0.000003366277
      24        0.000004103475     0.000001383616    -0.000006453184
      25       -0.000001778238    -0.000000201464     0.000001544060
      26        0.000005098721    -0.000002061759    -0.000001829725
      27       -0.000000007101    -0.000000032948     0.000002105388

  **** Optimization is complete! (in 4 steps) ****
    Final optimized geometry and variables:
    Molecular point group: c1

    Geometry (in Angstrom), charge = 0, multiplicity = 1:

    H            2.629654679513     1.789155980628    -0.437600360146
    O            3.375566177842     1.424397707053    -0.891327591469
    C            3.571099004967     0.093548773979    -0.488726026392
    C            2.379951119698    -0.814425328064    -0.776917670554
    H            4.437602091908    -0.252151955090    -1.037016869526
    H            3.819767474592     0.051101022295     0.571512886483
    C            1.111268657899    -0.452343908646     0.000551700665
    H            2.174508414206    -0.790433236985    -1.844180359743
    H            2.669069079864    -1.835077152826    -0.533360567876
    C           -0.039971540521    -1.427038662736    -0.263811778798
    H            0.797029583665     0.554275684177    -0.263789456544
    H            1.332155130940    -0.439857920276     1.067473200591
    C           -1.303000225655    -1.172761715866     0.567160779024
    H           -0.294102385788    -1.403140808776    -1.321954663215
    H            0.309085157367    -2.436889487880    -0.059146029300
    C           -2.041017079256     0.127826899814     0.238007320529
    H           -1.985209050072    -2.006353025709     0.414245206988
    H           -1.045582117362    -1.183852342493     1.625137439029
    C           -3.351820345041     0.281528132886     1.012362864259
    H           -2.249980571136     0.161641599608    -0.830344724525
    H           -1.405178465907     0.983641220720     0.451647116939
    C           -4.087872264560     1.581459764094     0.689881659580
    H           -4.000363162096    -0.563951069012     0.793264105737
    H           -3.146135611974     0.238879574509     2.079930403284
    H           -4.336843481601     1.639493834788    -0.365982535719
    H           -5.013117547266     1.659813809676     1.252317023605
    H           -3.479143090901     2.447901053139     0.932926658688

  Mulliken Charges: (a.u.)
   Center  Symbol    Alpha    Beta     Spin     Total
       1     H     0.27944  0.27944  0.00000  0.44112
       2     O     4.37238  4.37238  0.00000 -0.74476
       3     C     2.99318  2.99318  0.00000  0.01365
       4     C     3.16544  3.16544  0.00000 -0.33087
       5     H     0.41458  0.41458  0.00000  0.17084
       6     H     0.43235  0.43235  0.00000  0.13531
       7     C     3.16343  3.16343  0.00000 -0.32687
       8     H     0.41488  0.41488  0.00000  0.17023
       9     H     0.42293  0.42293  0.00000  0.15414
      10     C     3.15209  3.15209  0.00000 -0.30417
      11     H     0.42597  0.42597  0.00000  0.14806
      12     H     0.42331  0.42331  0.00000  0.15338
      13     C     3.15373  3.15373  0.00000 -0.30745
      14     H     0.42145  0.42145  0.00000  0.15710
      15     H     0.42099  0.42099  0.00000  0.15801
      16     C     3.15241  3.15241  0.00000 -0.30482
      17     H     0.42094  0.42094  0.00000  0.15812
      18     H     0.42387  0.42387  0.00000  0.15226
      19     C     3.15130  3.15130  0.00000 -0.30260
      20     H     0.42363  0.42363  0.00000  0.15274
      21     H     0.42400  0.42400  0.00000  0.15200
      22     C     3.23923  3.23923  0.00000 -0.47846
      23     H     0.42272  0.42272  0.00000  0.15457
      24     H     0.42309  0.42309  0.00000  0.15382
      25     H     0.42145  0.42145  0.00000  0.15710
      26     H     0.41903  0.41903  0.00000  0.16194
      27     H     0.42219  0.42219  0.00000  0.15563

   Total alpha = 37.00000, Total beta = 37.00000, Total charge =  0.00000
