  ==> Input File <==

--------------------------------------------------------------------------
set {
	reference rhf
	basis 6-31G*
}

set_num_threads( 1 )
memory 2 gb

molecule MOL {
0 1

O	 -0.449450	 1.935623	 -3.442685
C	 -0.881215	 1.488702	 -2.423728
C	 -0.310151	 0.213172	 -1.829407
C	 -1.988235	 2.180123	 -1.659648
C	 1.010973	 0.494131	 -1.095352
H	 -0.130688	 -0.478272	 -2.645496
H	 -1.022976	 -0.244098	 -1.149105
C	 1.631333	 -0.777471	 -0.511575
H	 1.692634	 0.965298	 -1.794440
H	 0.839219	 1.209869	 -0.292878
C	 2.915987	 -0.544314	 0.291766
H	 1.834597	 -1.479446	 -1.318198
H	 0.900794	 -1.259148	 0.135069
C	 3.373361	 0.914346	 0.347591
H	 3.708709	 -1.142521	 -0.150311
H	 2.780642	 -0.921148	 1.303579
H	 3.506512	 1.320010	 -0.651625
H	 4.322697	 0.999599	 0.867103
H	 2.660624	 1.545032	 0.868198
H	 -2.880487	 1.559573	 -1.667815
H	 -2.211201	 3.135350	 -2.114194
H	 -1.707027	 2.322623	 -0.620215

	symmetry c1
}
set optking {
	frozen_dihedral = ("
		6 3 2 1,
		6 3 5 8,
		3 5 8 12
	")
}

ee = energy('scf')
oeprop('DIPOLE', 'QUADRUPOLE', 'MULLIKEN_CHARGES')
f=open( 'psi4out.xyz', 'w' )
f.write( "22  " )
f.write( str(ee) + "\n" )
f.write( MOL.save_string_xyz() )
f.close()
--------------------------------------------------------------------------

    Molecular point group: c1

    Geometry (in Angstrom), charge = 0, multiplicity = 1:

       Center              X                  Y                   Z               Mass
    ------------   -----------------  -----------------  -----------------  -----------------
           O         -1.117623870061     1.180384742213    -2.154985660965    15.994914619560
           C         -1.549388870061     0.733463742213    -1.136028660965    12.000000000000
           C         -0.978324870061    -0.542066257787    -0.541707660965    12.000000000000
           C         -2.656408870061     1.424884742213    -0.371948660965    12.000000000000
           C          0.342799129939    -0.261107257787     0.192347339035    12.000000000000
           H         -0.798861870061    -1.233510257787    -1.357796660965     1.007825032070
           H         -1.691149870061    -0.999336257787     0.138594339035     1.007825032070
           C          0.963159129939    -1.532709257787     0.776124339035    12.000000000000
           H          1.024460129939     0.210059742213    -0.506740660965     1.007825032070
           H          0.171045129939     0.454630742213     0.994821339035     1.007825032070
           C          2.247813129939    -1.299552257787     1.579465339035    12.000000000000
           H          1.166423129939    -2.234684257787    -0.030498660965     1.007825032070
           H          0.232620129939    -2.014386257787     1.422768339035     1.007825032070
           C          2.705187129939     0.159107742213     1.635290339035    12.000000000000
           H          3.040535129939    -1.897759257787     1.137388339035     1.007825032070
           H          2.112468129939    -1.676386257787     2.591278339035     1.007825032070
           H          2.838338129939     0.564771742213     0.636074339035     1.007825032070
           H          3.654523129939     0.244360742213     2.154802339035     1.007825032070
           H          1.992450129939     0.789793742213     2.155897339035     1.007825032070
           H         -3.548660870061     0.804334742213    -0.380115660965     1.007825032070
           H         -2.879374870061     2.380111742213    -0.826494660965     1.007825032070
           H         -2.375200870061     1.567384742213     0.667484339035     1.007825032070

  Charge       = 0
  Multiplicity = 1
  Basis Set: 6-31G*
  Basis Set:

    Orbital Energies (a.u.)
    -----------------------

    Doubly Occupied:

       1A    -20.546959     2A    -11.324056     3A    -11.228695
       4A    -11.228090     5A    -11.227985     6A    -11.220808
       7A    -11.219026     8A    -11.211262     9A     -1.392718
      10A     -1.096878    11A     -1.043411    12A     -0.997777
      13A     -0.936192    14A     -0.866744    15A     -0.775397
      16A     -0.733098    17A     -0.666418    18A     -0.645883
      19A     -0.630669    20A     -0.617364    21A     -0.591286
      22A     -0.587084    23A     -0.559255    24A     -0.542789
      25A     -0.533471    26A     -0.523407    27A     -0.503133
      28A     -0.486234    29A     -0.467793    30A     -0.463451
      31A     -0.450405    32A     -0.395828

  @DF-RHF Final Energy:  -348.08779777251476

   => Energetics <=

    Nuclear Repulsion Energy =            376.4128693882396988
    One-Electron Energy =               -1217.5743268902674572
    Two-Electron Energy =                 493.0736597295132242
    DFT Exchange-Correlation Energy =       0.0000000000000000
    Empirical Dispersion Energy =           0.0000000000000000
    PCM Polarization Energy =               0.0000000000000000
    EFP Energy =                            0.0000000000000000
    Total Energy =                       -348.0877977725145911

  Mulliken Charges: (a.u.)
   Center  Symbol    Alpha    Beta     Spin     Total
       1     O     4.26282  4.26282  0.00000 -0.52565
       2     C     2.73700  2.73700  0.00000  0.52599
       3     C     3.19813  3.19813  0.00000 -0.39627
       4     C     3.28947  3.28947  0.00000 -0.57894
       5     C     3.16727  3.16727  0.00000 -0.33453
       6     H     0.40166  0.40166  0.00000  0.19668
       7     H     0.41735  0.41735  0.00000  0.16530
       8     C     3.15526  3.15526  0.00000 -0.31052
       9     H     0.40386  0.40386  0.00000  0.19227
      10     H     0.41922  0.41922  0.00000  0.16155
      11     C     3.15569  3.15569  0.00000 -0.31137
      12     H     0.41752  0.41752  0.00000  0.16495
      13     H     0.42114  0.42114  0.00000  0.15772
      14     C     3.24593  3.24593  0.00000 -0.49185
      15     H     0.41848  0.41848  0.00000  0.16305
      16     H     0.41951  0.41951  0.00000  0.16098
      17     H     0.41790  0.41790  0.00000  0.16420
      18     H     0.41682  0.41682  0.00000  0.16636
      19     H     0.42100  0.42100  0.00000  0.15800
      20     H     0.40695  0.40695  0.00000  0.18611
      21     H     0.39716  0.39716  0.00000  0.20567
      22     H     0.40986  0.40986  0.00000  0.18028

   Total alpha = 32.00000, Total beta = 32.00000, Total charge =  0.00000
