  ==> Input File <==

--------------------------------------------------------------------------
set {
	reference rhf
	basis cc-pvtz
}

set_num_threads( 4 )
memory 2 gb

molecule MOL {
0 1

O	 -0.294688	 1.318815	 -0.000872
C	 -0.448732	 0.145721	 -0.000187
C	 -1.780748	 -0.548101	 0.000195
O	 0.550743	 -0.719877	 0.000412
H	 -1.859389	 -1.183260	 -0.872613
H	 -2.570236	 0.185547	 -0.001342
H	 -1.860233	 -1.180337	 0.875064
C	 0.267396	 -2.036952	 -0.428651
H	 -0.480633	 -2.490745	 0.204241
H	 1.195881	 -2.579484	 -0.356136
H	 -0.086446	 -2.037064	 -1.448855

	symmetry c1
}
set optking {
	frozen_dihedral = ("
		8 4 2 1
	")
}

ee = optimize('scf')
oeprop('DIPOLE', 'QUADRUPOLE', 'MULLIKEN_CHARGES')
f=open( 'psi4out.xyz', 'w' )
f.write( "11  " )
f.write( str(ee) + "\n" )
f.write( MOL.save_string_xyz() )
f.close()
--------------------------------------------------------------------------

    Molecular point group: c1
  Charge       = 0
  Multiplicity = 1
  Basis Set: CC-PVTZ
  Basis Set:
  @DF-RHF Final Energy:  -266.91596128120261
    Total Energy =                       -266.9159612812024989
    Molecular point group: c1
  Basis Set: CC-PVTZ
  Basis Set:
  Basis Set: CC-PVTZ
  Basis Set:
  @DF-RHF Final Energy:  -266.91589620263187
    Total Energy =                       -266.9158962026319841
  Basis Set: CC-PVTZ
  Basis Set:
  Basis Set: CC-PVTZ
  Basis Set:
  @DF-RHF Final Energy:  -266.92289923029705
    Total Energy =                       -266.9228992302972188
  Basis Set: CC-PVTZ
  Basis Set:
  Basis Set: CC-PVTZ
  Basis Set:
  @DF-RHF Final Energy:  -266.92421359672232
    Total Energy =                       -266.9242135967224385
  Basis Set: CC-PVTZ
  Basis Set:
  Basis Set: CC-PVTZ
  Basis Set:
  @DF-RHF Final Energy:  -266.92382108930241
    Total Energy =                       -266.9238210893022369
  Basis Set: CC-PVTZ
  Basis Set:
  Basis Set: CC-PVTZ
  Basis Set:
  @DF-RHF Final Energy:  -266.92419191029342
    Total Energy =                       -266.9241919102934162
  Basis Set: CC-PVTZ
  Basis Set:
  Basis Set: CC-PVTZ
  Basis Set:
  @DF-RHF Final Energy:  -266.92452274404832
    Total Energy =                       -266.9245227440483177
  Basis Set: CC-PVTZ
  Basis Set:
  Charge       = 0
  Multiplicity = 1
  Basis Set: CC-PVTZ
  Basis Set:

    Orbital Energies (a.u.)
    -----------------------

    Doubly Occupied:

       1A    -20.596263     2A    -20.531214     3A    -11.370812
       4A    -11.295538     5A    -11.242644     6A     -1.468236
       7A     -1.370421     8A     -1.023426     9A     -0.985114
      10A     -0.785402    11A     -0.700654    12A     -0.689108
      13A     -0.681646    14A     -0.605901    15A     -0.595272
      16A     -0.578135    17A     -0.548494    18A     -0.516487
      19A     -0.454494    20A     -0.439912

  @DF-RHF Final Energy:  -266.92452359964614

   => Energetics <=

    Nuclear Repulsion Energy =            183.2781886568215839
    One-Electron Energy =                -727.4470777066937899
    Two-Electron Energy =                 277.2443654502259278
    DFT Exchange-Correlation Energy =       0.0000000000000000
    Empirical Dispersion Energy =           0.0000000000000000
    PCM Polarization Energy =               0.0000000000000000
    EFP Energy =                            0.0000000000000000
    Total Energy =                       -266.9245235996462497
    Molecular point group: c1
  Basis Set: CC-PVTZ
  Basis Set:

  -Total Gradient:
     Atom            X                  Y                   Z
    ------   -----------------  -----------------  -----------------
       1        0.000066450131     0.000044282553    -0.002287766757
       2        0.000323054367     0.000109634720     0.002312014642
       3       -0.000034772943     0.000003868971    -0.000120966717
       4       -0.000775537381    -0.000707061338     0.001875135298
       5       -0.000031722581    -0.000018397215     0.000027728677
       6        0.000015220264    -0.000006963662     0.000005769265
       7        0.000016153353    -0.000009405234     0.000034736832
       8        0.000427737985     0.000546087926    -0.001879978511
       9       -0.000026606803     0.000010751289     0.000024236447
      10        0.000006852799     0.000026000918     0.000002311929
      11        0.000013170813     0.000001201074     0.000006778895

  **** Optimization is complete! (in 8 steps) ****
    Final optimized geometry and variables:
    Molecular point group: c1

    Geometry (in Angstrom), charge = 0, multiplicity = 1:

    O            0.073196694436     1.673213963090     0.090258093694
    C           -0.146109706940     0.515802170870     0.084628678446
    C           -1.543712665225    -0.052141147895     0.110261456920
    O            0.872052143843    -0.342967860077     0.077000334753
    H           -1.749700771154    -0.623195588303    -0.786026716697
    H           -2.238245833874     0.768088805706     0.178258208124
    H           -1.670908696180    -0.709651730915     0.961256127981
    C            0.725454130624    -1.678214921796    -0.336041254896
    H            0.052192741565    -2.230429099268     0.306125157303
    H            1.707129784444    -2.118301677780    -0.273095909035
    H            0.380315201559    -1.736996499696    -1.360367304831

  Mulliken Charges: (a.u.)
   Center  Symbol    Alpha    Beta     Spin     Total
       1     O     4.17820  4.17820  0.00000 -0.35639
       2     C     2.81151  2.81151  0.00000  0.37698
       3     C     3.16569  3.16569  0.00000 -0.33139
       4     O     4.12938  4.12938  0.00000 -0.25876
       5     H     0.44810  0.44810  0.00000  0.10380
       6     H     0.42634  0.42634  0.00000  0.14732
       7     H     0.44461  0.44461  0.00000  0.11079
       8     C     3.04243  3.04243  0.00000 -0.08487
       9     H     0.46173  0.46173  0.00000  0.07654
      10     H     0.43341  0.43341  0.00000  0.13319
      11     H     0.45861  0.45861  0.00000  0.08278

   Total alpha = 20.00000, Total beta = 20.00000, Total charge = -0.00000
