  ==> Input File <==

--------------------------------------------------------------------------
set {
	reference rhf
	basis 6-31G*
}

set_num_threads( 1 )
memory 2 gb

molecule MOL {
0 1

H	 2.591676	 2.013956	 0.335017
O	 3.341076	 1.666752	 -0.126416
C	 3.569581	 0.339145	 0.272707
C	 2.539767	 -0.640285	 -0.279495
H	 4.553106	 0.084646	 -0.100901
H	 3.608576	 0.269204	 1.359154
C	 1.115811	 -0.397273	 0.226630
H	 2.556196	 -0.582511	 -1.364741
H	 2.852081	 -1.648031	 -0.010655
C	 0.114133	 -1.423372	 -0.310565
H	 0.800578	 0.602084	 -0.060213
H	 1.108690	 -0.427813	 1.316290
C	 -1.311803	 -1.276959	 0.233136
H	 0.092354	 -1.367347	 -1.397411
H	 0.475085	 -2.420186	 -0.066074
C	 -2.036420	 0.002286	 -0.194578
H	 -1.894276	 -2.133295	 -0.100377
H	 -1.289323	 -1.332479	 1.320449
C	 -3.488824	 0.053214	 0.284345
H	 -2.014309	 0.081415	 -1.280561
H	 -1.510745	 0.875036	 0.185259
C	 -4.212533	 1.332043	 -0.135783
H	 -4.026251	 -0.809307	 -0.103878
H	 -3.513495	 -0.035489	 1.368507
H	 -4.233532	 1.433405	 -1.217221
H	 -5.239383	 1.337269	 0.216620
H	 -3.720192	 2.212355	 0.267968

	symmetry c1
}
set optking {
	frozen_dihedral = ("
		14 10 7 4,
		14 10 13 16,
		8 4 3 2,
		10 13 16 20,
		20 16 19 22,
		4 3 2 1
	")
}

ee = energy('scf')
oeprop('DIPOLE', 'QUADRUPOLE', 'MULLIKEN_CHARGES')
f=open( 'psi4out.xyz', 'w' )
f.write( "27  " )
f.write( str(ee) + "\n" )
f.write( MOL.save_string_xyz() )
f.close()
--------------------------------------------------------------------------

    Molecular point group: c1

    Geometry (in Angstrom), charge = 0, multiplicity = 1:

       Center              X                  Y                   Z               Mass
    ------------   -----------------  -----------------  -----------------  -----------------
           H          2.591332356446     2.008856691534     0.336498499067     1.007825032070
           O          3.340732356446     1.661652691534    -0.124934500933    15.994914619560
           C          3.569237356446     0.334045691534     0.274188499067    12.000000000000
           C          2.539423356446    -0.645384308466    -0.278013500933    12.000000000000
           H          4.552762356446     0.079546691534    -0.099419500933     1.007825032070
           H          3.608232356446     0.264104691534     1.360635499067     1.007825032070
           C          1.115467356446    -0.402372308466     0.228111499067    12.000000000000
           H          2.555852356446    -0.587610308466    -1.363259500933     1.007825032070
           H          2.851737356446    -1.653130308466    -0.009173500933     1.007825032070
           C          0.113789356446    -1.428471308466    -0.309083500933    12.000000000000
           H          0.800234356446     0.596984691534    -0.058731500933     1.007825032070
           H          1.108346356446    -0.432912308466     1.317771499067     1.007825032070
           C         -1.312146643554    -1.282058308466     0.234617499067    12.000000000000
           H          0.092010356446    -1.372446308466    -1.395929500933     1.007825032070
           H          0.474741356446    -2.425285308466    -0.064592500933     1.007825032070
           C         -2.036763643554    -0.002813308466    -0.193096500933    12.000000000000
           H         -1.894619643554    -2.138394308466    -0.098895500933     1.007825032070
           H         -1.289666643554    -1.337578308466     1.321930499067     1.007825032070
           C         -3.489167643554     0.048114691534     0.285826499067    12.000000000000
           H         -2.014652643554     0.076315691534    -1.279079500933     1.007825032070
           H         -1.511088643554     0.869936691534     0.186740499067     1.007825032070
           C         -4.212876643554     1.326943691534    -0.134301500933    12.000000000000
           H         -4.026594643554    -0.814406308466    -0.102396500933     1.007825032070
           H         -3.513838643554    -0.040588308466     1.369988499067     1.007825032070
           H         -4.233875643554     1.428305691534    -1.215739500933     1.007825032070
           H         -5.239726643554     1.332169691534     0.218101499067     1.007825032070
           H         -3.720535643554     2.207255691534     0.269449499067     1.007825032070

  Charge       = 0
  Multiplicity = 1
  Basis Set: 6-31G*
  Basis Set:

    Orbital Energies (a.u.)
    -----------------------

    Doubly Occupied:

       1A    -20.552308     2A    -11.267070     3A    -11.219842
       4A    -11.217329     5A    -11.216158     6A    -11.215746
       7A    -11.215243     8A    -11.214387     9A    -11.209445
      10A     -1.359056    11A     -1.095271    12A     -1.061596
      13A     -1.011586    14A     -0.948544    15A     -0.888108
      16A     -0.819987    17A     -0.801672    18A     -0.778258
      19A     -0.693678    20A     -0.651997    21A     -0.638404
      22A     -0.614577    23A     -0.600155    24A     -0.583063
      25A     -0.580238    26A     -0.552516    27A     -0.541331
      28A     -0.531628    29A     -0.505275    30A     -0.493828
      31A     -0.485500    32A     -0.474247    33A     -0.469124
      34A     -0.461296    35A     -0.452191    36A     -0.441792
      37A     -0.422945

  @DF-RHF Final Energy:  -388.28175578661632

   => Energetics <=

    Nuclear Repulsion Energy =            459.7532068844420223
    One-Electron Energy =               -1437.4991457067865213
    Two-Electron Energy =                 589.4641830357262506
    DFT Exchange-Correlation Energy =       0.0000000000000000
    Empirical Dispersion Energy =           0.0000000000000000
    PCM Polarization Energy =               0.0000000000000000
    EFP Energy =                            0.0000000000000000
    Total Energy =                       -388.2817557866181915

  Mulliken Charges: (a.u.)
   Center  Symbol    Alpha    Beta     Spin     Total
       1     H     0.27990  0.27990  0.00000  0.44020
       2     O     4.37093  4.37093  0.00000 -0.74187
       3     C     2.99736  2.99736  0.00000  0.00528
       4     C     3.16096  3.16096  0.00000 -0.32192
       5     H     0.41442  0.41442  0.00000  0.17115
       6     H     0.43206  0.43206  0.00000  0.13589
       7     C     3.16323  3.16323  0.00000 -0.32647
       8     H     0.41497  0.41497  0.00000  0.17007
       9     H     0.42431  0.42431  0.00000  0.15138
      10     C     3.15207  3.15207  0.00000 -0.30414
      11     H     0.42300  0.42300  0.00000  0.15400
      12     H     0.42540  0.42540  0.00000  0.14920
      13     C     3.15355  3.15355  0.00000 -0.30710
      14     H     0.42159  0.42159  0.00000  0.15681
      15     H     0.42149  0.42149  0.00000  0.15703
      16     C     3.15233  3.15233  0.00000 -0.30466
      17     H     0.42121  0.42121  0.00000  0.15757
      18     H     0.42428  0.42428  0.00000  0.15144
      19     C     3.15124  3.15124  0.00000 -0.30248
      20     H     0.42355  0.42355  0.00000  0.15289
      21     H     0.42393  0.42393  0.00000  0.15213
      22     C     3.23917  3.23917  0.00000 -0.47834
      23     H     0.42282  0.42282  0.00000  0.15435
      24     H     0.42331  0.42331  0.00000  0.15338
      25     H     0.42142  0.42142  0.00000  0.15716
      26     H     0.41920  0.41920  0.00000  0.16160
      27     H     0.42229  0.42229  0.00000  0.15542

   Total alpha = 37.00000, Total beta = 37.00000, Total charge =  0.00000
