  ==> Input File <==

--------------------------------------------------------------------------
set {
	reference rhf
	basis 6-31G*
}

set_num_threads( 4 )
memory 2 gb

molecule MOL {
0 1

O	 2.862325	 1.357334	 0.000267
C	 2.843464	 0.164689	 -0.000222
C	 1.546494	 -0.624492	 -0.000609
C	 4.124123	 -0.644674	 -0.000428
C	 0.291004	 0.242674	 0.000989
H	 1.557904	 -1.283758	 -0.867573
H	 1.558622	 -1.285963	 0.864672
C	 -0.990048	 -0.580145	 -0.146104
H	 0.358520	 0.967844	 -0.803809
H	 0.256947	 0.817662	 0.920976
C	 -2.255483	 0.279160	 -0.147142
H	 -0.947697	 -1.156882	 -1.068940
H	 -1.050605	 -1.306398	 0.663190
C	 -3.541122	 -0.536661	 -0.294048
H	 -2.196356	 1.005069	 -0.956203
H	 -2.299320	 0.855498	 0.775306
C	 -4.800820	 0.328697	 -0.294456
H	 -3.498986	 -1.112291	 -1.216381
H	 -3.602101	 -1.261630	 0.515001
H	 -4.785860	 1.042302	 -1.113415
H	 -5.695112	 -0.277663	 -0.400615
H	 -4.890338	 0.891030	 0.630700
H	 4.165367	 -1.288615	 -0.874074
H	 4.976217	 0.020734	 -0.001915
H	 4.166763	 -1.286207	 0.874930

	symmetry c1
}
set optking {
	frozen_dihedral = ("
		9 5 3 6
	")
}

ee = optimize('scf')
oeprop('DIPOLE', 'QUADRUPOLE', 'MULLIKEN_CHARGES')
f=open( 'psi4out.xyz', 'w' )
f.write( "25  " )
f.write( str(ee) + "\n" )
f.write( MOL.save_string_xyz() )
f.close()
--------------------------------------------------------------------------

    Molecular point group: c1
  Charge       = 0
  Multiplicity = 1
  Basis Set: 6-31G*
  Basis Set:
  @DF-RHF Final Energy:  -387.13641903531715
    Total Energy =                       -387.1364190353179993
    Molecular point group: c1
  Basis Set: 6-31G*
  Basis Set:
  Basis Set: 6-31G*
  Basis Set:
  @DF-RHF Final Energy:  -387.13642867515114
    Total Energy =                       -387.1364286751509098
  Basis Set: 6-31G*
  Basis Set:
  Basis Set: 6-31G*
  Basis Set:
  @DF-RHF Final Energy:  -387.13643566481340
    Total Energy =                       -387.1364356648132343
  Basis Set: 6-31G*
  Basis Set:
  Basis Set: 6-31G*
  Basis Set:
  @DF-RHF Final Energy:  -387.13643804774466
    Total Energy =                       -387.1364380477446048
  Basis Set: 6-31G*
  Basis Set:
  Basis Set: 6-31G*
  Basis Set:
  @DF-RHF Final Energy:  -387.13643586430896
    Total Energy =                       -387.1364358643093055
  Basis Set: 6-31G*
  Basis Set:
  Basis Set: 6-31G*
  Basis Set:
  @DF-RHF Final Energy:  -387.13643788324896
    Total Energy =                       -387.1364378832494140
  Basis Set: 6-31G*
  Basis Set:
  Charge       = 0
  Multiplicity = 1
  Basis Set: 6-31G*
  Basis Set:

    Orbital Energies (a.u.)
    -----------------------

    Doubly Occupied:

       1A    -20.550551     2A    -11.326430     3A    -11.231869
       4A    -11.228387     5A    -11.217143     6A    -11.216513
       7A    -11.215403     8A    -11.213556     9A    -11.208335
      10A     -1.395856    11A     -1.093616    12A     -1.056331
      13A     -1.014563    14A     -0.969289    15A     -0.890756
      16A     -0.814198    17A     -0.790896    18A     -0.730132
      19A     -0.661426    20A     -0.652002    21A     -0.631752
      22A     -0.624157    23A     -0.595879    24A     -0.584328
      25A     -0.566589    26A     -0.559775    27A     -0.540312
      28A     -0.526207    29A     -0.512571    30A     -0.490205
      31A     -0.487600    32A     -0.472805    33A     -0.463860
      34A     -0.462278    35A     -0.450857    36A     -0.399646

  @DF-RHF Final Energy:  -387.13643838347724

   => Energetics <=

    Nuclear Repulsion Energy =            438.3152522009202698
    One-Electron Energy =               -1393.2112303712283392
    Two-Electron Energy =                 567.7595397868309419
    DFT Exchange-Correlation Energy =       0.0000000000000000
    Empirical Dispersion Energy =           0.0000000000000000
    PCM Polarization Energy =               0.0000000000000000
    EFP Energy =                            0.0000000000000000
    Total Energy =                       -387.1364383834771843
    Molecular point group: c1
  Basis Set: 6-31G*
  Basis Set:

  -Total Gradient:
     Atom            X                  Y                   Z
    ------   -----------------  -----------------  -----------------
       1        0.000005131687    -0.000000046293    -0.000000715761
       2       -0.000005481224    -0.000005770814    -0.000000973353
       3        0.000721197925     0.001052229075    -0.000508343081
       4        0.000002682676     0.000003410599    -0.000013981955
       5       -0.000678898505    -0.001000598361    -0.000642471717
       6       -0.000493152813    -0.000708472004     0.000530292376
       7       -0.000001766394    -0.000003931431    -0.000000565217
       8        0.000004485019     0.000005526903     0.000014617636
       9        0.000453925408     0.000665100011     0.000620166674
      10       -0.000003834062    -0.000007150372     0.000000414144
      11       -0.000001711892    -0.000002742533    -0.000001554129
      12       -0.000002933511     0.000005522435     0.000003119815
      13        0.000000399430    -0.000005585481     0.000001046322
      14       -0.000001034089     0.000002175082    -0.000008794267
      15        0.000001779853    -0.000001751835    -0.000000880509
      16       -0.000000871072     0.000000260696    -0.000001497770
      17       -0.000001146903    -0.000001218555     0.000005441267
      18       -0.000001739703     0.000000896670    -0.000002689922
      19        0.000002240069    -0.000000075723    -0.000002728167
      20        0.000000179327    -0.000002124218    -0.000000597762
      21       -0.000000761035    -0.000000008454     0.000002432209
      22       -0.000000016191     0.000002217060    -0.000000150204
      23        0.000000713044    -0.000003501937     0.000003811057
      24        0.000003195865    -0.000001182832     0.000001182463
      25       -0.000002582917     0.000006822308     0.000003419851

  **** Optimization is complete! (in 7 steps) ****
    Final optimized geometry and variables:
    Molecular point group: c1

    Geometry (in Angstrom), charge = 0, multiplicity = 1:

    O            2.862248728726     1.352969346276     0.112667707126
    C            2.841862184167     0.160384634592     0.104034468322
    C            1.544241409572    -0.626858810247     0.086537392372
    C            4.121334816564    -0.650738461800     0.112461004299
    C            0.287956588656     0.239485766737     0.075863974964
    H            1.562508654892    -1.291961498391    -0.775872549561
    H            1.545523270355    -1.287310083371     0.952911962928
    C           -0.993522288817    -0.583932168280    -0.059774728411
    H            0.358203811562     0.960188030106    -0.732291952065
    H            0.254449657530     0.824174109801     0.990345461827
    C           -2.259388761653     0.274700706996    -0.052512248007
    H           -0.957486489423    -1.161508940069    -0.982308215770
    H           -1.047726819279    -1.309450584558     0.750684410878
    C           -3.545409505332    -0.541664549395    -0.192927551417
    H           -2.205148957806     1.001504105877    -0.861076841360
    H           -2.298294186011     0.849962020587     0.870828082978
    C           -4.805653971674     0.322839712689    -0.183037692338
    H           -3.508948177808    -1.115106917568    -1.116866315217
    H           -3.600599278998    -1.268561967713     0.614805210094
    H           -4.796909019604     1.037799319338    -1.000889025223
    H           -5.700248799641    -0.283955314201    -0.283923503150
    H           -4.889058708389     0.883574225211     0.743660514457
    H            4.170808044428    -1.289726886680    -0.764365454901
    H            4.974282713482     0.013469291677     0.123743986722
    H            4.153955167694    -1.297274904872     0.984571732202

  Mulliken Charges: (a.u.)
   Center  Symbol    Alpha    Beta     Spin     Total
       1     O     4.26115  4.26115  0.00000 -0.52229
       2     C     2.73556  2.73556  0.00000  0.52888
       3     C     3.21117  3.21117  0.00000 -0.42233
       4     C     3.28666  3.28666  0.00000 -0.57332
       5     C     3.14830  3.14830  0.00000 -0.29661
       6     H     0.41008  0.41008  0.00000  0.17983
       7     H     0.40984  0.40984  0.00000  0.18031
       8     C     3.15392  3.15392  0.00000 -0.30784
       9     H     0.41040  0.41040  0.00000  0.17920
      10     H     0.41372  0.41372  0.00000  0.17256
      11     C     3.15077  3.15077  0.00000 -0.30155
      12     H     0.42467  0.42467  0.00000  0.15066
      13     H     0.42495  0.42495  0.00000  0.15010
      14     C     3.15152  3.15152  0.00000 -0.30304
      15     H     0.42223  0.42223  0.00000  0.15553
      16     H     0.42258  0.42258  0.00000  0.15484
      17     C     3.23933  3.23933  0.00000 -0.47867
      18     H     0.42349  0.42349  0.00000  0.15303
      19     H     0.42358  0.42358  0.00000  0.15285
      20     H     0.42131  0.42131  0.00000  0.15738
      21     H     0.41953  0.41953  0.00000  0.16095
      22     H     0.42141  0.42141  0.00000  0.15717
      23     H     0.40872  0.40872  0.00000  0.18257
      24     H     0.39645  0.39645  0.00000  0.20710
      25     H     0.40866  0.40866  0.00000  0.18268

   Total alpha = 36.00000, Total beta = 36.00000, Total charge = -0.00000
