                              Psi4 1.0.54 Driver

  ==> Input File <==

--------------------------------------------------------------------------
set {
	reference rhf
	basis cc-pvtz
}

set_num_threads( 4 )
memory 2 gb

molecule MOL {
0 1

O	 2.789100	 1.476262	 -0.340569
C	 2.598874	 0.541627	 -1.047946
C	 1.308616	 -0.251995	 -1.012880
C	 3.642332	 0.078527	 -2.039388
C	 0.288398	 0.247429	 0.000314
H	 0.891017	 -0.242393	 -2.017164
H	 1.568068	 -1.290286	 -0.818868
C	 -0.993089	 -0.581367	 -0.000217
H	 0.056231	 1.285026	 -0.210883
H	 0.733978	 0.236316	 0.988478
C	 -2.258482	 0.271340	 0.000669
H	 -1.002280	 -1.233920	 -0.870484
H	 -1.002061	 -1.235367	 0.868958
C	 -3.544441	 -0.550271	 -0.000253
H	 -2.250545	 0.925250	 -0.867923
H	 -2.250598	 0.923423	 0.870642
C	 -4.804551	 0.308747	 0.000556
H	 -3.553737	 -1.201524	 -0.870151
H	 -3.553831	 -1.203282	 0.868313
H	 -4.842050	 0.949078	 -0.874436
H	 -5.698404	 -0.304480	 -0.000254
H	 -4.842277	 0.947103	 0.876982
H	 3.240178	 0.106328	 -3.046139
H	 4.512809	 0.713278	 -1.978135
H	 3.924033	 -0.948240	 -1.833390

	symmetry c1
}
set optking {
	frozen_dihedral = ("
		9 5 8 12
	")
}

ee,wfn = optimize('scf', return_wfn=True)
oeprop( wfn, 'DIPOLE', 'QUADRUPOLE', 'MULLIKEN_CHARGES')
f=open( 'psi4out.xyz', 'w' )
f.write( "25  " )
f.write( str(ee) + "\n" )
f.write( MOL.save_string_xyz() )
f.close()
--------------------------------------------------------------------------

    Molecular point group: c1
  Charge       = 0
  Multiplicity = 1
  Basis Set: CC-PVTZ
  Basis Set:
  @DF-RHF Final Energy:  -387.26957173735019
    Total Energy =                       -387.2695717373503612
    Molecular point group: c1
  Basis Set: CC-PVTZ
  Basis Set:
  Basis Set: CC-PVTZ
  Basis Set:
  @DF-RHF Final Energy:  -387.26984979473656
    Total Energy =                       -387.2698497947358192
  Basis Set: CC-PVTZ
  Basis Set:
  Basis Set: CC-PVTZ
  Basis Set:
  @DF-RHF Final Energy:  -387.26978820916997
    Total Energy =                       -387.2697882091702013
  Basis Set: CC-PVTZ
  Basis Set:
  Basis Set: CC-PVTZ
  Basis Set:
  @DF-RHF Final Energy:  -387.26991341905165
    Total Energy =                       -387.2699134190515906
  Basis Set: CC-PVTZ
  Basis Set:
  Basis Set: CC-PVTZ
  Basis Set:
  @DF-RHF Final Energy:  -387.26992268141151
    Total Energy =                       -387.2699226814113445
  Basis Set: CC-PVTZ
  Basis Set:
  Basis Set: CC-PVTZ
  Basis Set:
  @DF-RHF Final Energy:  -387.26992369154266
    Total Energy =                       -387.2699236915423171
  Basis Set: CC-PVTZ
  Basis Set:
  Charge       = 0
  Multiplicity = 1
  Basis Set: CC-PVTZ
  Basis Set:

    Orbital Energies (a.u.)
    -----------------------

    Doubly Occupied:

       1A    -20.538993     2A    -11.320425     3A    -11.230788
       4A    -11.226627     5A    -11.214856     6A    -11.214277
       7A    -11.213733     8A    -11.212496     9A    -11.206882
      10A     -1.398943    11A     -1.093692    12A     -1.057740
      13A     -1.014875    14A     -0.970337    15A     -0.891746
      16A     -0.815999    17A     -0.792001    18A     -0.732475
      19A     -0.660302    20A     -0.650376    21A     -0.637186
      22A     -0.625240    23A     -0.597620    24A     -0.581637
      25A     -0.568015    26A     -0.563843    27A     -0.541315
      28A     -0.525313    29A     -0.516247    30A     -0.494796
      31A     -0.487031    32A     -0.475543    33A     -0.464877
      34A     -0.459991    35A     -0.449083    36A     -0.401371

  @DF-RHF Final Energy:  -387.26992402258202

   => Energetics <=

    Nuclear Repulsion Energy =            439.5577255298267119
    One-Electron Energy =               -1395.9619576424920524
    Two-Electron Energy =                 569.1343080900830955
    DFT Exchange-Correlation Energy =       0.0000000000000000
    Empirical Dispersion Energy =           0.0000000000000000
    PCM Polarization Energy =               0.0000000000000000
    EFP Energy =                            0.0000000000000000
    Total Energy =                       -387.2699240225822450
    Molecular point group: c1
  Basis Set: CC-PVTZ
  Basis Set:

  -Total Gradient:
     Atom            X                  Y                   Z
    ------   -----------------  -----------------  -----------------
       1       -0.000001497296    -0.000002015154     0.000011862687
       2       -0.000004857282     0.000015784912    -0.000023783253
       3        0.000018712181    -0.000002338730     0.000010983778
       4        0.000000819554    -0.000012482798     0.000009338999
       5        0.000833069942    -0.001243130045    -0.003575624555
       6       -0.000000810997     0.000004041234    -0.000002068219
       7        0.000001150171    -0.000005483251     0.000000071571
       8       -0.001988280902     0.003019030996    -0.001364149912
       9       -0.000350196634     0.000562947610     0.003225549048
      10        0.000008570467     0.000009892491    -0.000008053614
      11       -0.000017229091    -0.000006048344     0.000000841657
      12        0.001502235639    -0.002345214329     0.001730476002
      13       -0.000008865737    -0.000003968741    -0.000012396332
      14       -0.000002683790    -0.000001414527    -0.000002876400
      15       -0.000003681547    -0.000002790259    -0.000006379124
      16       -0.000001752562     0.000007489065     0.000003604317
      17        0.000009926115     0.000006982108     0.000007292783
      18        0.000005212836    -0.000001227467    -0.000005975397
      19        0.000002684296    -0.000002630337     0.000005025858
      20       -0.000000417924     0.000002330671    -0.000006264580
      21        0.000002841536    -0.000005813135     0.000001050870
      22       -0.000002976234     0.000005392890     0.000005168989
      23       -0.000002792843     0.000001090097    -0.000003465940
      24       -0.000000833997     0.000002837791     0.000002783594
      25        0.000001654100    -0.000003262750    -0.000003012829

  **** Optimization is complete! (in 7 steps) ****
    Final optimized geometry and variables:
    Molecular point group: c1

    Geometry (in Angstrom), charge = 0, multiplicity = 1:

    O            2.917702726999     1.294371956335     0.165102838668
    C            2.736899676436     0.363375714593    -0.549518394710
    C            1.438013049089    -0.416858065522    -0.551533241653
    C            3.801636684462    -0.108211062368    -1.514104884335
    C            0.395508415206     0.089184850523     0.434465761595
    H            1.047135478199    -0.400537014614    -1.566388143354
    H            1.680528732256    -1.458586868007    -0.353201052879
    C           -0.898143713048    -0.746425533904     0.435418796741
    H            0.171149683224     1.128605817655     0.227442492779
    H            0.829497306931     0.094510255127     1.426751628005
    C           -2.170337864068     0.093992925945     0.482335651679
    H           -0.922821957009    -1.401240312844    -0.431832641342
    H           -0.888628874171    -1.416767400164     1.290291257717
    C           -3.447916593390    -0.737817067630     0.537358199906
    H           -2.201438754713     0.744092093813    -0.388989498312
    H           -2.131762699745     0.751040879589     1.347987835229
    C           -4.714506949853     0.110736109833     0.577735161037
    H           -3.484057910230    -1.397619658109    -0.325528609191
    H           -3.418751031608    -1.382483036958     1.411586819901
    H           -4.791167480907     0.741770640311    -0.301522274690
    H           -5.602328360953    -0.509923498500     0.617241278992
    H           -4.724307266562     0.757639381144     1.448629757943
    H            3.426399489838    -0.074972151622    -2.531025756639
    H            4.676279364647     0.518069871617    -1.428948182249
    H            4.068019655030    -1.137925387075    -1.302456099101

  Mulliken Charges: (a.u.)
   Center  Symbol    Alpha    Beta     Spin     Total
       1     O     4.17032  4.17032  0.00000 -0.34064
       2     C     2.86372  2.86372  0.00000  0.27257
       3     C     3.11290  3.11290  0.00000 -0.22581
       4     C     3.15118  3.15118  0.00000 -0.30237
       5     C     3.09032  3.09032  0.00000 -0.18064
       6     H     0.44454  0.44454  0.00000  0.11092
       7     H     0.44342  0.44342  0.00000  0.11316
       8     C     3.09471  3.09471  0.00000 -0.18943
       9     H     0.44554  0.44554  0.00000  0.10892
      10     H     0.44342  0.44342  0.00000  0.11317
      11     C     3.08621  3.08621  0.00000 -0.17242
      12     H     0.45655  0.45655  0.00000  0.08691
      13     H     0.45136  0.45136  0.00000  0.09728
      14     C     3.08487  3.08487  0.00000 -0.16974
      15     H     0.45485  0.45485  0.00000  0.09030
      16     H     0.45162  0.45162  0.00000  0.09676
      17     C     3.15000  3.15000  0.00000 -0.30001
      18     H     0.45512  0.45512  0.00000  0.08976
      19     H     0.45455  0.45455  0.00000  0.09090
      20     H     0.45527  0.45527  0.00000  0.08946
      21     H     0.44862  0.44862  0.00000  0.10275
      22     H     0.45458  0.45458  0.00000  0.09083
      23     H     0.45054  0.45054  0.00000  0.09893
      24     H     0.43537  0.43537  0.00000  0.12926
      25     H     0.45042  0.45042  0.00000  0.09917

   Total alpha = 36.00000, Total beta = 36.00000, Total charge = -0.00000

*** Psi4 exiting successfully. Buy a developer a beer!
