  ==> Input File <==

--------------------------------------------------------------------------
set {
	reference rhf
	basis 6-31G*
}

set_num_threads( 4 )
memory 2 gb

molecule MOL {
0 1

O	 2.862325	 1.357334	 0.000267
C	 2.843464	 0.164689	 -0.000222
C	 1.546494	 -0.624492	 -0.000609
C	 4.124123	 -0.644674	 -0.000428
C	 0.291004	 0.242674	 0.000989
H	 1.557904	 -1.283758	 -0.867573
H	 1.558622	 -1.285963	 0.864672
C	 0.028759	 0.897123	 -1.356467
H	 0.386934	 1.006088	 0.766578
H	 -0.560943	 -0.365319	 0.288529
C	 -1.227122	 1.770276	 -1.366342
H	 0.888411	 1.502502	 -1.640298
H	 -0.064778	 0.126020	 -2.119827
C	 -1.496153	 2.428533	 -2.720718
H	 -1.134416	 2.541906	 -0.604101
H	 -2.087260	 1.165945	 -1.083598
C	 -2.752141	 3.299266	 -2.722588
H	 -0.637524	 3.033852	 -3.003858
H	 -1.590518	 1.658125	 -3.483230
H	 -2.674570	 4.100667	 -1.993281
H	 -2.915758	 3.752380	 -3.695531
H	 -3.634491	 2.714984	 -2.477193
H	 4.165367	 -1.288615	 -0.874074
H	 4.976217	 0.020734	 -0.001915
H	 4.166763	 -1.286207	 0.874930

	symmetry c1
}
set optking {
	frozen_dihedral = ("
		9 5 3 6
	")
}

ee = optimize('scf')
oeprop('DIPOLE', 'QUADRUPOLE', 'MULLIKEN_CHARGES')
f=open( 'psi4out.xyz', 'w' )
f.write( "25  " )
f.write( str(ee) + "\n" )
f.write( MOL.save_string_xyz() )
f.close()
--------------------------------------------------------------------------

    Molecular point group: c1
  Charge       = 0
  Multiplicity = 1
  Basis Set: 6-31G*
  Basis Set:
  @DF-RHF Final Energy:  -387.13559710246619
    Total Energy =                       -387.1355971024663631
    Molecular point group: c1
  Basis Set: 6-31G*
  Basis Set:
  Basis Set: 6-31G*
  Basis Set:
  @DF-RHF Final Energy:  -387.13577171676604
    Total Energy =                       -387.1357717167660439
  Basis Set: 6-31G*
  Basis Set:
  Basis Set: 6-31G*
  Basis Set:
  @DF-RHF Final Energy:  -387.13586482390969
    Total Energy =                       -387.1358648239101967
  Basis Set: 6-31G*
  Basis Set:
  Basis Set: 6-31G*
  Basis Set:
  @DF-RHF Final Energy:  -387.13594148600208
    Total Energy =                       -387.1359414860022525
  Basis Set: 6-31G*
  Basis Set:
  @DF-RHF Final Energy:  -387.13597886202314
    Total Energy =                       -387.1359788620235349
  @DF-RHF Final Energy:  -387.13601878808339
    Total Energy =                       -387.1360187880828789
  @DF-RHF Final Energy:  -387.13603581803250
    Total Energy =                       -387.1360358180328376
  Basis Set: 6-31G*
  Basis Set:
  @DF-RHF Final Energy:  -387.13604363481591
    Total Energy =                       -387.1360436348151097
  Basis Set: 6-31G*
  Basis Set:
  Basis Set: 6-31G*
  Basis Set:
  @DF-RHF Final Energy:  -387.13605181249528
    Total Energy =                       -387.1360518124956798
  Basis Set: 6-31G*
  Basis Set:
  Basis Set: 6-31G*
  Basis Set:
  @DF-RHF Final Energy:  -387.13605287198425
    Total Energy =                       -387.1360528719839067
  Basis Set: 6-31G*
  Basis Set:
  Charge       = 0
  Multiplicity = 1
  Basis Set: 6-31G*
  Basis Set:

    Orbital Energies (a.u.)
    -----------------------

    Doubly Occupied:

       1A    -20.551145     2A    -11.327343     3A    -11.232288
       4A    -11.228955     5A    -11.217115     6A    -11.211871
       7A    -11.210878     8A    -11.209838     9A    -11.205680
      10A     -1.396609    11A     -1.090746    12A     -1.054647
      13A     -1.013656    14A     -0.967326    15A     -0.888653
      16A     -0.814840    17A     -0.787555    18A     -0.727628
      19A     -0.668417    20A     -0.637156    21A     -0.632108
      22A     -0.623189    23A     -0.591232    24A     -0.584851
      25A     -0.573598    26A     -0.556546    27A     -0.533770
      28A     -0.525353    29A     -0.515998    30A     -0.496637
      31A     -0.481756    32A     -0.474698    33A     -0.460261
      34A     -0.458479    35A     -0.439627    36A     -0.400963

  @DF-RHF Final Energy:  -387.13605324837704

   => Energetics <=

    Nuclear Repulsion Energy =            447.6964518057177429
    One-Electron Energy =               -1412.0821893612821896
    Two-Electron Energy =                 577.2496843071872945
    DFT Exchange-Correlation Energy =       0.0000000000000000
    Empirical Dispersion Energy =           0.0000000000000000
    PCM Polarization Energy =               0.0000000000000000
    EFP Energy =                            0.0000000000000000
    Total Energy =                       -387.1360532483771522
    Molecular point group: c1
  Basis Set: 6-31G*
  Basis Set:

  -Total Gradient:
     Atom            X                  Y                   Z
    ------   -----------------  -----------------  -----------------
       1       -0.000003403654    -0.000003240899    -0.000000176136
       2       -0.000005894651     0.000019998897    -0.000001413774
       3       -0.000464069455    -0.000648346347     0.000472318478
       4       -0.000006296008    -0.000005233343     0.000026057659
       5       -0.000349449741    -0.000492669755     0.000623948476
       6        0.000432248071     0.000603275505    -0.000489362301
       7       -0.000004246120     0.000006183704    -0.000009182896
       8       -0.000004287847    -0.000010192036    -0.000007891239
       9        0.000394178648     0.000520911436    -0.000597857443
      10       -0.000004470858    -0.000002541953     0.000008679386
      11        0.000019336112     0.000016910528     0.000009163556
      12       -0.000007209483     0.000007635358     0.000004234617
      13        0.000008603751     0.000003862707    -0.000007092599
      14       -0.000015183950    -0.000020830788    -0.000008237832
      15       -0.000005779113     0.000004458941     0.000001660636
      16        0.000012599253    -0.000004971995    -0.000002328400
      17        0.000005994479     0.000011339361     0.000000293277
      18       -0.000003493277    -0.000006576944     0.000002020569
      19       -0.000003885572    -0.000002827421    -0.000002919845
      20       -0.000004038469    -0.000001706397     0.000004337027
      21        0.000001696800     0.000006091594     0.000000875654
      22        0.000002596329    -0.000001853398    -0.000005393072
      23        0.000005979198    -0.000003434128    -0.000012524683
      24        0.000000513577    -0.000005020023    -0.000002447660
      25       -0.000002038019     0.000008777396    -0.000006761457

  **** Optimization is complete! (in 11 steps) ****
    Final optimized geometry and variables:
    Molecular point group: c1

    Geometry (in Angstrom), charge = 0, multiplicity = 1:

    O            2.195943058156     0.347228275219     1.148892613891
    C            2.153556607271    -0.832506389868     0.976294293908
    C            0.845683248059    -1.606550610517     0.951436182869
    C            3.416359615349    -1.645464648648     0.780759843168
    C           -0.407323968454    -0.732551721299     0.907486203972
    H            0.871159279505    -2.293997659838     0.108002445198
    H            0.841825740854    -2.233835060265     1.842048466849
    C           -0.662609526010    -0.102652103640    -0.463966882404
    H           -0.314493056519     0.051264778460     1.650864175217
    H           -1.264120098554    -1.340564622274     1.187203352681
    C           -1.916693988943     0.772321234178    -0.491647001503
    H            0.197362837398     0.495380927416    -0.750808911451
    H           -0.759475897578    -0.891433422608    -1.209407135263
    C           -2.185582498707     1.399608910821    -1.860685098281
    H           -1.818443379980     1.561696872272     0.251157979051
    H           -2.779596230784     0.178157398595    -0.193924388717
    C           -3.436423280938     2.277515459921    -1.880353828778
    H           -1.323996751331     1.992770464603    -2.159059599204
    H           -2.286390421916     0.611940747794    -2.604674355314
    H           -3.352082774780     3.095293248432    -1.170271694974
    H           -3.599633374207     2.708837173538    -2.863263768532
    H           -4.321966634209     1.704589260041    -1.619498671914
    H            3.467415320790    -1.997346228683    -0.246136254430
    H            4.282499345644    -1.032859203597     0.989086184280
    H            3.420803869459    -2.521117544786     1.422350075680

  Mulliken Charges: (a.u.)
   Center  Symbol    Alpha    Beta     Spin     Total
       1     O     4.26282  4.26282  0.00000 -0.52564
       2     C     2.73540  2.73540  0.00000  0.52920
       3     C     3.21188  3.21188  0.00000 -0.42375
       4     C     3.28707  3.28707  0.00000 -0.57414
       5     C     3.15139  3.15139  0.00000 -0.30278
       6     H     0.41153  0.41153  0.00000  0.17695
       7     H     0.40521  0.40521  0.00000  0.18959
       8     C     3.15650  3.15650  0.00000 -0.31300
       9     H     0.40611  0.40611  0.00000  0.18778
      10     H     0.42107  0.42107  0.00000  0.15787
      11     C     3.15143  3.15143  0.00000 -0.30285
      12     H     0.41122  0.41122  0.00000  0.17756
      13     H     0.42823  0.42823  0.00000  0.14354
      14     C     3.15157  3.15157  0.00000 -0.30314
      15     H     0.42057  0.42057  0.00000  0.15885
      16     H     0.42591  0.42591  0.00000  0.14819
      17     C     3.23929  3.23929  0.00000 -0.47859
      18     H     0.42149  0.42149  0.00000  0.15701
      19     H     0.42455  0.42455  0.00000  0.15090
      20     H     0.42109  0.42109  0.00000  0.15782
      21     H     0.41985  0.41985  0.00000  0.16030
      22     H     0.42261  0.42261  0.00000  0.15478
      23     H     0.40635  0.40635  0.00000  0.18730
      24     H     0.39661  0.39661  0.00000  0.20677
      25     H     0.41025  0.41025  0.00000  0.17950

   Total alpha = 36.00000, Total beta = 36.00000, Total charge =  0.00000
