  ==> Input File <==

--------------------------------------------------------------------------
set {
	reference rhf
	basis 6-31G*
}

set_num_threads( 4 )
memory 2 gb

molecule MOL {
0 1

H	 -2.798360	 -0.862255	 -0.071053
N	 -1.863561	 -0.715187	 0.256814
C	 -1.344686	 0.554728	 -0.219830
H	 -1.300452	 -1.461917	 -0.101532
C	 0.081427	 0.741154	 0.254071
H	 -1.362155	 0.656231	 -1.305829
H	 -1.952773	 1.354456	 0.191809
O	 0.874168	 -0.245412	 -0.342030
H	 0.444037	 1.730782	 -0.023037
H	 0.121165	 0.653424	 1.337565
C	 0.428279	 -0.662090	 -1.593083
H	 1.113087	 -1.419304	 -1.949962
H	 -0.570924	 -1.090395	 -1.537132
H	 0.411348	 0.161613	 -2.303741

	symmetry c1
}
set optking {
	frozen_dihedral = ("
		11 8 5 3
	")
}

ee = optimize('scf')
oeprop('DIPOLE', 'QUADRUPOLE', 'MULLIKEN_CHARGES')
f=open( 'psi4out.xyz', 'w' )
f.write( "14  " )
f.write( str(ee) + "\n" )
f.write( MOL.save_string_xyz() )
f.close()
--------------------------------------------------------------------------

    Molecular point group: c1
  Charge       = 0
  Multiplicity = 1
  Basis Set: 6-31G*
  Basis Set:
  @DF-RHF Final Energy:  -248.09818409513622
    Total Energy =                       -248.0981840951361050
    Molecular point group: c1
  Basis Set: 6-31G*
  Basis Set:
  Basis Set: 6-31G*
  Basis Set:
  @DF-RHF Final Energy:  -248.10895932852526
    Total Energy =                       -248.1089593285253159
  Basis Set: 6-31G*
  Basis Set:
  Basis Set: 6-31G*
  Basis Set:
  @DF-RHF Final Energy:  -248.11384663653050
    Total Energy =                       -248.1138466365303543
  Basis Set: 6-31G*
  Basis Set:
  Basis Set: 6-31G*
  Basis Set:
  @DF-RHF Final Energy:  -248.11446033019996
    Total Energy =                       -248.1144603302000178
  Basis Set: 6-31G*
  Basis Set:
  Basis Set: 6-31G*
  Basis Set:
  @DF-RHF Final Energy:  -248.11451964023647
    Total Energy =                       -248.1145196402365514
  Basis Set: 6-31G*
  Basis Set:
  Basis Set: 6-31G*
  Basis Set:
  @DF-RHF Final Energy:  -248.11452777337439
    Total Energy =                       -248.1145277733745615
  Basis Set: 6-31G*
  Basis Set:
  Charge       = 0
  Multiplicity = 1
  Basis Set: 6-31G*
  Basis Set:

    Orbital Energies (a.u.)
    -----------------------

    Doubly Occupied:

       1A    -20.553161     2A    -15.538987     3A    -11.268519
       4A    -11.266939     5A    -11.249029     6A     -1.373499
       7A     -1.181608     8A     -1.001139     9A     -0.925630
      10A     -0.806180    11A     -0.688264    12A     -0.676439
      13A     -0.646814    14A     -0.616041    15A     -0.603406
      16A     -0.545879    17A     -0.538941    18A     -0.523556
      19A     -0.453836    20A     -0.410877    21A     -0.388239

  @DF-RHF Final Energy:  -248.11452873848742

   => Energetics <=

    Nuclear Repulsion Energy =            197.2167338374242718
    One-Electron Energy =                -728.1485607548377175
    Two-Electron Energy =                 282.8172981789260803
    DFT Exchange-Correlation Energy =       0.0000000000000000
    Empirical Dispersion Energy =           0.0000000000000000
    PCM Polarization Energy =               0.0000000000000000
    EFP Energy =                            0.0000000000000000
    Total Energy =                       -248.1145287384873654
    Molecular point group: c1
  Basis Set: 6-31G*
  Basis Set:

  -Total Gradient:
     Atom            X                  Y                   Z
    ------   -----------------  -----------------  -----------------
       1       -0.000062264579    -0.000031439921    -0.000039055356
       2        0.000047597360     0.000035997628     0.000100056573
       3        0.000816238383     0.003544974600    -0.004063060870
       4        0.000003253186    -0.000020166406    -0.000030282671
       5       -0.002651697630    -0.007537261867     0.007118006002
       6       -0.000003638899     0.000018820712     0.000000002143
       7       -0.000029103483    -0.000002880550     0.000009349719
       8        0.004975008777     0.008600202578    -0.005512611528
       9       -0.000000940319     0.000000863459     0.000014165825
      10       -0.000016948852     0.000002795936    -0.000007558404
      11       -0.003063232353    -0.004600701484     0.002340790283
      12        0.000005142257    -0.000023441215    -0.000001308426
      13       -0.000007472817     0.000012603747     0.000057518009
      14       -0.000011941035    -0.000000367218     0.000013988703

  **** Optimization is complete! (in 7 steps) ****
    Final optimized geometry and variables:
    Molecular point group: c1

    Geometry (in Angstrom), charge = 0, multiplicity = 1:

    H           -2.606909588944    -0.635271588890     0.455679585660
    N           -1.651550881682    -0.545187465155     0.741634677071
    C           -1.047186676370     0.659058160134     0.194459385224
    H           -1.167900380279    -1.367216276040     0.438384889625
    C            0.424851613661     0.755240503574     0.567358974918
    H           -1.170009601721     0.766718922813    -0.882993021926
    H           -1.540866058942     1.513015623889     0.647436509512
    O            1.301184408175    -0.149755187110    -0.060528315837
    H            0.759910188598     1.766996670190     0.342144040065
    H            0.534028596590     0.592735383250     1.630612073122
    C            1.010831558478    -0.611404955067    -1.341119941890
    H            1.837138234469    -1.244302835339    -1.634846568214
    H            0.099180958400    -1.199902767363    -1.379988642509
    H            0.926152064570     0.199058124353    -2.062687853001

  Mulliken Charges: (a.u.)
   Center  Symbol    Alpha    Beta     Spin     Total
       1     H     0.33100  0.33100  0.00000  0.33800
       2     N     3.92432  3.92432  0.00000 -0.84865
       3     C     3.08828  3.08828  0.00000 -0.17656
       4     H     0.32643  0.32643  0.00000  0.34714
       5     C     2.98415  2.98415  0.00000  0.03169
       6     H     0.42816  0.42816  0.00000  0.14368
       7     H     0.41371  0.41371  0.00000  0.17258
       8     O     4.31205  4.31205  0.00000 -0.62410
       9     H     0.42893  0.42893  0.00000  0.14214
      10     H     0.40762  0.40762  0.00000  0.18475
      11     C     3.07972  3.07972  0.00000 -0.15943
      12     H     0.41016  0.41016  0.00000  0.17969
      13     H     0.43583  0.43583  0.00000  0.12834
      14     H     0.42964  0.42964  0.00000  0.14072

   Total alpha = 21.00000, Total beta = 21.00000, Total charge = -0.00000
