  ==> Input File <==

--------------------------------------------------------------------------
set {
	reference rhf
	basis 6-31G*
}

set_num_threads( 4 )
memory 2 gb

molecule MOL {
0 1

H	 -0.367348	 2.047014	 -0.308205
C	 0.352277	 1.337084	 0.083769
N	 -0.000016	 0.000074	 -0.335546
H	 1.328359	 1.600444	 -0.307950
H	 0.381933	 1.450534	 1.172486
C	 0.419788	 -0.268537	 -1.691968
C	 0.484027	 -1.000688	 0.587674
H	 0.076835	 -1.251270	 -1.995235
H	 -0.019213	 0.460239	 -2.364000
H	 1.506876	 -0.234774	 -1.818386
H	 0.091884	 -0.806530	 1.579592
H	 0.141132	 -1.981969	 0.279536
H	 1.576567	 -1.028761	 0.654727

	symmetry c1
}
set optking {
	frozen_dihedral = ("
		6 3 2 1
	")
}

ee = optimize('scf')
oeprop('DIPOLE', 'QUADRUPOLE', 'MULLIKEN_CHARGES')
f=open( 'psi4out.xyz', 'w' )
f.write( "13  " )
f.write( str(ee) + "\n" )
f.write( MOL.save_string_xyz() )
f.close()
--------------------------------------------------------------------------

    Molecular point group: c1
  Charge       = 0
  Multiplicity = 1
  Basis Set: 6-31G*
  Basis Set:
  @DF-RHF Final Energy:  -173.26592338422313
    Total Energy =                       -173.2659233842232425
    Molecular point group: c1
  Basis Set: 6-31G*
  Basis Set:
  Basis Set: 6-31G*
  Basis Set:
  @DF-RHF Final Energy:  -173.26703890593501
    Total Energy =                       -173.2670389059349532
  Basis Set: 6-31G*
  Basis Set:
  Basis Set: 6-31G*
  Basis Set:
  @DF-RHF Final Energy:  -173.26717214997905
    Total Energy =                       -173.2671721499790181
  Basis Set: 6-31G*
  Basis Set:
  Charge       = 0
  Multiplicity = 1
  Basis Set: 6-31G*
  Basis Set:

    Orbital Energies (a.u.)
    -----------------------

    Doubly Occupied:

       1A    -15.543973     2A    -11.235701     3A    -11.235537
       4A    -11.235481     5A     -1.224272     6A     -0.951531
       7A     -0.950336     8A     -0.807272     9A     -0.641750
      10A     -0.630056    11A     -0.627654    12A     -0.549579
      13A     -0.543449    14A     -0.515094    15A     -0.500652
      16A     -0.497860    17A     -0.348145

  @DF-RHF Final Energy:  -173.26717579504663

   => Energetics <=

    Nuclear Repulsion Energy =            139.2294082523089855
    One-Electron Energy =                -508.9164847569244330
    Two-Electron Energy =                 196.4199007095687932
    DFT Exchange-Correlation Energy =       0.0000000000000000
    Empirical Dispersion Energy =           0.0000000000000000
    PCM Polarization Energy =               0.0000000000000000
    EFP Energy =                            0.0000000000000000
    Total Energy =                       -173.2671757950466542
    Molecular point group: c1
  Basis Set: 6-31G*
  Basis Set:

  -Total Gradient:
     Atom            X                  Y                   Z
    ------   -----------------  -----------------  -----------------
       1       -0.002757611293    -0.000417167742     0.004127947837
       2        0.004529954158     0.000063682897    -0.004817559765
       3       -0.004961555203     0.001625692522    -0.000635553562
       4        0.000053275748    -0.000006359680    -0.000014235779
       5       -0.000003913769    -0.000008071395    -0.000038846723
       6        0.003224332478    -0.001145569676     0.001488759599
       7       -0.000160451415     0.000018063293    -0.000148496183
       8       -0.000003707455    -0.000012869477     0.000030375671
       9       -0.000003245870     0.000014429305    -0.000050210670
      10        0.000019426421    -0.000021780139    -0.000003121327
      11        0.000032030047    -0.000022664451    -0.000001183294
      12        0.000032268549    -0.000095789277     0.000053834462
      13       -0.000000802397     0.000008403823     0.000008289734

  **** Optimization is complete! (in 4 steps) ****
    Final optimized geometry and variables:
    Molecular point group: c1

    Geometry (in Angstrom), charge = 0, multiplicity = 1:

    H           -0.683830330850     2.045356163821     0.011360594169
    C            0.026275884015     1.327471122118     0.408742390815
    N           -0.345505094334    -0.016256628083     0.011229767806
    H            1.035964590952     1.605343885194     0.098073156185
    H           -0.022797751984     1.413439041064     1.488190261503
    C            0.070855066615    -0.297072243194    -1.344919783484
    C            0.162590352467    -1.017685445853     0.925031666575
    H           -0.293982676359    -1.271161115466    -1.650662962974
    H           -0.347525925810     0.441928819352    -2.019795806086
    H            1.158743843070    -0.286330050151    -1.464309406188
    H           -0.220200947490    -0.836344110785     1.922571657058
    H           -0.174161319258    -2.000112938860     0.613490324570
    H            1.255902256411    -1.037621078962     0.977762105587

  Mulliken Charges: (a.u.)
   Center  Symbol    Alpha    Beta     Spin     Total
       1     H     0.41497  0.41497  0.00000  0.17006
       2     C     3.14436  3.14436  0.00000 -0.28872
       3     N     3.76535  3.76535  0.00000 -0.53071
       4     H     0.43212  0.43212  0.00000  0.13576
       5     H     0.41886  0.41886  0.00000  0.16228
       6     C     3.14427  3.14427  0.00000 -0.28853
       7     C     3.14368  3.14368  0.00000 -0.28737
       8     H     0.41662  0.41662  0.00000  0.16676
       9     H     0.41647  0.41647  0.00000  0.16707
      10     H     0.43468  0.43468  0.00000  0.13065
      11     H     0.41627  0.41627  0.00000  0.16746
      12     H     0.41711  0.41711  0.00000  0.16579
      13     H     0.43525  0.43525  0.00000  0.12950

   Total alpha = 17.00000, Total beta = 17.00000, Total charge = -0.00000
