                              Psi4 1.0.54 Driver

  ==> Input File <==

--------------------------------------------------------------------------
set {
	reference rhf
	basis cc-pvtz
}

set_num_threads( 4 )
memory 2 gb

molecule MOL {
0 1

O	 1.200732	 1.409513	 0.057130
C	 0.860843	 0.273204	 -0.013120
C	 -0.623368	 -0.117453	 -0.005652
C	 1.907197	 -0.819790	 -0.105482
C	 -0.892588	 -1.253841	 -1.002900
C	 -1.473463	 1.100646	 -0.372896
C	 -0.981836	 -0.579025	 1.418506
H	 -0.609333	 -0.970024	 -2.010649
H	 -1.950451	 -1.487353	 -1.013175
H	 -0.360848	 -2.161259	 -0.746463
H	 -1.232203	 1.461623	 -1.364827
H	 -2.524364	 0.834451	 -0.354500
H	 -1.312381	 1.914833	 0.318657
H	 -2.035706	 -0.826342	 1.468082
H	 -0.425078	 -1.458934	 1.716857
H	 -0.788494	 0.205047	 2.140903
H	 1.985559	 -1.151617	 -1.134808
H	 2.859368	 -0.415409	 0.201626
H	 1.660322	 -1.682853	 0.497351

	symmetry c1
}
set optking {
	frozen_dihedral = ("
		1 2 3 5
	")
}

ee,wfn = optimize('scf', return_wfn=True)
oeprop( wfn, 'DIPOLE', 'QUADRUPOLE', 'MULLIKEN_CHARGES')
f=open( 'psi4out.xyz', 'w' )
f.write( "19  " )
f.write( str(ee) + "\n" )
f.write( MOL.save_string_xyz() )
f.close()
--------------------------------------------------------------------------

    Molecular point group: c1
  Charge       = 0
  Multiplicity = 1
  Basis Set: CC-PVTZ
  Basis Set:
  @DF-RHF Final Energy:  -309.17421887957221
    Total Energy =                       -309.1742188795724360
    Molecular point group: c1
  Basis Set: CC-PVTZ
  Basis Set:
  Basis Set: CC-PVTZ
  Basis Set:
  @DF-RHF Final Energy:  -309.16911478143231
    Total Energy =                       -309.1691147814315173
  Basis Set: CC-PVTZ
  Basis Set:
  Basis Set: CC-PVTZ
  Basis Set:
  @DF-RHF Final Energy:  -309.17249539490763
    Total Energy =                       -309.1724953949077417
  Basis Set: CC-PVTZ
  Basis Set:
  Basis Set: CC-PVTZ
  Basis Set:
  @DF-RHF Final Energy:  -309.17394385646179
    Total Energy =                       -309.1739438564615057
  Basis Set: CC-PVTZ
  Basis Set:
  @DF-RHF Final Energy:  -309.17424900170562
    Total Energy =                       -309.1742490017056753
  @DF-RHF Final Energy:  -309.17426171415764
    Total Energy =                       -309.1742617141571827
  @DF-RHF Final Energy:  -309.17393916569239
    Total Energy =                       -309.1739391656925591
  @DF-RHF Final Energy:  -309.17424610611073
    Total Energy =                       -309.1742461061107861
  Basis Set: CC-PVTZ
  Basis Set:
  @DF-RHF Final Energy:  -309.17426091788531
    Total Energy =                       -309.1742609178851353
  Basis Set: CC-PVTZ
  Basis Set:
  Basis Set: CC-PVTZ
  Basis Set:
  @DF-RHF Final Energy:  -309.17426548538202
    Total Energy =                       -309.1742654853824206
  Basis Set: CC-PVTZ
  Basis Set:
  Basis Set: CC-PVTZ
  Basis Set:
  @DF-RHF Final Energy:  -309.17426697419984
    Total Energy =                       -309.1742669741997815
  Basis Set: CC-PVTZ
  Basis Set:
  Charge       = 0
  Multiplicity = 1
  Basis Set: CC-PVTZ
  Basis Set:

    Orbital Energies (a.u.)
    -----------------------

    Doubly Occupied:

       1A    -20.537266     2A    -11.317827     3A    -11.245702
       4A    -11.225302     5A    -11.222239     6A    -11.221704
       7A    -11.206740     8A     -1.398386     9A     -1.110842
      10A     -1.003297    11A     -0.947505    12A     -0.936145
      13A     -0.835691    14A     -0.705467    15A     -0.666760
      16A     -0.634132    17A     -0.621902    18A     -0.598366
      19A     -0.592336    20A     -0.566502    21A     -0.546649
      22A     -0.545771    23A     -0.524844    24A     -0.514569
      25A     -0.502229    26A     -0.473054    27A     -0.467620
      28A     -0.394627

  @DF-RHF Final Energy:  -309.17426788618690

   => Energetics <=

    Nuclear Repulsion Energy =            326.9267571724370214
    One-Electron Energy =               -1067.0751055109903973
    Two-Electron Energy =                 430.9740804523662518
    DFT Exchange-Correlation Energy =       0.0000000000000000
    Empirical Dispersion Energy =           0.0000000000000000
    PCM Polarization Energy =               0.0000000000000000
    EFP Energy =                            0.0000000000000000
    Total Energy =                       -309.1742678861871809
    Molecular point group: c1
  Basis Set: CC-PVTZ
  Basis Set:

  -Total Gradient:
     Atom            X                  Y                   Z
    ------   -----------------  -----------------  -----------------
       1       -0.000031421145     0.000002869371     0.000379382028
       2        0.000041571959    -0.000063681656    -0.000458804491
       3       -0.000036158146     0.000238939031    -0.000134318211
       4       -0.000009576704    -0.000006302666     0.000020093286
       5        0.000019244528    -0.000189254603     0.000201289122
       6        0.000000777733     0.000008822685     0.000006653318
       7        0.000008790088     0.000002600324     0.000004356580
       8       -0.000003830929    -0.000006793338     0.000007646578
       9        0.000012970493     0.000001188530    -0.000001475676
      10       -0.000004729010     0.000003267635    -0.000006574003
      11       -0.000003138704     0.000002313280     0.000002574723
      12        0.000002771481     0.000004642494    -0.000000861779
      13       -0.000004907165     0.000003100144    -0.000005952202
      14        0.000001981447     0.000000695800    -0.000002495548
      15        0.000002650794    -0.000000772600    -0.000000414661
      16       -0.000001592507    -0.000000041107     0.000003174354
      17        0.000000446466     0.000000958194    -0.000008496698
      18        0.000001241984     0.000000282899    -0.000003227059
      19        0.000002907333    -0.000002834418    -0.000002549661

  **** Optimization is complete! (in 12 steps) ****
    Final optimized geometry and variables:
    Molecular point group: c1

    Geometry (in Angstrom), charge = 0, multiplicity = 1:

    O            1.312060335419     1.302886540099     0.096304864481
    C            0.880334679942     0.196707099839     0.054158596150
    C           -0.628034712917    -0.064249840500    -0.061248980377
    C            1.826119619842    -0.984439411671     0.138697814294
    C           -0.919053666890    -1.230883708401    -1.015832053212
    C           -1.327908306047     1.199971691486    -0.565012186073
    C           -1.143817745216    -0.407068174659     1.348455759129
    H           -0.526894667005    -1.037435176015    -2.008394227295
    H           -1.989748650790    -1.367760190936    -1.108130024254
    H           -0.500352919480    -2.165244182719    -0.664629148668
    H           -0.972703595051     1.477530117659    -1.549874590379
    H           -2.396846073930     1.029115318519    -0.626248473870
    H           -1.149666969811     2.036495947522     0.094492091549
    H           -2.214519619874    -0.571290972450     1.316840165219
    H           -0.686176392879    -1.306216999599     1.743504737771
    H           -0.949160518984     0.403737343471     2.039945475678
    H            1.943688980752    -1.422873898568    -0.845898287783
    H            2.787580236364    -0.635395103204     0.482312412392
    H            1.457497783407    -1.759056439216     0.797634481563

  Mulliken Charges: (a.u.)
   Center  Symbol    Alpha    Beta     Spin     Total
       1     O     4.17625  4.17625  0.00000 -0.35249
       2     C     2.85214  2.85214  0.00000  0.29571
       3     C     3.00831  3.00831  0.00000 -0.01662
       4     C     3.16384  3.16384  0.00000 -0.32767
       5     C     3.16445  3.16445  0.00000 -0.32889
       6     C     3.15056  3.15056  0.00000 -0.30112
       7     C     3.15794  3.15794  0.00000 -0.31588
       8     H     0.44327  0.44327  0.00000  0.11346
       9     H     0.44275  0.44275  0.00000  0.11450
      10     H     0.44576  0.44576  0.00000  0.10849
      11     H     0.44734  0.44734  0.00000  0.10531
      12     H     0.45189  0.45189  0.00000  0.09623
      13     H     0.43831  0.43831  0.00000  0.12337
      14     H     0.44571  0.44571  0.00000  0.10859
      15     H     0.44636  0.44636  0.00000  0.10729
      16     H     0.44111  0.44111  0.00000  0.11779
      17     H     0.44565  0.44565  0.00000  0.10869
      18     H     0.43178  0.43178  0.00000  0.13644
      19     H     0.44659  0.44659  0.00000  0.10682

   Total alpha = 28.00000, Total beta = 28.00000, Total charge = -0.00000

*** Psi4 exiting successfully. Buy a developer a beer!
