  ==> Input File <==

--------------------------------------------------------------------------
set {
	reference rhf
	basis 6-31G*
}

set_num_threads( 4 )
memory 2 gb

molecule MOL {
0 1

O	 -2.439739	 -0.935931	 -0.423848
C	 -1.921153	 0.064240	 -0.045697
C	 -2.624470	 1.379923	 0.150949
O	 -0.632575	 0.154573	 0.251549
H	 -2.168117	 2.136577	 -0.476876
H	 -3.669540	 1.273223	 -0.098610
H	 -2.519365	 1.700893	 1.180846
C	 0.160891	 -1.019931	 0.106212
C	 1.589627	 -0.672828	 0.480843
H	 0.089836	 -1.367806	 -0.916050
H	 -0.238459	 -1.792301	 0.749618
C	 2.597830	 -0.887363	 -0.649600
H	 1.862323	 -1.289100	 1.335114
H	 1.623447	 0.360274	 0.816720
C	 4.028797	 -0.553928	 -0.229891
H	 2.550024	 -1.922837	 -0.980673
H	 2.317095	 -0.276861	 -1.501559
H	 4.723851	 -0.713080	 -1.048184
H	 4.350020	 -1.174167	 0.602213
H	 4.114704	 0.483852	 0.079484

	symmetry c1
}
set optking {
	frozen_dihedral = ("
		12 9 8 10
	")
}

ee = optimize('scf')
oeprop('DIPOLE', 'QUADRUPOLE', 'MULLIKEN_CHARGES')
f=open( 'psi4out.xyz', 'w' )
f.write( "20  " )
f.write( str(ee) + "\n" )
f.write( MOL.save_string_xyz() )
f.close()
--------------------------------------------------------------------------

    Molecular point group: c1
  Charge       = 0
  Multiplicity = 1
  Basis Set: 6-31G*
  Basis Set:
  @DF-RHF Final Energy:  -383.93945802096920
    Total Energy =                       -383.9394580209693686
    Molecular point group: c1
  Basis Set: 6-31G*
  Basis Set:
  Basis Set: 6-31G*
  Basis Set:
  @DF-RHF Final Energy:  -383.93973553529969
    Total Energy =                       -383.9397355352996328
  Basis Set: 6-31G*
  Basis Set:
  Basis Set: 6-31G*
  Basis Set:
  @DF-RHF Final Energy:  -383.93869128493850
    Total Energy =                       -383.9386912849387272
  Basis Set: 6-31G*
  Basis Set:
  Basis Set: 6-31G*
  Basis Set:
  @DF-RHF Final Energy:  -383.93988567221686
    Total Energy =                       -383.9398856722169739
  Basis Set: 6-31G*
  Basis Set:
  Basis Set: 6-31G*
  Basis Set:
  @DF-RHF Final Energy:  -383.93989093307681
    Total Energy =                       -383.9398909330768674
  Basis Set: 6-31G*
  Basis Set:
  Basis Set: 6-31G*
  Basis Set:
  @DF-RHF Final Energy:  -383.93989201895988
    Total Energy =                       -383.9398920189597675
  Basis Set: 6-31G*
  Basis Set:
  Basis Set: 6-31G*
  Basis Set:
  @DF-RHF Final Energy:  -383.93989610334762
    Total Energy =                       -383.9398961033475643
  Basis Set: 6-31G*
  Basis Set:
  Charge       = 0
  Multiplicity = 1
  Basis Set: 6-31G*
  Basis Set:

    Orbital Energies (a.u.)
    -----------------------

    Doubly Occupied:

       1A    -20.601002     2A    -20.543316     3A    -11.373527
       4A    -11.282057     5A    -11.232798     6A    -11.224912
       7A    -11.224125     8A    -11.214913     9A     -1.466983
      10A     -1.361126    11A     -1.085110    12A     -1.028897
      13A     -0.979305    14A     -0.881850    15A     -0.807884
      16A     -0.779768    17A     -0.689038    18A     -0.681321
      19A     -0.667132    20A     -0.633674    21A     -0.600191
      22A     -0.592684    23A     -0.570515    24A     -0.555117
      25A     -0.544586    26A     -0.522255    27A     -0.512892
      28A     -0.482045    29A     -0.480156    30A     -0.474838
      31A     -0.447286    32A     -0.436701

  @DF-RHF Final Energy:  -383.93989605998962

   => Energetics <=

    Nuclear Repulsion Energy =            380.0236753875927320
    One-Electron Energy =               -1275.9711360165470069
    Two-Electron Energy =                 512.0075645689644261
    DFT Exchange-Correlation Energy =       0.0000000000000000
    Empirical Dispersion Energy =           0.0000000000000000
    PCM Polarization Energy =               0.0000000000000000
    EFP Energy =                            0.0000000000000000
    Total Energy =                       -383.9398960599899056
    Molecular point group: c1
  Basis Set: 6-31G*
  Basis Set:

  -Total Gradient:
     Atom            X                  Y                   Z
    ------   -----------------  -----------------  -----------------
       1        0.000003918314     0.000005106803    -0.000006273431
       2       -0.000016378123     0.000000129460    -0.000026320161
       3       -0.000001522307    -0.000003325709     0.000016595510
       4        0.000015791043    -0.000014161197    -0.000021547195
       5        0.000000628529    -0.000005011795    -0.000002593308
       6        0.000000356508    -0.000000050308     0.000000278905
       7       -0.000000508290     0.000005857775     0.000000568413
       8        0.000023703402    -0.000350529106     0.000201814010
       9       -0.000028361913     0.000277948610    -0.000108408200
      10       -0.000054630661     0.000233588813    -0.000092751881
      11        0.000011384011     0.000001779461    -0.000019742910
      12        0.000028497678    -0.000153891290     0.000060367673
      13        0.000011698713     0.000005635125     0.000001967413
      14        0.000004501915    -0.000001419820    -0.000005589650
      15        0.000002281280    -0.000002075635    -0.000000446259
      16       -0.000002745284    -0.000000795696    -0.000000206240
      17        0.000002856935     0.000002785551     0.000003265339
      18        0.000000874586     0.000000445043    -0.000000509680
      19       -0.000000265919    -0.000000882013    -0.000000885428
      20       -0.000002080421    -0.000001134073     0.000000417080

  **** Optimization is complete! (in 8 steps) ****
    Final optimized geometry and variables:
    Molecular point group: c1

    Geometry (in Angstrom), charge = 0, multiplicity = 1:

    O           -2.528087665539    -0.627705174390    -0.386445166041
    C           -2.008779144311     0.371868002571    -0.006555275210
    C           -2.712935581779     1.686864036883     0.193446037536
    O           -0.721919954729     0.461318680332     0.295457488517
    H           -2.254801776413     2.445996076461    -0.430011146481
    H           -3.757217588959     1.580831942341    -0.059774330540
    H           -2.611012685354     2.003685484878     1.224977866237
    C            0.070007102180    -0.716917652871     0.153492003276
    C            1.512879011781    -0.377443186140     0.543650805250
    H           -0.000355307186    -1.052014739804    -0.872545179747
    H           -0.352103796436    -1.490678977226     0.778679740467
    C            2.514420209580    -0.587594866690    -0.594806260321
    H            1.811153024387    -0.978715555618     1.397943806086
    H            1.543273237740     0.656350002324     0.869817671865
    C            3.947358679894    -0.246589206292    -0.190910501806
    H            2.470095460967    -1.621557797856    -0.930371466010
    H            2.220505610925     0.023261809227    -1.445387482790
    H            4.634973861579    -0.403343710908    -1.015818142696
    H            4.279041883398    -0.864885059414     0.638450941074
    H            4.030627804629     0.791629106500     0.117436794760

  Mulliken Charges: (a.u.)
   Center  Symbol    Alpha    Beta     Spin     Total
       1     O     4.28398  4.28398  0.00000 -0.56795
       2     C     2.61994  2.61994  0.00000  0.76012
       3     C     3.28149  3.28149  0.00000 -0.56297
       4     O     4.30979  4.30979  0.00000 -0.61959
       5     H     0.40085  0.40085  0.00000  0.19831
       6     H     0.39705  0.39705  0.00000  0.20589
       7     H     0.40069  0.40069  0.00000  0.19862
       8     C     3.00269  3.00269  0.00000 -0.00539
       9     C     3.16982  3.16982  0.00000 -0.33964
      10     H     0.40754  0.40754  0.00000  0.18491
      11     H     0.40824  0.40824  0.00000  0.18352
      12     C     3.15870  3.15870  0.00000 -0.31739
      13     H     0.41664  0.41664  0.00000  0.16673
      14     H     0.40487  0.40487  0.00000  0.19027
      15     C     3.24080  3.24080  0.00000 -0.48161
      16     H     0.42067  0.42067  0.00000  0.15867
      17     H     0.41860  0.41860  0.00000  0.16279
      18     H     0.41705  0.41705  0.00000  0.16590
      19     H     0.42062  0.42062  0.00000  0.15876
      20     H     0.41997  0.41997  0.00000  0.16005

   Total alpha = 32.00000, Total beta = 32.00000, Total charge = -0.00000
