                              Psi4 1.0.54 Driver

  ==> Input File <==

--------------------------------------------------------------------------
set {
	reference rhf
	basis cc-pvtz
}

set_num_threads( 4 )
memory 2 gb

molecule MOL {
0 1

H	 -1.992310	 -0.488579	 -2.741165
N	 -1.057396	 -0.593980	 -2.409655
C	 -1.024093	 -1.365933	 -1.181192
H	 -0.689276	 0.319640	 -2.249089
C	 0.396025	 -1.509825	 -0.683992
H	 -1.625825	 -0.934834	 -0.382057
H	 -1.414341	 -2.357315	 -1.383475
O	 0.881195	 -0.248324	 -0.336237
H	 0.419500	 -2.171113	 0.181062
H	 1.013961	 -1.947616	 -1.464647
C	 2.208068	 -0.234417	 0.074171
H	 2.725499	 -1.027054	 -0.446768
H	 2.688377	 0.712084	 -0.164856
H	 2.295137	 -0.403407	 1.144883

	symmetry c1
}
set optking {
	frozen_dihedral = ("
		5 8 11 13
	")
}

ee,wfn = optimize('scf', return_wfn=True)
oeprop( wfn, 'DIPOLE', 'QUADRUPOLE', 'MULLIKEN_CHARGES')
f=open( 'psi4out.xyz', 'w' )
f.write( "14  " )
f.write( str(ee) + "\n" )
f.write( MOL.save_string_xyz() )
f.close()
--------------------------------------------------------------------------

    Molecular point group: c1
  Charge       = 0
  Multiplicity = 1
  Basis Set: CC-PVTZ
  Basis Set:
  @DF-RHF Final Energy:  -248.22348405242630
    Total Energy =                       -248.2234840524264428
    Molecular point group: c1
  Basis Set: CC-PVTZ
  Basis Set:
  Basis Set: CC-PVTZ
  Basis Set:
  @DF-RHF Final Energy:  -248.22421938160690
    Total Energy =                       -248.2242193816067015
  Basis Set: CC-PVTZ
  Basis Set:
  Basis Set: CC-PVTZ
  Basis Set:
  @DF-RHF Final Energy:  -248.22441752035493
    Total Energy =                       -248.2244175203550185
  Basis Set: CC-PVTZ
  Basis Set:
  Charge       = 0
  Multiplicity = 1
  Basis Set: CC-PVTZ
  Basis Set:

    Orbital Energies (a.u.)
    -----------------------

    Doubly Occupied:

       1A    -20.549140     2A    -15.523282     3A    -11.264238
       4A    -11.263390     5A    -11.239619     6A     -1.382389
       7A     -1.175749     8A     -1.000586     9A     -0.907789
      10A     -0.815640    11A     -0.684432    12A     -0.675229
      13A     -0.646173    14A     -0.612254    15A     -0.607661
      16A     -0.541243    17A     -0.533234    18A     -0.497061
      19A     -0.473706    20A     -0.418042    21A     -0.383667

  @DF-RHF Final Energy:  -248.22441843269328

   => Energetics <=

    Nuclear Repulsion Energy =            194.5801599085327496
    One-Electron Energy =                -723.2201117266534993
    Two-Electron Energy =                 280.4155333854276364
    DFT Exchange-Correlation Energy =       0.0000000000000000
    Empirical Dispersion Energy =           0.0000000000000000
    PCM Polarization Energy =               0.0000000000000000
    EFP Energy =                            0.0000000000000000
    Total Energy =                       -248.2244184326930849
    Molecular point group: c1
  Basis Set: CC-PVTZ
  Basis Set:

  -Total Gradient:
     Atom            X                  Y                   Z
    ------   -----------------  -----------------  -----------------
       1        0.000000161232    -0.000001253831     0.000000996717
       2       -0.000001531758     0.000005980557    -0.000008257133
       3        0.000015988646     0.000062749433     0.000016391153
       4        0.000000938954     0.000000196138    -0.000000420341
       5        0.000722183276     0.000246924996    -0.002105494082
       6       -0.000002542242     0.000001031565    -0.000000052695
       7        0.000023310319    -0.000003239850     0.000004799490
       8       -0.000723425753    -0.000646268323     0.002487532087
       9        0.000007534262     0.000021867885    -0.000000840022
      10        0.000024410077     0.000028445325    -0.000000091848
      11       -0.000814759772     0.001328925011     0.002074019815
      12        0.000013636281    -0.000021309343    -0.000013370243
      13        0.000754698219    -0.001032442509    -0.002473706716
      14       -0.000020601740     0.000008392946     0.000018493819

  **** Optimization is complete! (in 4 steps) ****
    Final optimized geometry and variables:
    Molecular point group: c1

    Geometry (in Angstrom), charge = 0, multiplicity = 1:

    H           -2.273745228955     0.284946481451    -1.838940539724
    N           -1.340216657809     0.176416535696    -1.504605129317
    C           -1.312864161126    -0.598345534337    -0.277815582180
    H           -0.970425107206     1.088693470840    -1.340565795145
    C            0.105195916908    -0.745258087213     0.224520675513
    H           -1.917422233613    -0.168486974447     0.519815246672
    H           -1.703144961006    -1.589052236048    -0.483648601542
    O            0.590789759251     0.517581508766     0.568750052291
    H            0.121518322313    -1.407269573924     1.089365813211
    H            0.724844493028    -1.183759973457    -0.553366314352
    C            1.915561043567     0.553702622250     0.993095321240
    H            2.510959453667    -0.211361082444     0.502346505131
    H            2.332982910601     1.515053834821     0.726536025260
    H            1.990851537096     0.410864645119     2.067449747962

  Mulliken Charges: (a.u.)
   Center  Symbol    Alpha    Beta     Spin     Total
       1     H     0.43029  0.43029  0.00000  0.13941
       2     N     3.69423  3.69423  0.00000 -0.38847
       3     C     3.02296  3.02296  0.00000 -0.04591
       4     H     0.42232  0.42232  0.00000  0.15537
       5     C     2.96899  2.96899  0.00000  0.06203
       6     H     0.46460  0.46460  0.00000  0.07080
       7     H     0.45872  0.45872  0.00000  0.08257
       8     O     4.18237  4.18237  0.00000 -0.36475
       9     H     0.47089  0.47089  0.00000  0.05822
      10     H     0.46712  0.46712  0.00000  0.06575
      11     C     3.02928  3.02928  0.00000 -0.05856
      12     H     0.47314  0.47314  0.00000  0.05373
      13     H     0.45074  0.45074  0.00000  0.09853
      14     H     0.46436  0.46436  0.00000  0.07129

   Total alpha = 21.00000, Total beta = 21.00000, Total charge = -0.00000

*** Psi4 exiting successfully. Buy a developer a beer!
