                              Psi4 1.0.54 Driver

  ==> Input File <==

--------------------------------------------------------------------------
set {
	reference rhf
	basis cc-pvtz
}

set_num_threads( 4 )
memory 2 gb

molecule MOL {
0 1

H	 -3.021507	 -0.731696	 -0.930372
O	 -2.321472	 -0.864941	 -0.318626
C	 -2.021813	 0.336996	 0.342658
C	 -0.669613	 0.837286	 -0.127252
H	 -2.780861	 1.084746	 0.127159
H	 -2.006390	 0.184138	 1.420053
C	 0.490865	 -0.082543	 0.241244
H	 -0.708709	 0.967192	 -1.204587
H	 -0.507562	 1.822272	 0.303070
C	 1.839800	 0.429565	 -0.255472
H	 0.305636	 -1.070211	 -0.165276
H	 0.527397	 -0.195943	 1.322876
C	 3.001144	 -0.485193	 0.119072
H	 1.804373	 0.541073	 -1.335756
H	 2.020437	 1.423114	 0.146921
H	 2.866892	 -1.477297	 -0.298806
H	 3.943543	 -0.095749	 -0.249061
H	 3.085064	 -0.590459	 1.195790

	symmetry c1
}
set optking {
	frozen_dihedral = ("
		1 2 3 4
	")
}

ee,wfn = optimize('scf', return_wfn=True)
oeprop( wfn, 'DIPOLE', 'QUADRUPOLE', 'MULLIKEN_CHARGES')
f=open( 'psi4out.xyz', 'w' )
f.write( "18  " )
f.write( str(ee) + "\n" )
f.write( MOL.save_string_xyz() )
f.close()
--------------------------------------------------------------------------

    Molecular point group: c1
  Charge       = 0
  Multiplicity = 1
  Basis Set: CC-PVTZ
  Basis Set:
  @DF-RHF Final Energy:  -271.28451558584669
    Total Energy =                       -271.2845155858464636
    Molecular point group: c1
  Basis Set: CC-PVTZ
  Basis Set:
  Basis Set: CC-PVTZ
  Basis Set:
  @DF-RHF Final Energy:  -271.26084028906973
    Total Energy =                       -271.2608402890698471
  Basis Set: CC-PVTZ
  Basis Set:
  Basis Set: CC-PVTZ
  Basis Set:
  @DF-RHF Final Energy:  -271.28485496734800
    Total Energy =                       -271.2848549673479965
  Basis Set: CC-PVTZ
  Basis Set:
  Basis Set: CC-PVTZ
  Basis Set:
  @DF-RHF Final Energy:  -271.28522825830396
    Total Energy =                       -271.2852282583039027
  Basis Set: CC-PVTZ
  Basis Set:
  Basis Set: CC-PVTZ
  Basis Set:
  @DF-RHF Final Energy:  -271.28523373736499
    Total Energy =                       -271.2852337373648197
  Basis Set: CC-PVTZ
  Basis Set:
  Charge       = 0
  Multiplicity = 1
  Basis Set: CC-PVTZ
  Basis Set:

    Orbital Energies (a.u.)
    -----------------------

    Doubly Occupied:

       1A    -20.545304     2A    -11.266377     3A    -11.210742
       4A    -11.209798     5A    -11.205375     6A    -11.203068
       7A     -1.362810     8A     -1.076897     9A     -1.010044
      10A     -0.915035    11A     -0.822684    12A     -0.788410
      13A     -0.698735    14A     -0.650774    15A     -0.614142
      16A     -0.593114    17A     -0.576260    18A     -0.551572
      19A     -0.527864    20A     -0.506837    21A     -0.489970
      22A     -0.469261    23A     -0.459811    24A     -0.450044
      25A     -0.427599

  @DF-RHF Final Energy:  -271.28523401480766

   => Energetics <=

    Nuclear Repulsion Energy =            248.9900826967839009
    One-Electron Energy =                -861.2855781708924496
    Two-Electron Energy =                 341.0102614593008070
    DFT Exchange-Correlation Energy =       0.0000000000000000
    Empirical Dispersion Energy =           0.0000000000000000
    PCM Polarization Energy =               0.0000000000000000
    EFP Energy =                            0.0000000000000000
    Total Energy =                       -271.2852340148077133
    Molecular point group: c1
  Basis Set: CC-PVTZ
  Basis Set:

  -Total Gradient:
     Atom            X                  Y                   Z
    ------   -----------------  -----------------  -----------------
       1       -0.000470927000    -0.000063587275     0.000581527557
       2        0.000671255848    -0.000011053479    -0.000609700891
       3       -0.000431685611     0.000196845839    -0.000377567160
       4        0.000222535714    -0.000153068678     0.000406133086
       5       -0.000004764762    -0.000005920220    -0.000012988203
       6        0.000022677754     0.000033939122     0.000006532981
       7        0.000000612739     0.000018142375     0.000004995910
       8       -0.000005927507    -0.000000622972    -0.000002266267
       9       -0.000002052055    -0.000000792741     0.000007755441
      10        0.000006248381    -0.000009402406     0.000000538987
      11        0.000002155389    -0.000008897627     0.000006625114
      12       -0.000006947006     0.000005938924     0.000004795381
      13       -0.000000239778     0.000001867476    -0.000015681421
      14        0.000000888757     0.000004512802    -0.000011743163
      15       -0.000001934769     0.000002863381     0.000007753977
      16        0.000002117255    -0.000010892430    -0.000000505268
      17       -0.000001816761    -0.000003576543    -0.000001206393
      18       -0.000002196584     0.000003704449     0.000005000335

  **** Optimization is complete! (in 6 steps) ****
    Final optimized geometry and variables:
    Molecular point group: c1

    Geometry (in Angstrom), charge = 0, multiplicity = 1:

    H           -3.007747256294    -1.141082199401    -0.537042831533
    O           -2.278025010731    -1.078421637826     0.048205062248
    C           -2.022302490854     0.266892591501     0.373488215365
    C           -0.728967617604     0.762466076827    -0.251933109781
    H           -2.848321104730     0.897162255699     0.059360854047
    H           -1.959154061802     0.337475525653     1.454326896094
    C            0.506827323429     0.005228556941     0.224347660027
    H           -0.811342269518     0.686309937728    -1.333153877850
    H           -0.623127669136     1.819911952600    -0.019534398478
    C            1.796557733308     0.486485664653    -0.434003379449
    H            0.372191534053    -1.052789626238     0.029157018957
    H            0.594725969742     0.110059904014     1.303680361764
    C            3.031183250845    -0.268223246029     0.047440529020
    H            1.709122435724     0.381260872440    -1.512086891950
    H            1.926574655011     1.548470912854    -0.241960566580
    H            2.945690601423    -1.329484917963    -0.160648668456
    H            3.928980076777     0.093659269971    -0.440707156239
    H            3.167428035210    -0.153085980021     1.117692604985

  Mulliken Charges: (a.u.)
   Center  Symbol    Alpha    Beta     Spin     Total
       1     H     0.39270  0.39270  0.00000  0.21459
       2     O     4.20513  4.20513  0.00000 -0.41025
       3     C     2.97899  2.97899  0.00000  0.04201
       4     C     3.08389  3.08389  0.00000 -0.16779
       5     H     0.46300  0.46300  0.00000  0.07400
       6     H     0.46489  0.46489  0.00000  0.07021
       7     C     3.08897  3.08897  0.00000 -0.17793
       8     H     0.45934  0.45934  0.00000  0.08132
       9     H     0.45700  0.45700  0.00000  0.08600
      10     C     3.08303  3.08303  0.00000 -0.16607
      11     H     0.44462  0.44462  0.00000  0.11075
      12     H     0.45747  0.45747  0.00000  0.08505
      13     C     3.14965  3.14965  0.00000 -0.29931
      14     H     0.45503  0.45503  0.00000  0.08995
      15     H     0.45684  0.45684  0.00000  0.08632
      16     H     0.45441  0.45441  0.00000  0.09119
      17     H     0.44948  0.44948  0.00000  0.10103
      18     H     0.45554  0.45554  0.00000  0.08891

   Total alpha = 25.00000, Total beta = 25.00000, Total charge = -0.00000

*** Psi4 exiting successfully. Buy a developer a beer!
