  ==> Input File <==

--------------------------------------------------------------------------
set {
	reference rhf
	basis cc-pvtz
}

set_num_threads( 4 )
memory 2 gb

molecule MOL {
0 1

H	 2.828711	 -0.346904	 0.001083
C	 1.876752	 0.015931	 -0.363450
C	 0.776285	 -0.474665	 0.563092
H	 1.728113	 -0.357244	 -1.367440
H	 1.906171	 1.096574	 -0.386153
N	 -0.540022	 0.017605	 0.071630
H	 0.707111	 -1.548969	 0.573035
H	 0.886169	 -0.084184	 1.560432
O	 -1.434918	 0.040050	 0.848066
O	 -0.610706	 0.326713	 -1.070234

	symmetry c1
}
set optking {
	frozen_dihedral = ("
		9 6 3 2
	")
}

ee = optimize('scf')
oeprop('DIPOLE', 'QUADRUPOLE', 'MULLIKEN_CHARGES')
f=open( 'psi4out.xyz', 'w' )
f.write( "10  " )
f.write( str(ee) + "\n" )
f.write( MOL.save_string_xyz() )
f.close()
--------------------------------------------------------------------------

    Molecular point group: c1
  Charge       = 0
  Multiplicity = 1
  Basis Set: CC-PVTZ
  Basis Set:
  @DF-RHF Final Energy:  -282.81145701198619
    Total Energy =                       -282.8114570119861355
    Molecular point group: c1
  Basis Set: CC-PVTZ
  Basis Set:
  Basis Set: CC-PVTZ
  Basis Set:
  @DF-RHF Final Energy:  -282.81245116271612
    Total Energy =                       -282.8124511627160587
  Basis Set: CC-PVTZ
  Basis Set:
  Basis Set: CC-PVTZ
  Basis Set:
  @DF-RHF Final Energy:  -282.81271592295354
    Total Energy =                       -282.8127159229536574
  Basis Set: CC-PVTZ
  Basis Set:
  Basis Set: CC-PVTZ
  Basis Set:
  @DF-RHF Final Energy:  -282.81273775997624
    Total Energy =                       -282.8127377599761303
  Basis Set: CC-PVTZ
  Basis Set:
  Basis Set: CC-PVTZ
  Basis Set:
  @DF-RHF Final Energy:  -282.81289376033601
    Total Energy =                       -282.8128937603358963
  Basis Set: CC-PVTZ
  Basis Set:
  Basis Set: CC-PVTZ
  Basis Set:
  @DF-RHF Final Energy:  -282.81292145089026
    Total Energy =                       -282.8129214508903146
  Basis Set: CC-PVTZ
  Basis Set:
  Charge       = 0
  Multiplicity = 1
  Basis Set: CC-PVTZ
  Basis Set:

    Orbital Energies (a.u.)
    -----------------------

    Doubly Occupied:

       1A    -20.593949     2A    -20.590013     3A    -15.839535
       4A    -11.303173     5A    -11.244125     6A     -1.638591
       7A     -1.422817     8A     -1.124126     9A     -0.966977
      10A     -0.835345    11A     -0.763707    12A     -0.751177
      13A     -0.732131    14A     -0.641245    15A     -0.594031
      16A     -0.564182    17A     -0.538932    18A     -0.490110
      19A     -0.479845    20A     -0.455557

  @DF-RHF Final Energy:  -282.81292261481860

   => Energetics <=

    Nuclear Repulsion Energy =            186.5728736066642170
    One-Electron Energy =                -755.6324577678346941
    Two-Electron Energy =                 286.2466615463519020
    DFT Exchange-Correlation Energy =       0.0000000000000000
    Empirical Dispersion Energy =           0.0000000000000000
    PCM Polarization Energy =               0.0000000000000000
    EFP Energy =                            0.0000000000000000
    Total Energy =                       -282.8129226148186035
    Molecular point group: c1
  Basis Set: CC-PVTZ
  Basis Set:

  -Total Gradient:
     Atom            X                  Y                   Z
    ------   -----------------  -----------------  -----------------
       1       -0.000027632666    -0.000007949457     0.000014026896
       2       -0.000014340925    -0.000060743490    -0.000098644700
       3        0.000029340547     0.000123729131     0.000133410643
       4        0.000006778442     0.000008463965    -0.000014658235
       5        0.000014307241    -0.000003522607    -0.000009116848
       6        0.000093149159     0.000017614156     0.000077074421
       7       -0.000034895117    -0.000004280704    -0.000012180292
       8       -0.000031721683    -0.000010564271     0.000000280575
       9        0.000007408418    -0.000090088003    -0.000098979623
      10       -0.000042393418     0.000027341279     0.000008787162

  **** Optimization is complete! (in 7 steps) ****
    Final optimized geometry and variables:
    Molecular point group: c1

    Geometry (in Angstrom), charge = 0, multiplicity = 1:

    H            2.858026515566    -0.341785231429     0.038442786005
    C            1.926023512545     0.023384210072    -0.375238208361
    C            0.798829918574    -0.438685644666     0.519965973166
    H            1.816896027189    -0.359198531080    -1.378162972608
    H            1.972303195548     1.102767439648    -0.421733962144
    N           -0.546424726166     0.027471597406     0.065514439611
    H            0.710705509173    -1.515783037452     0.544364252888
    H            0.887154153901    -0.083776544813     1.532960290728
    O           -1.404675787719     0.024664952932     0.882695193820
    O           -0.680750708598     0.338330354121    -1.068534186116

  Mulliken Charges: (a.u.)
   Center  Symbol    Alpha    Beta     Spin     Total
       1     H     0.44936  0.44936  0.00000  0.10128
       2     C     3.13914  3.13914  0.00000 -0.27828
       3     C     3.04281  3.04281  0.00000 -0.08562
       4     H     0.43855  0.43855  0.00000  0.12289
       5     H     0.44417  0.44417  0.00000  0.11166
       6     N     3.27646  3.27646  0.00000  0.44709
       7     H     0.43530  0.43530  0.00000  0.12941
       8     H     0.43154  0.43154  0.00000  0.13692
       9     O     4.17247  4.17247  0.00000 -0.34493
      10     O     4.17021  4.17021  0.00000 -0.34042

   Total alpha = 20.00000, Total beta = 20.00000, Total charge =  0.00000
