  ==> Input File <==

--------------------------------------------------------------------------
set {
	reference rhf
	basis 6-31G*
}

set_num_threads( 1 )
memory 2 gb

molecule MOL {
0 1

H	 -0.000158	 1.970498	 0.756846
O	 -0.000074	 1.880206	 -0.189275
C	 -0.000015	 0.544847	 -0.545111
C	 -1.278788	 -0.123820	 -0.051541
C	 1.278802	 -0.123718	 -0.051505
H	 -0.000001	 0.490777	 -1.623619
F	 -1.756188	 -0.912439	 -0.990537
F	 -1.077453	 -0.850420	 1.027290
F	 -2.204997	 0.779780	 0.226383
F	 2.323327	 0.466644	 -0.591854
F	 1.326242	 -1.401483	 -0.363667
F	 1.388946	 -0.015632	 1.262939

	symmetry c1
}
set optking {
	frozen_dihedral = ("
		6 3 2 1
	")
}

ee = energy('scf')
oeprop('DIPOLE', 'QUADRUPOLE', 'MULLIKEN_CHARGES')
f=open( 'psi4out.xyz', 'w' )
f.write( "12  " )
f.write( str(ee) + "\n" )
f.write( MOL.save_string_xyz() )
f.close()
--------------------------------------------------------------------------

    Molecular point group: c1

    Geometry (in Angstrom), charge = 0, multiplicity = 1:

       Center              X                  Y                   Z               Mass
    ------------   -----------------  -----------------  -----------------  -----------------
           H         -0.000136019941     1.974143130797     0.761841578109     1.007825032070
           O         -0.000052019941     1.883851130797    -0.184279421891    15.994914619560
           C          0.000006980059     0.548492130797    -0.540115421891    12.000000000000
           C         -1.278766019941    -0.120174869203    -0.046545421891    12.000000000000
           C          1.278823980059    -0.120072869203    -0.046509421891    12.000000000000
           H          0.000020980059     0.494422130797    -1.618623421891     1.007825032070
           F         -1.756166019941    -0.908793869203    -0.985541421891    18.998403224000
           F         -1.077431019941    -0.846774869203     1.032285578109    18.998403224000
           F         -2.204975019941     0.783425130797     0.231378578109    18.998403224000
           F          2.323348980059     0.470289130797    -0.586858421891    18.998403224000
           F          1.326263980059    -1.397837869203    -0.358671421891    18.998403224000
           F          1.388967980059    -0.011986869203     1.267934578109    18.998403224000

  Charge       = 0
  Multiplicity = 1
  Basis Set: 6-31G*
  Basis Set:

    Orbital Energies (a.u.)
    -----------------------

    Doubly Occupied:

       1A    -26.363341     2A    -26.362962     3A    -26.361771
       4A    -26.358801     5A    -26.358195     6A    -26.357726
       7A    -20.614265     8A    -11.526080     9A    -11.525185
      10A    -11.347534    11A     -1.764895    12A     -1.758392
      13A     -1.661369    14A     -1.659679    15A     -1.655722
      16A     -1.654420    17A     -1.433807    18A     -1.101448
      19A     -0.997100    20A     -0.937262    21A     -0.865895
      22A     -0.861809    23A     -0.850510    24A     -0.845533
      25A     -0.833993    26A     -0.811731    27A     -0.737039
      28A     -0.729547    29A     -0.727404    30A     -0.721797
      31A     -0.688185    32A     -0.684936    33A     -0.683083
      34A     -0.676585    35A     -0.669159    36A     -0.660554
      37A     -0.657774    38A     -0.650590    39A     -0.615722
      40A     -0.548934    41A     -0.506064

  @DF-RHF Final Energy:  -786.27181589568397

   => Energetics <=

    Nuclear Repulsion Energy =            670.8445131356928641
    One-Electron Energy =               -2428.5787833032550225
    Two-Electron Energy =                 971.4624542718788689
    DFT Exchange-Correlation Energy =       0.0000000000000000
    Empirical Dispersion Energy =           0.0000000000000000
    PCM Polarization Energy =               0.0000000000000000
    EFP Energy =                            0.0000000000000000
    Total Energy =                       -786.2718158956831758

  Mulliken Charges: (a.u.)
   Center  Symbol    Alpha    Beta     Spin     Total
       1     H     0.26806  0.26806  0.00000  0.46388
       2     O     4.35953  4.35953  0.00000 -0.71907
       3     C     3.06491  3.06491  0.00000 -0.12981
       4     C     2.43658  2.43658  0.00000  1.12683
       5     C     2.43930  2.43930  0.00000  1.12141
       6     H     0.37178  0.37178  0.00000  0.25644
       7     F     4.67646  4.67646  0.00000 -0.35292
       8     F     4.67483  4.67483  0.00000 -0.34966
       9     F     4.67687  4.67687  0.00000 -0.35375
      10     F     4.67481  4.67481  0.00000 -0.34962
      11     F     4.67484  4.67484  0.00000 -0.34968
      12     F     4.68202  4.68202  0.00000 -0.36404

   Total alpha = 41.00000, Total beta = 41.00000, Total charge =  0.00000
