  ==> Input File <==

--------------------------------------------------------------------------
set {
	reference rhf
	basis 6-31G*
}

set_num_threads( 1 )
memory 2 gb

molecule MOL {
0 1

H	 -2.181873	 0.271731	 2.562847
C	 -1.794065	 -0.672255	 2.940517
O	 -0.605228	 -1.023193	 2.308975
H	 -1.583967	 -0.567175	 3.995960
H	 -2.558656	 -1.436762	 2.808765
C	 -0.721695	 -1.201654	 0.932808
C	 0.644560	 -1.469825	 0.346602
H	 -1.377135	 -2.045882	 0.715156
H	 -1.146411	 -0.317181	 0.462353
O	 1.392611	 -0.295398	 0.366430
H	 1.135236	 -2.251079	 0.923565
H	 0.531216	 -1.828675	 -0.677152
C	 2.706965	 -0.449871	 -0.062409
H	 2.756559	 -0.644779	 -1.131878
H	 3.305899	 0.433456	 0.155466
H	 3.125548	 -1.294566	 0.467107

	symmetry c1
}
set optking {
	frozen_dihedral = ("
		3 6 7 11,
		2 3 6 7
	")
}

ee = energy('scf')
oeprop('DIPOLE', 'QUADRUPOLE', 'MULLIKEN_CHARGES')
f=open( 'psi4out.xyz', 'w' )
f.write( "16  " )
f.write( str(ee) + "\n" )
f.write( MOL.save_string_xyz() )
f.close()
--------------------------------------------------------------------------

    Molecular point group: c1

    Geometry (in Angstrom), charge = 0, multiplicity = 1:

       Center              X                  Y                   Z               Mass
    ------------   -----------------  -----------------  -----------------  -----------------
           H         -2.455504016092     1.119652664181     1.418759788304     1.007825032070
           C         -2.067696016092     0.175666664181     1.796429788304    12.000000000000
           O         -0.878859016092    -0.175271335819     1.164887788304    15.994914619560
           H         -1.857598016092     0.280746664181     2.851872788304     1.007825032070
           H         -2.832287016092    -0.588840335819     1.664677788304     1.007825032070
           C         -0.995326016092    -0.353732335819    -0.211279211696    12.000000000000
           C          0.370928983908    -0.621903335819    -0.797485211696    12.000000000000
           H         -1.650766016092    -1.197960335819    -0.428931211696     1.007825032070
           H         -1.420042016092     0.530740664181    -0.681734211696     1.007825032070
           O          1.118979983908     0.552523664181    -0.777657211696    15.994914619560
           H          0.861604983908    -1.403157335819    -0.220522211696     1.007825032070
           H          0.257584983908    -0.980753335819    -1.821239211696     1.007825032070
           C          2.433333983908     0.398050664181    -1.206496211696    12.000000000000
           H          2.482927983908     0.203142664181    -2.275965211696     1.007825032070
           H          3.032267983908     1.281377664181    -0.988621211696     1.007825032070
           H          2.851916983908    -0.446644335819    -0.676980211696     1.007825032070

  Charge       = 0
  Multiplicity = 1
  Basis Set: 6-31G*
  Basis Set:

    Orbital Energies (a.u.)
    -----------------------

    Doubly Occupied:

       1A    -20.553677     2A    -20.552349     3A    -11.269557
       4A    -11.268764     5A    -11.263815     6A    -11.263592
       7A     -1.388196     8A     -1.370554     9A     -1.030661
      10A     -0.935620    11A     -0.892282    12A     -0.824600
      13A     -0.684498    14A     -0.680352    15A     -0.656826
      16A     -0.636924    17A     -0.628748    18A     -0.598132
      19A     -0.551736    20A     -0.534474    21A     -0.509933
      22A     -0.476442    23A     -0.462067    24A     -0.419655
      25A     -0.410009

  @DF-RHF Final Energy:  -306.97615557771559

   => Energetics <=

    Nuclear Repulsion Energy =            258.9003567038669757
    One-Electron Energy =                -932.0260005784057284
    Two-Electron Energy =                 366.1494882968234492
    DFT Exchange-Correlation Energy =       0.0000000000000000
    Empirical Dispersion Energy =           0.0000000000000000
    PCM Polarization Energy =               0.0000000000000000
    EFP Energy =                            0.0000000000000000
    Total Energy =                       -306.9761555777153603

  Mulliken Charges: (a.u.)
   Center  Symbol    Alpha    Beta     Spin     Total
       1     H     0.42802  0.42802  0.00000  0.14397
       2     C     3.07954  3.07954  0.00000 -0.15908
       3     O     4.30089  4.30089  0.00000 -0.60178
       4     H     0.41127  0.41127  0.00000  0.17747
       5     H     0.43189  0.43189  0.00000  0.13622
       6     C     2.99324  2.99324  0.00000  0.01352
       7     C     2.99351  2.99351  0.00000  0.01297
       8     H     0.43222  0.43222  0.00000  0.13556
       9     H     0.42250  0.42250  0.00000  0.15500
      10     O     4.30197  4.30197  0.00000 -0.60394
      11     H     0.42250  0.42250  0.00000  0.15501
      12     H     0.43228  0.43228  0.00000  0.13543
      13     C     3.07832  3.07832  0.00000 -0.15664
      14     H     0.43079  0.43079  0.00000  0.13843
      15     H     0.41162  0.41162  0.00000  0.17677
      16     H     0.42945  0.42945  0.00000  0.14110

   Total alpha = 25.00000, Total beta = 25.00000, Total charge = -0.00000
