                              Psi4 1.0.54 Driver

  ==> Input File <==

--------------------------------------------------------------------------
set {
	reference rhf
	basis cc-pvtz
}

set_num_threads( 4 )
memory 2 gb

molecule MOL {
0 1

H	 -2.034284	 -0.971548	 -2.589092
N	 -1.110504	 -1.056162	 -2.222294
C	 -1.139130	 -1.383315	 -0.808684
H	 -0.649284	 -0.182133	 -2.361383
C	 0.265639	 -1.498688	 -0.262825
H	 -1.683007	 -0.656504	 -0.206616
H	 -1.630832	 -2.341831	 -0.684075
O	 0.881195	 -0.248324	 -0.336237
H	 0.233544	 -1.839664	 0.771040
H	 0.825207	 -2.227375	 -0.844914
C	 2.208068	 -0.234417	 0.074171
H	 2.725499	 -1.027054	 -0.446768
H	 2.688377	 0.712084	 -0.164856
H	 2.295137	 -0.403407	 1.144883

	symmetry c1
}
set optking {
	frozen_dihedral = ("
		5 8 11 13
	")
}

ee,wfn = optimize('scf', return_wfn=True)
oeprop( wfn, 'DIPOLE', 'QUADRUPOLE', 'MULLIKEN_CHARGES')
f=open( 'psi4out.xyz', 'w' )
f.write( "14  " )
f.write( str(ee) + "\n" )
f.write( MOL.save_string_xyz() )
f.close()
--------------------------------------------------------------------------

    Molecular point group: c1
  Charge       = 0
  Multiplicity = 1
  Basis Set: CC-PVTZ
  Basis Set:
  @DF-RHF Final Energy:  -248.22501162708991
    Total Energy =                       -248.2250116270897138
    Molecular point group: c1
  Basis Set: CC-PVTZ
  Basis Set:
  Basis Set: CC-PVTZ
  Basis Set:
  @DF-RHF Final Energy:  -248.22575110170965
    Total Energy =                       -248.2257511017098750
  Basis Set: CC-PVTZ
  Basis Set:
  Basis Set: CC-PVTZ
  Basis Set:
  @DF-RHF Final Energy:  -248.22595620795934
    Total Energy =                       -248.2259562079592001
  Basis Set: CC-PVTZ
  Basis Set:
  Charge       = 0
  Multiplicity = 1
  Basis Set: CC-PVTZ
  Basis Set:

    Orbital Energies (a.u.)
    -----------------------

    Doubly Occupied:

       1A    -20.550607     2A    -15.523512     3A    -11.264000
       4A    -11.263609     5A    -11.239873     6A     -1.384477
       7A     -1.175982     8A     -1.000657     9A     -0.907688
      10A     -0.815802    11A     -0.685278    12A     -0.676184
      13A     -0.647252    14A     -0.612418    15A     -0.607644
      16A     -0.542057    17A     -0.530624    18A     -0.497883
      19A     -0.474424    20A     -0.420051    21A     -0.383870

  @DF-RHF Final Energy:  -248.22595690617428

   => Energetics <=

    Nuclear Repulsion Energy =            194.6988937157064754
    One-Electron Energy =                -723.4419152136449611
    Two-Electron Energy =                 280.5170645917639831
    DFT Exchange-Correlation Energy =       0.0000000000000000
    Empirical Dispersion Energy =           0.0000000000000000
    PCM Polarization Energy =               0.0000000000000000
    EFP Energy =                            0.0000000000000000
    Total Energy =                       -248.2259569061744742
    Molecular point group: c1
  Basis Set: CC-PVTZ
  Basis Set:

  -Total Gradient:
     Atom            X                  Y                   Z
    ------   -----------------  -----------------  -----------------
       1       -0.000001205420     0.000005779765    -0.000012983828
       2       -0.000012537455     0.000000680497    -0.000027944547
       3        0.000060400985     0.000100137018    -0.000000205027
       4       -0.000001118143     0.000005143978    -0.000005471574
       5        0.000386449409    -0.000324863064    -0.000931620392
       6       -0.000015641909     0.000004534602     0.000007262413
       7        0.000056314045     0.000006211229     0.000019043461
       8       -0.000389008333     0.000221413228     0.001135066242
       9        0.000004646133     0.000002445523     0.000008696367
      10        0.000015276019     0.000029313903    -0.000013792222
      11       -0.000394936620     0.000464237894     0.001044064057
      12       -0.000024874862    -0.000010224662    -0.000011681220
      13        0.000345559958    -0.000503460344    -0.001214451629
      14       -0.000029323807    -0.000001349567     0.000004017900

  **** Optimization is complete! (in 4 steps) ****
    Final optimized geometry and variables:
    Molecular point group: c1

    Geometry (in Angstrom), charge = 0, multiplicity = 1:

    H           -2.259536906485    -0.134477792509    -1.875686196838
    N           -1.336158097306    -0.210352391215    -1.506009126172
    C           -1.365931109896    -0.527764895533    -0.090206456858
    H           -0.880494733660     0.665714485429    -1.650303605754
    C            0.038310701490    -0.628946400781     0.459866720063
    H           -1.916762495349     0.199100016115     0.505446032954
    H           -1.850574809358    -1.489092929079     0.040266199826
    O            0.645126001299     0.624889574145     0.375066702790
    H            0.005524900545    -0.961947167153     1.496513513147
    H            0.604730816022    -1.357788778711    -0.114839298322
    C            1.968882715383     0.657468398939     0.794948183355
    H            2.557609751893    -0.118134234725     0.310833564519
    H            2.381651594717     1.617888088109     0.521435956439
    H            2.048882272006     0.528396753578     1.871978131121

  Mulliken Charges: (a.u.)
   Center  Symbol    Alpha    Beta     Spin     Total
       1     H     0.43024  0.43024  0.00000  0.13953
       2     N     3.69419  3.69419  0.00000 -0.38839
       3     C     3.02199  3.02199  0.00000 -0.04398
       4     H     0.42246  0.42246  0.00000  0.15509
       5     C     2.96949  2.96949  0.00000  0.06102
       6     H     0.46451  0.46451  0.00000  0.07097
       7     H     0.45871  0.45871  0.00000  0.08257
       8     O     4.18024  4.18024  0.00000 -0.36048
       9     H     0.47054  0.47054  0.00000  0.05893
      10     H     0.46761  0.46761  0.00000  0.06478
      11     C     3.03151  3.03151  0.00000 -0.06302
      12     H     0.47175  0.47175  0.00000  0.05651
      13     H     0.44786  0.44786  0.00000  0.10429
      14     H     0.46891  0.46891  0.00000  0.06217

   Total alpha = 21.00000, Total beta = 21.00000, Total charge = -0.00000

*** Psi4 exiting successfully. Buy a developer a beer!
