                              Psi4 1.0.54 Driver

  ==> Input File <==

--------------------------------------------------------------------------
set {
	reference rhf
	basis cc-pvtz
}

set_num_threads( 4 )
memory 2 gb

molecule MOL {
0 1

H	 3.889604	 0.356866	 -0.089510
N	 3.091268	 -0.241216	 -0.065538
C	 1.860978	 0.530248	 0.016256
H	 3.192566	 -0.835836	 0.730398
C	 0.644130	 -0.381765	 -0.031064
H	 1.835721	 1.204666	 -0.833114
H	 1.808789	 1.151975	 0.911067
C	 -0.678115	 0.376691	 0.025731
H	 0.693998	 -0.977147	 -0.936845
H	 0.693309	 -1.082142	 0.800523
C	 -1.832655	 -0.370992	 -0.635489
H	 -0.558365	 1.344537	 -0.455816
H	 -0.934561	 0.583281	 1.062277
C	 -3.151232	 0.393335	 -0.582265
H	 -1.578237	 -0.578787	 -1.671049
H	 -1.956903	 -1.336974	 -0.153605
H	 -3.069512	 1.350359	 -1.086911
H	 -3.948569	 -0.164549	 -1.059783
H	 -3.450876	 0.586524	 0.442541

	symmetry c1
}
set optking {
	frozen_dihedral = ("
		12 8 5 9
	")
}

ee,wfn = optimize('scf', return_wfn=True)
oeprop( wfn, 'DIPOLE', 'QUADRUPOLE', 'MULLIKEN_CHARGES')
f=open( 'psi4out.xyz', 'w' )
f.write( "19  " )
f.write( str(ee) + "\n" )
f.write( MOL.save_string_xyz() )
f.close()
--------------------------------------------------------------------------

    Molecular point group: c1
  Charge       = 0
  Multiplicity = 1
  Basis Set: CC-PVTZ
  Basis Set:
  @DF-RHF Final Energy:  -251.44607531049562
    Total Energy =                       -251.4460753104956439
    Molecular point group: c1
  Basis Set: CC-PVTZ
  Basis Set:
  Basis Set: CC-PVTZ
  Basis Set:
  @DF-RHF Final Energy:  -251.44625267951741
    Total Energy =                       -251.4462526795173858
  Basis Set: CC-PVTZ
  Basis Set:
  Basis Set: CC-PVTZ
  Basis Set:
  @DF-RHF Final Energy:  -251.44633312500022
    Total Energy =                       -251.4463331250003648
  Basis Set: CC-PVTZ
  Basis Set:
  Basis Set: CC-PVTZ
  Basis Set:
  @DF-RHF Final Energy:  -251.44633576192064
    Total Energy =                       -251.4463357619207500
  Basis Set: CC-PVTZ
  Basis Set:
  Charge       = 0
  Multiplicity = 1
  Basis Set: CC-PVTZ
  Basis Set:

    Orbital Energies (a.u.)
    -----------------------

    Doubly Occupied:

       1A    -15.526542     2A    -11.238430     3A    -11.212108
       4A    -11.210435     5A    -11.207572     6A    -11.205400
       7A     -1.178365     8A     -1.073668     9A     -0.999371
      10A     -0.901199    11A     -0.814620    12A     -0.789972
      13A     -0.664176    14A     -0.640637    15A     -0.621333
      16A     -0.586881    17A     -0.569088    18A     -0.550453
      19A     -0.526874    20A     -0.502269    21A     -0.479571
      22A     -0.466322    23A     -0.456629    24A     -0.452425
      25A     -0.383871

  @DF-RHF Final Energy:  -251.44633606041253

   => Energetics <=

    Nuclear Repulsion Energy =            246.0358422265400691
    One-Electron Energy =                -826.4479300401228556
    Two-Electron Energy =                 328.9657517531704798
    DFT Exchange-Correlation Energy =       0.0000000000000000
    Empirical Dispersion Energy =           0.0000000000000000
    PCM Polarization Energy =               0.0000000000000000
    EFP Energy =                            0.0000000000000000
    Total Energy =                       -251.4463360604122499
    Molecular point group: c1
  Basis Set: CC-PVTZ
  Basis Set:

  -Total Gradient:
     Atom            X                  Y                   Z
    ------   -----------------  -----------------  -----------------
       1        0.000036456568     0.000001823547     0.000006321164
       2        0.000044001681    -0.000023974821     0.000004910631
       3       -0.000061268695     0.000009244278    -0.000026571456
       4        0.000014577801    -0.000012155080     0.000009453533
       5        0.002173759139     0.003938018612    -0.001466654128
       6       -0.000017877116    -0.000005712292     0.000010849472
       7       -0.000005021793    -0.000015875568    -0.000015152130
       8       -0.001606821029    -0.002569308569    -0.003526834796
       9       -0.001539277501    -0.002812827952     0.001773968958
      10       -0.000004413522    -0.000000756942     0.000008555843
      11       -0.000002619381    -0.000006034730     0.000025963324
      12        0.000977705618     0.001479988091     0.003189482276
      13       -0.000008964337    -0.000004922843     0.000005189667
      14       -0.000015087326     0.000015127651    -0.000011681028
      15        0.000009806546     0.000000598720     0.000026176897
      16        0.000009256799     0.000011825434    -0.000004380085
      17       -0.000004557566    -0.000009477368     0.000010336941
      18       -0.000005248896     0.000009813913    -0.000002588343
      19        0.000005593012    -0.000005394082    -0.000017346741

  **** Optimization is complete! (in 5 steps) ****
    Final optimized geometry and variables:
    Molecular point group: c1

    Geometry (in Angstrom), charge = 0, multiplicity = 1:

    H            3.879530624753     0.287930078062     0.208815704156
    N            3.076145691147    -0.303894425137     0.205778801489
    C            1.849517918343     0.476837571092     0.211270940711
    H            3.133891714800    -0.883372741696     1.017046850397
    C            0.629497023483    -0.425176743970     0.120710659119
    H            1.870309178554     1.135014051403    -0.650720554745
    H            1.756283184176     1.116579668622     1.090410216775
    C           -0.697061697404     0.336673417421     0.173173207188
    H            0.688017128302    -1.026164130576    -0.780726510067
    H            0.658425475631    -1.139312055572     0.941551192941
    C           -1.864918431111    -0.423458990259    -0.445892900789
    H           -0.584948019662     1.305009101172    -0.309596899475
    H           -0.933628800190     0.565962031110     1.209674629472
    C           -3.193053927436     0.316545854639    -0.330057902816
    H           -1.649389655441    -0.617322148010    -1.492707728543
    H           -1.951047813807    -1.396217057565     0.031187881584
    H           -3.146413802877     1.282640509672    -0.821807053797
    H           -3.998463775023    -0.247588557428    -0.786244174055
    H           -3.456612792042     0.488423906341     0.708275239262

  Mulliken Charges: (a.u.)
   Center  Symbol    Alpha    Beta     Spin     Total
       1     H     0.43026  0.43026  0.00000  0.13948
       2     N     3.68935  3.68935  0.00000 -0.37870
       3     C     3.02683  3.02683  0.00000 -0.05365
       4     H     0.43083  0.43083  0.00000  0.13833
       5     C     3.08230  3.08230  0.00000 -0.16459
       6     H     0.45675  0.45675  0.00000  0.08650
       7     H     0.46782  0.46782  0.00000  0.06436
       8     C     3.09540  3.09540  0.00000 -0.19079
       9     H     0.44982  0.44982  0.00000  0.10036
      10     H     0.45941  0.45941  0.00000  0.08117
      11     C     3.08261  3.08261  0.00000 -0.16521
      12     H     0.45604  0.45604  0.00000  0.08792
      13     H     0.45556  0.45556  0.00000  0.08889
      14     C     3.14983  3.14983  0.00000 -0.29966
      15     H     0.45367  0.45367  0.00000  0.09265
      16     H     0.45421  0.45421  0.00000  0.09158
      17     H     0.45526  0.45526  0.00000  0.08948
      18     H     0.44855  0.44855  0.00000  0.10290
      19     H     0.45551  0.45551  0.00000  0.08898

   Total alpha = 25.00000, Total beta = 25.00000, Total charge = -0.00000

*** Psi4 exiting successfully. Buy a developer a beer!
