  ==> Input File <==

--------------------------------------------------------------------------
set {
	reference rhf
	basis 6-31G*
}

set_num_threads( 1 )
memory 2 gb

molecule MOL {
0 1

H	 -3.420663	 1.227371	 -1.044276
O	 -3.452007	 0.283848	 -0.965577
C	 -3.181085	 -0.079926	 0.364119
C	 -1.765924	 0.277073	 0.805136
H	 -3.327791	 -1.152017	 0.410903
H	 -3.905698	 0.375695	 1.036898
C	 -0.677594	 -0.417312	 -0.014550
H	 -1.637766	 1.358238	 0.744969
H	 -1.659588	 0.017670	 1.857098
C	 0.738335	 -0.034840	 0.421385
H	 -0.814977	 -0.178223	 -1.064632
H	 -0.802730	 -1.495410	 0.071702
C	 1.822265	 -0.738362	 -0.399735
H	 0.853533	 1.043532	 0.342250
H	 0.871597	 -0.279636	 1.474438
C	 2.567991	 -1.852828	 0.343241
H	 2.540739	 -0.000707	 -0.753790
H	 1.363075	 -1.164428	 -1.289358
C	 3.418269	 -1.373325	 1.521167
H	 3.213147	 -2.366847	 -0.365170
H	 1.851690	 -2.593678	 0.692895
H	 4.136091	 -0.621682	 1.203513
H	 3.975270	 -2.197945	 1.955435
H	 2.812459	 -0.939797	 2.309971

	symmetry c1
}
set optking {
	frozen_dihedral = ("
		20 16 13 17,
		13 10 7 11,
		11 7 4 3,
		1 2 3 5,
		7 4 3 2
	")
}

ee = energy('scf')
oeprop('DIPOLE', 'QUADRUPOLE', 'MULLIKEN_CHARGES')
f=open( 'psi4out.xyz', 'w' )
f.write( "24  " )
f.write( str(ee) + "\n" )
f.write( MOL.save_string_xyz() )
f.close()
--------------------------------------------------------------------------

    Molecular point group: c1

    Geometry (in Angstrom), charge = 0, multiplicity = 1:

       Center              X                  Y                   Z               Mass
    ------------   -----------------  -----------------  -----------------  -----------------
           H         -3.299652472367     1.702156554901    -1.291322054913     1.007825032070
           O         -3.330996472367     0.758633554901    -1.212623054913    15.994914619560
           C         -3.060074472367     0.394859554901     0.117072945087    12.000000000000
           C         -1.644913472367     0.751858554901     0.558089945087    12.000000000000
           H         -3.206780472367    -0.677231445099     0.163856945087     1.007825032070
           H         -3.784687472367     0.850480554901     0.789851945087     1.007825032070
           C         -0.556583472367     0.057473554901    -0.261596054913    12.000000000000
           H         -1.516755472367     1.833023554901     0.497922945087     1.007825032070
           H         -1.538577472367     0.492455554901     1.610051945087     1.007825032070
           C          0.859345527633     0.439945554901     0.174338945087    12.000000000000
           H         -0.693966472367     0.296562554901    -1.311678054913     1.007825032070
           H         -0.681719472367    -1.020624445099    -0.175344054913     1.007825032070
           C          1.943275527633    -0.263576445099    -0.646781054913    12.000000000000
           H          0.974543527633     1.518317554901     0.095203945087     1.007825032070
           H          0.992607527633     0.195149554901     1.227391945087     1.007825032070
           C          2.689001527633    -1.378042445099     0.096194945087    12.000000000000
           H          2.661749527633     0.474078554901    -1.000836054913     1.007825032070
           H          1.484085527633    -0.689642445099    -1.536404054913     1.007825032070
           C          3.539279527633    -0.898539445099     1.274120945087    12.000000000000
           H          3.334157527633    -1.892061445099    -0.612216054913     1.007825032070
           H          1.972700527633    -2.118892445099     0.445848945087     1.007825032070
           H          4.257101527633    -0.146896445099     0.956466945087     1.007825032070
           H          4.096280527633    -1.723159445099     1.708388945087     1.007825032070
           H          2.933469527633    -0.465011445099     2.062924945087     1.007825032070

  Charge       = 0
  Multiplicity = 1
  Basis Set: 6-31G*
  Basis Set:

    Orbital Energies (a.u.)
    -----------------------

    Doubly Occupied:

       1A    -20.553500     2A    -11.267594     3A    -11.216986
       4A    -11.214253     5A    -11.211439     6A    -11.210770
       7A    -11.210041     8A    -11.207488     9A     -1.360093
      10A     -1.089039    11A     -1.047617    12A     -0.985176
      13A     -0.914623    14A     -0.851649    15A     -0.804677
      16A     -0.771316    17A     -0.679941    18A     -0.651238
      19A     -0.626605    20A     -0.617269    21A     -0.602585
      22A     -0.581379    23A     -0.554918    24A     -0.545037
      25A     -0.518369    26A     -0.506749    27A     -0.496686
      28A     -0.477262    29A     -0.467590    30A     -0.458861
      31A     -0.451687    32A     -0.447332    33A     -0.418911

  @DF-RHF Final Energy:  -349.24235674347852

   => Energetics <=

    Nuclear Repulsion Energy =            386.5350068187228203
    One-Electron Energy =               -1239.5173197447938946
    Two-Electron Energy =                 503.7399561825921523
    DFT Exchange-Correlation Energy =       0.0000000000000000
    Empirical Dispersion Energy =           0.0000000000000000
    PCM Polarization Energy =               0.0000000000000000
    EFP Energy =                            0.0000000000000000
    Total Energy =                       -349.2423567434788652

  Mulliken Charges: (a.u.)
   Center  Symbol    Alpha    Beta     Spin     Total
       1     H     0.28338  0.28338  0.00000  0.43325
       2     O     4.36833  4.36833  0.00000 -0.73666
       3     C     2.99612  2.99612  0.00000  0.00776
       4     C     3.16934  3.16934  0.00000 -0.33868
       5     H     0.41646  0.41646  0.00000  0.16708
       6     H     0.42828  0.42828  0.00000  0.14345
       7     C     3.15425  3.15425  0.00000 -0.30851
       8     H     0.42826  0.42826  0.00000  0.14347
       9     H     0.42245  0.42245  0.00000  0.15509
      10     C     3.15503  3.15503  0.00000 -0.31005
      11     H     0.41159  0.41159  0.00000  0.17683
      12     H     0.42346  0.42346  0.00000  0.15308
      13     C     3.15636  3.15636  0.00000 -0.31273
      14     H     0.42217  0.42217  0.00000  0.15565
      15     H     0.42223  0.42223  0.00000  0.15553
      16     C     3.15383  3.15383  0.00000 -0.30767
      17     H     0.42230  0.42230  0.00000  0.15540
      18     H     0.41843  0.41843  0.00000  0.16313
      19     C     3.24042  3.24042  0.00000 -0.48084
      20     H     0.42124  0.42124  0.00000  0.15751
      21     H     0.42376  0.42376  0.00000  0.15248
      22     H     0.42219  0.42219  0.00000  0.15561
      23     H     0.41938  0.41938  0.00000  0.16124
      24     H     0.42072  0.42072  0.00000  0.15856

   Total alpha = 33.00000, Total beta = 33.00000, Total charge = -0.00000
