  ==> Input File <==

--------------------------------------------------------------------------
set {
	reference rhf
	basis 6-31G*
}

set_num_threads( 4 )
memory 2 gb

molecule MOL {
0 1

O	 -0.291628	 1.323815	 -0.000732
C	 -0.449655	 0.146360	 0.000961
C	 -1.783294	 -0.549321	 -0.000296
O	 0.550821	 -0.724572	 0.000672
H	 -1.863538	 -1.185371	 -0.874187
H	 -2.574672	 0.185258	 -0.002793
H	 -1.866414	 -1.182381	 0.875436
C	 0.400890	 -1.874507	 0.813969
H	 0.286101	 -1.593602	 1.850922
H	 1.303333	 -2.450136	 0.679822
H	 -0.459905	 -2.449028	 0.503645

	symmetry c1
}
set optking {
	frozen_dihedral = ("
		8 4 2 1
	")
}

ee = optimize('scf')
oeprop('DIPOLE', 'QUADRUPOLE', 'MULLIKEN_CHARGES')
f=open( 'psi4out.xyz', 'w' )
f.write( "11  " )
f.write( str(ee) + "\n" )
f.write( MOL.save_string_xyz() )
f.close()
--------------------------------------------------------------------------

    Molecular point group: c1
  Charge       = 0
  Multiplicity = 1
  Basis Set: 6-31G*
  Basis Set:
  @DF-RHF Final Energy:  -266.81154808968563
    Total Energy =                       -266.8115480896859708
    Molecular point group: c1
  Basis Set: 6-31G*
  Basis Set:
  Basis Set: 6-31G*
  Basis Set:
  @DF-RHF Final Energy:  -266.81221762305972
    Total Energy =                       -266.8122176230597233
  Basis Set: 6-31G*
  Basis Set:
  Basis Set: 6-31G*
  Basis Set:
  @DF-RHF Final Energy:  -266.81705948807075
    Total Energy =                       -266.8170594880708109
  Basis Set: 6-31G*
  Basis Set:
  Basis Set: 6-31G*
  Basis Set:
  @DF-RHF Final Energy:  -266.81766262460820
    Total Energy =                       -266.8176626246083742
  Basis Set: 6-31G*
  Basis Set:
  @DF-RHF Final Energy:  -266.81803598304339
    Total Energy =                       -266.8180359830430461
  @DF-RHF Final Energy:  -266.81851380906801
    Total Energy =                       -266.8185138090680653
  Basis Set: 6-31G*
  Basis Set:
  @DF-RHF Final Energy:  -266.81857071958473
    Total Energy =                       -266.8185707195844998
  Basis Set: 6-31G*
  Basis Set:
  Basis Set: 6-31G*
  Basis Set:
  @DF-RHF Final Energy:  -266.81858556117896
    Total Energy =                       -266.8185855611787360
  Basis Set: 6-31G*
  Basis Set:
  Basis Set: 6-31G*
  Basis Set:
  @DF-RHF Final Energy:  -266.81858700877603
    Total Energy =                       -266.8185870087762623
  Basis Set: 6-31G*
  Basis Set:
  Charge       = 0
  Multiplicity = 1
  Basis Set: 6-31G*
  Basis Set:

    Orbital Energies (a.u.)
    -----------------------

    Doubly Occupied:

       1A    -20.598208     2A    -20.548214     3A    -11.378739
       4A    -11.297793     5A    -11.243318     6A     -1.463473
       7A     -1.369227     8A     -1.022793     9A     -0.980501
      10A     -0.782998    11A     -0.697149    12A     -0.684504
      13A     -0.677238    14A     -0.610865    15A     -0.592247
      16A     -0.579200    17A     -0.546115    18A     -0.504246
      19A     -0.455477    20A     -0.438158

  @DF-RHF Final Energy:  -266.81858704892710

   => Energetics <=

    Nuclear Repulsion Energy =            182.7412440146691210
    One-Electron Energy =                -726.1787378388812613
    Two-Electron Energy =                 276.6189067752848700
    DFT Exchange-Correlation Energy =       0.0000000000000000
    Empirical Dispersion Energy =           0.0000000000000000
    PCM Polarization Energy =               0.0000000000000000
    EFP Energy =                            0.0000000000000000
    Total Energy =                       -266.8185870489273270
    Molecular point group: c1
  Basis Set: 6-31G*
  Basis Set:

  -Total Gradient:
     Atom            X                  Y                   Z
    ------   -----------------  -----------------  -----------------
       1        0.000015210203    -0.000032602043     0.003901614842
       2        0.000626718395     0.000920828003    -0.004393715229
       3       -0.000017911290     0.000007119912     0.000067072285
       4       -0.001968076717    -0.002457807204    -0.002019486334
       5       -0.000013848806     0.000019870837    -0.000005064564
       6       -0.000005211898     0.000002498430    -0.000009971544
       7        0.000031185930    -0.000027334921    -0.000019459776
       8        0.001313231414     0.001544077591     0.002469199802
       9       -0.000004913260     0.000030801066    -0.000002711087
      10       -0.000003753790    -0.000011176307    -0.000018368355
      11        0.000027369820     0.000003724637     0.000030889960

  **** Optimization is complete! (in 10 steps) ****
    Final optimized geometry and variables:
    Molecular point group: c1

    Geometry (in Angstrom), charge = 0, multiplicity = 1:

    O            0.033216824355     1.651780772085    -0.154840797725
    C           -0.169029384742     0.487387261554    -0.160329177477
    C           -1.556618599680    -0.110523287726    -0.189838465271
    O            0.859528593820    -0.373631832816    -0.160736898575
    H           -1.630963340008    -0.872289520481    -0.957516109136
    H           -2.266348739288     0.679119806882    -0.384579020711
    H           -1.798351375569    -0.570598877453     0.762526035297
    C            0.807808995086    -1.548893930777     0.614856837683
    H            0.610207606197    -1.319330875323     1.655374507612
    H            1.782870133259    -2.002674481391     0.533317727169
    H            0.062619684813    -2.244217338721     0.247715010636

  Mulliken Charges: (a.u.)
   Center  Symbol    Alpha    Beta     Spin     Total
       1     O     4.25524  4.25524  0.00000 -0.51048
       2     C     2.62104  2.62104  0.00000  0.75792
       3     C     3.30441  3.30441  0.00000 -0.60881
       4     O     4.29943  4.29943  0.00000 -0.59885
       5     H     0.40169  0.40169  0.00000  0.19662
       6     H     0.38902  0.38902  0.00000  0.22196
       7     H     0.40321  0.40321  0.00000  0.19357
       8     C     3.09425  3.09425  0.00000 -0.18849
       9     H     0.41502  0.41502  0.00000  0.16997
      10     H     0.39847  0.39847  0.00000  0.20307
      11     H     0.41824  0.41824  0.00000  0.16353

   Total alpha = 20.00000, Total beta = 20.00000, Total charge = -0.00000
