  ==> Input File <==

--------------------------------------------------------------------------
set {
	reference rhf
	basis 6-31G*
}

set_num_threads( 4 )
memory 2 gb

molecule MOL {
0 1

H	 4.288816	 -0.262966	 -1.603358
C	 3.559528	 -0.669312	 -0.909981
C	 2.270474	 0.151121	 -0.923924
H	 3.371676	 -1.700356	 -1.196143
H	 4.012355	 -0.677931	 0.077500
C	 1.217350	 -0.386724	 0.039429
H	 1.847870	 0.168301	 -1.923674
H	 2.498459	 1.184029	 -0.666019
N	 0.000003	 0.397874	 -0.023260
H	 0.970475	 -1.409159	 -0.233779
H	 1.634144	 -0.429138	 1.051290
C	 -1.217365	 -0.386708	 0.039277
H	 -0.000031	 1.072115	 0.718656
C	 -2.452633	 0.504241	 -0.042481
H	 -1.215291	 -1.074557	 -0.802042
H	 -1.269739	 -1.003477	 0.942735
C	 -3.758029	 -0.289423	 -0.010781
H	 -2.394220	 1.093569	 -0.952170
H	 -2.440793	 1.210787	 0.785871
H	 -3.816659	 -0.981993	 -0.845726
H	 -4.617837	 0.370165	 -0.069296
H	 -3.847478	 -0.867502	 0.904682

	symmetry c1
}
set optking {
	frozen_dihedral = ("
		10 6 9 12
	")
}

ee = optimize('scf')
oeprop('DIPOLE', 'QUADRUPOLE', 'MULLIKEN_CHARGES')
f=open( 'psi4out.xyz', 'w' )
f.write( "22  " )
f.write( str(ee) + "\n" )
f.write( MOL.save_string_xyz() )
f.close()
--------------------------------------------------------------------------

    Molecular point group: c1
  Charge       = 0
  Multiplicity = 1
  Basis Set: 6-31G*
  Basis Set:
  @DF-RHF Final Energy:  -290.37942712196468
    Total Energy =                       -290.3794271219649090
    Molecular point group: c1
  Basis Set: 6-31G*
  Basis Set:
  Basis Set: 6-31G*
  Basis Set:
  @DF-RHF Final Energy:  -290.37980198738728
    Total Energy =                       -290.3798019873873955
  Basis Set: 6-31G*
  Basis Set:
  Basis Set: 6-31G*
  Basis Set:
  @DF-RHF Final Energy:  -290.37990420534561
    Total Energy =                       -290.3799042053454968
  Basis Set: 6-31G*
  Basis Set:
  Basis Set: 6-31G*
  Basis Set:
  @DF-RHF Final Energy:  -290.37990817627855
    Total Energy =                       -290.3799081762785477
  Basis Set: 6-31G*
  Basis Set:
  Charge       = 0
  Multiplicity = 1
  Basis Set: 6-31G*
  Basis Set:

    Orbital Energies (a.u.)
    -----------------------

    Doubly Occupied:

       1A    -15.531172     2A    -11.238882     3A    -11.238146
       4A    -11.213504     5A    -11.209829     6A    -11.207516
       7A    -11.206582     8A     -1.201552     9A     -1.057337
      10A     -1.024545    11A     -0.927734    12A     -0.869476
      13A     -0.806861    14A     -0.793821    15A     -0.669066
      16A     -0.629223    17A     -0.614197    18A     -0.602027
      19A     -0.577733    20A     -0.560361    21A     -0.535367
      22A     -0.518538    23A     -0.514666    24A     -0.486596
      25A     -0.483341    26A     -0.471827    27A     -0.465111
      28A     -0.451945    29A     -0.352007

  @DF-RHF Final Energy:  -290.37990897885561

   => Energetics <=

    Nuclear Repulsion Energy =            313.2196558716875643
    One-Electron Energy =               -1012.2812069417557268
    Two-Electron Energy =                 408.6816420912126659
    DFT Exchange-Correlation Energy =       0.0000000000000000
    Empirical Dispersion Energy =           0.0000000000000000
    PCM Polarization Energy =               0.0000000000000000
    EFP Energy =                            0.0000000000000000
    Total Energy =                       -290.3799089788554966
    Molecular point group: c1
  Basis Set: 6-31G*
  Basis Set:

  -Total Gradient:
     Atom            X                  Y                   Z
    ------   -----------------  -----------------  -----------------
       1        0.000035141993    -0.000026584981    -0.000010045238
       2        0.000017816760     0.000006219599    -0.000049858244
       3       -0.000079611123    -0.000043234141     0.000127846641
       4       -0.000006552104     0.000013609232     0.000012065047
       5       -0.000009989060     0.000012136427    -0.000014422610
       6        0.000569605780     0.000743740993    -0.004688573173
       7       -0.000003417685    -0.000002279926     0.000027460875
       8       -0.000006943480     0.000003416629     0.000023007524
       9       -0.000090139310     0.000061131053     0.004028591706
      10       -0.000495040382    -0.000697770431     0.002861524142
      11        0.000057954625     0.000021228346     0.000020520762
      12        0.000063705148    -0.000110115809    -0.002315735597
      13       -0.000037441008     0.000016156190     0.000000716417
      14       -0.000015136129    -0.000000175538    -0.000013410412
      15        0.000029479678     0.000023007669     0.000003806297
      16        0.000002878185     0.000005180855    -0.000017313593
      17       -0.000036101550     0.000013963291     0.000003320905
      18        0.000005846131    -0.000018614136     0.000002797840
      19        0.000012424112    -0.000015745556    -0.000003430186
      20       -0.000001821559     0.000002625615    -0.000002092406
      21       -0.000014744151    -0.000006724650     0.000004533084
      22        0.000002085129    -0.000001170728    -0.000001309781

  **** Optimization is complete! (in 5 steps) ****
    Final optimized geometry and variables:
    Molecular point group: c1

    Geometry (in Angstrom), charge = 0, multiplicity = 1:

    H            4.376067671671    -0.100277475953    -1.323796042298
    C            3.646039269346    -0.526389984584    -0.642963148947
    C            2.336182858827     0.260054230534    -0.674122608617
    H            3.490826997322    -1.562050963809    -0.933579970275
    H            4.084449634746    -0.526350786085     0.351424400539
    C            1.279159537179    -0.310044393398     0.266429377252
    H            1.929400384460     0.274554378925    -1.680676767351
    H            2.523810735959     1.297043028827    -0.405353537040
    N            0.046675384431     0.462264707827     0.226951420038
    H            1.055403501550    -1.338147502400    -0.003220460307
    H            1.686582393506    -0.362440513264     1.278775183563
    C           -1.183311593011    -0.299399873257     0.306161334412
    H            0.059403616470     1.179277622314     0.924119969752
    C           -2.399903244185     0.616175885039     0.217243068147
    H           -1.198642426911    -0.995224539082    -0.527713214994
    H           -1.250889070049    -0.904129482825     1.216840554218
    C           -3.721625132161    -0.149604475906     0.258805783816
    H           -2.330027021095     1.195020277350    -0.698463804542
    H           -2.372060392963     1.330366298616     1.038643391987
    H           -3.796183468451    -0.849137133319    -0.569012208505
    H           -4.567465232193     0.527322108280     0.194784476562
    H           -3.821750883543    -0.716316250944     1.180228346788

  Mulliken Charges: (a.u.)
   Center  Symbol    Alpha    Beta     Spin     Total
       1     H     0.41803  0.41803  0.00000  0.16393
       2     C     3.24578  3.24578  0.00000 -0.49155
       3     C     3.14295  3.14295  0.00000 -0.28590
       4     H     0.42246  0.42246  0.00000  0.15507
       5     H     0.42288  0.42288  0.00000  0.15425
       6     C     3.05368  3.05368  0.00000 -0.10736
       7     H     0.41756  0.41756  0.00000  0.16488
       8     H     0.42416  0.42416  0.00000  0.15168
       9     N     3.86263  3.86263  0.00000 -0.72526
      10     H     0.42239  0.42239  0.00000  0.15523
      11     H     0.43160  0.43160  0.00000  0.13679
      12     C     3.04478  3.04478  0.00000 -0.08956
      13     H     0.33283  0.33283  0.00000  0.33433
      14     C     3.15680  3.15680  0.00000 -0.31361
      15     H     0.42153  0.42153  0.00000  0.15694
      16     H     0.43680  0.43680  0.00000  0.12640
      17     C     3.24323  3.24323  0.00000 -0.48646
      18     H     0.41310  0.41310  0.00000  0.17379
      19     H     0.42675  0.42675  0.00000  0.14651
      20     H     0.42074  0.42074  0.00000  0.15851
      21     H     0.41771  0.41771  0.00000  0.16457
      22     H     0.42160  0.42160  0.00000  0.15681

   Total alpha = 29.00000, Total beta = 29.00000, Total charge =  0.00000
