  ==> Input File <==

--------------------------------------------------------------------------
set {
	reference rhf
	basis 6-31G*
}

set_num_threads( 4 )
memory 2 gb

molecule MOL {
0 1

H	 1.148083	 -1.049780	 0.784252
O	 1.319262	 -0.618148	 -0.041729
C	 0.709265	 0.639550	 -0.033818
C	 -0.331496	 0.827456	 -1.106240
H	 1.505577	 1.362703	 -0.168501
H	 0.262201	 0.846721	 0.937902
C	 -0.570565	 -0.014617	 -2.091391
H	 -0.904753	 1.738479	 -1.029449
H	 -0.006939	 -0.922291	 -2.209216
H	 -1.331968	 0.183443	 -2.824204

	symmetry c1
}
set optking {
	frozen_dihedral = ("
		5 3 2 1
	")
}

ee = optimize('scf')
oeprop('DIPOLE', 'QUADRUPOLE', 'MULLIKEN_CHARGES')
f=open( 'psi4out.xyz', 'w' )
f.write( "10  " )
f.write( str(ee) + "\n" )
f.write( MOL.save_string_xyz() )
f.close()
--------------------------------------------------------------------------

    Molecular point group: c1
  Charge       = 0
  Multiplicity = 1
  Basis Set: 6-31G*
  Basis Set:
  @DF-RHF Final Energy:  -191.91368162559058
    Total Energy =                       -191.9136816255905842
    Molecular point group: c1
  Basis Set: 6-31G*
  Basis Set:
  Basis Set: 6-31G*
  Basis Set:
  @DF-RHF Final Energy:  -191.91445394268140
    Total Energy =                       -191.9144539426814049
  Basis Set: 6-31G*
  Basis Set:
  Basis Set: 6-31G*
  Basis Set:
  @DF-RHF Final Energy:  -191.91464119385583
    Total Energy =                       -191.9146411938557719
  Basis Set: 6-31G*
  Basis Set:
  Basis Set: 6-31G*
  Basis Set:
  @DF-RHF Final Energy:  -191.91464756523948
    Total Energy =                       -191.9146475652395623
  Basis Set: 6-31G*
  Basis Set:
  Charge       = 0
  Multiplicity = 1
  Basis Set: 6-31G*
  Basis Set:

    Orbital Energies (a.u.)
    -----------------------

    Doubly Occupied:

       1A    -20.558950     2A    -11.278759     3A    -11.223749
       4A    -11.210449     5A     -1.367026     6A     -1.053224
       7A     -0.923946     8A     -0.757022     9A     -0.703695
      10A     -0.649038    11A     -0.609828    12A     -0.577006
      13A     -0.508144    14A     -0.504732    15A     -0.445737
      16A     -0.356525

  @DF-RHF Final Energy:  -191.91464866752523

   => Energetics <=

    Nuclear Repulsion Energy =            119.2431655698463118
    One-Electron Energy =                -496.8599673386926270
    Two-Electron Energy =                 185.7021531013210165
    DFT Exchange-Correlation Energy =       0.0000000000000000
    Empirical Dispersion Energy =           0.0000000000000000
    PCM Polarization Energy =               0.0000000000000000
    EFP Energy =                            0.0000000000000000
    Total Energy =                       -191.9146486675252845
    Molecular point group: c1
  Basis Set: 6-31G*
  Basis Set:

  -Total Gradient:
     Atom            X                  Y                   Z
    ------   -----------------  -----------------  -----------------
       1        0.000723542572     0.000362308870     0.000424732394
       2       -0.000867506079    -0.000454950596    -0.000324649715
       3        0.000049883079     0.000100965883    -0.000874272746
       4        0.000030482929     0.000043607611     0.000018237378
       5        0.000059808823    -0.000018801488     0.000766323771
       6        0.000001046370    -0.000013677339    -0.000015198343
       7        0.000048447875     0.000009261960    -0.000030046879
       8       -0.000013274825    -0.000003582136     0.000004288790
       9       -0.000015993391    -0.000019227214     0.000008693725
      10       -0.000016437356    -0.000005905550     0.000021891623

  **** Optimization is complete! (in 5 steps) ****
    Final optimized geometry and variables:
    Molecular point group: c1

    Geometry (in Angstrom), charge = 0, multiplicity = 1:

    H            0.839351486389    -1.271611844012     1.439772206890
    O            1.013513413870    -0.759035097387     0.665886786060
    C            0.354760558935     0.476506264744     0.746695925999
    C           -0.648069636383     0.667774447948    -0.357030607674
    H            1.097113475122     1.269265862938     0.702880108358
    H           -0.149064976695     0.585433224896     1.705551483636
    C           -0.934340218165    -0.218593899275    -1.287813770350
    H           -1.146208864824     1.625291410454    -0.351396475071
    H           -0.445529506152    -1.174048992937    -1.320587066620
    H           -1.663445133992    -0.009886149735    -2.050227023315

  Mulliken Charges: (a.u.)
   Center  Symbol    Alpha    Beta     Spin     Total
       1     H     0.27740  0.27740  0.00000  0.44520
       2     O     4.36981  4.36981  0.00000 -0.73963
       3     C     3.00178  3.00178  0.00000 -0.00356
       4     C     3.08897  3.08897  0.00000 -0.17793
       5     H     0.41627  0.41627  0.00000  0.16747
       6     H     0.42675  0.42675  0.00000  0.14650
       7     C     3.19155  3.19155  0.00000 -0.38310
       8     H     0.41291  0.41291  0.00000  0.17417
       9     H     0.40043  0.40043  0.00000  0.19914
      10     H     0.41413  0.41413  0.00000  0.17174

   Total alpha = 16.00000, Total beta = 16.00000, Total charge = -0.00000
