  ==> Input File <==

--------------------------------------------------------------------------
set {
	reference rhf
	basis 6-31G*
}

set_num_threads( 4 )
memory 2 gb

molecule MOL {
0 1

H	 1.994625	 -0.187877	 0.458793
C	 1.156413	 -0.206753	 -0.224103
O	 0.000000	 0.000000	 0.521119
H	 1.293668	 0.572826	 -0.971837
H	 1.137015	 -1.170072	 -0.731379
C	 -1.165642	 0.000000	 -0.238270
H	 -1.228672	 0.883184	 -0.872070
H	 -2.003012	 0.000000	 0.445920
H	 -1.228672	 -0.883184	 -0.872070

	symmetry c1
}
set optking {
	frozen_dihedral = ("
		2 3 6 7
	")
}

ee = optimize('scf')
oeprop('DIPOLE', 'QUADRUPOLE', 'MULLIKEN_CHARGES')
f=open( 'psi4out.xyz', 'w' )
f.write( "9  " )
f.write( str(ee) + "\n" )
f.write( MOL.save_string_xyz() )
f.close()
--------------------------------------------------------------------------

    Molecular point group: c1
  Charge       = 0
  Multiplicity = 1
  Basis Set: 6-31G*
  Basis Set:
  @DF-RHF Final Energy:  -154.06439123660113
    Total Energy =                       -154.0643912366011250
    Molecular point group: c1
  Basis Set: 6-31G*
  Basis Set:
  Basis Set: 6-31G*
  Basis Set:
  @DF-RHF Final Energy:  -154.06440256029407
    Total Energy =                       -154.0644025602940985
  Basis Set: 6-31G*
  Basis Set:
  Charge       = 0
  Multiplicity = 1
  Basis Set: 6-31G*
  Basis Set:

    Orbital Energies (a.u.)
    -----------------------

    Doubly Occupied:

       1A    -20.556153     2A    -11.265296     3A    -11.265197
       4A     -1.379136     5A     -0.974953     6A     -0.872867
       7A     -0.661677     8A     -0.653901     9A     -0.645053
      10A     -0.552689    11A     -0.529223    12A     -0.474515
      13A     -0.417209

  @DF-RHF Final Energy:  -154.06440377737272

   => Energetics <=

    Nuclear Repulsion Energy =             84.7406199533796922
    One-Electron Energy =                -377.1143102008679193
    Two-Electron Energy =                 138.3092864701155236
    DFT Exchange-Correlation Energy =       0.0000000000000000
    Empirical Dispersion Energy =           0.0000000000000000
    PCM Polarization Energy =               0.0000000000000000
    EFP Energy =                            0.0000000000000000
    Total Energy =                       -154.0644037773727177
    Molecular point group: c1
  Basis Set: 6-31G*
  Basis Set:

  -Total Gradient:
     Atom            X                  Y                   Z
    ------   -----------------  -----------------  -----------------
       1        0.000004234274     0.000008272783    -0.000000390154
       2       -0.000090087680    -0.001200005931     0.000165233040
       3       -0.000071170769     0.001839896795     0.000035516730
       4       -0.000001543961     0.000003002015     0.000007558185
       5        0.000012453692     0.000002070567    -0.000005060557
       6        0.000860508264    -0.001378467847    -0.001303943131
       7       -0.000722587049     0.000740171057     0.001099810341
       8       -0.000013004315     0.000006413422    -0.000018919841
       9        0.000021197544    -0.000021352862     0.000020195385

  **** Optimization is complete! (in 3 steps) ****
    Final optimized geometry and variables:
    Molecular point group: c1

    Geometry (in Angstrom), charge = 0, multiplicity = 1:

    H            1.997563945391    -0.114776154541     0.456855625048
    C            1.161113626397    -0.133653455373    -0.228194349365
    O            0.002784429099     0.069215589054     0.515582783312
    H            1.300381247568     0.647298659870    -0.974267932383
    H            1.143563990396    -1.095996217749    -0.736926683332
    C           -1.163282245395     0.070370228450    -0.243987861224
    H           -1.226693882793     0.955695464465    -0.874573590350
    H           -1.999606144713     0.077499290874     0.441929441221
    H           -1.233578691381    -0.814720128199    -0.873497091599

  Mulliken Charges: (a.u.)
   Center  Symbol    Alpha    Beta     Spin     Total
       1     H     0.41180  0.41180  0.00000  0.17641
       2     C     3.08023  3.08023  0.00000 -0.16046
       3     O     4.29536  4.29536  0.00000 -0.59071
       4     H     0.43044  0.43044  0.00000  0.13913
       5     H     0.42998  0.42998  0.00000  0.14005
       6     C     3.08019  3.08019  0.00000 -0.16038
       7     H     0.42916  0.42916  0.00000  0.14167
       8     H     0.41209  0.41209  0.00000  0.17581
       9     H     0.43076  0.43076  0.00000  0.13848

   Total alpha = 13.00000, Total beta = 13.00000, Total charge = -0.00000
