                              Psi4 1.0.54 Driver

  ==> Input File <==

--------------------------------------------------------------------------
set {
	reference rhf
	basis cc-pvtz
}

set_num_threads( 4 )
memory 2 gb

molecule MOL {
0 1

H	 1.166964	 -1.062386	 0.758429
O	 1.324748	 -0.612467	 -0.052206
C	 0.706474	 0.636793	 -0.025501
C	 -0.526285	 0.706764	 0.830678
H	 0.442644	 0.870387	 -1.050259
H	 1.403422	 1.407586	 0.298290
C	 -1.097103	 -0.307764	 1.441584
H	 -0.951152	 1.692469	 0.926193
H	 -0.713811	 -1.306692	 1.356713
H	 -1.978667	 -0.170663	 2.038331

	symmetry c1
}
set optking {
	frozen_dihedral = ("
		5 3 2 1
	")
}

ee,wfn = optimize('scf', return_wfn=True)
oeprop( wfn, 'DIPOLE', 'QUADRUPOLE', 'MULLIKEN_CHARGES')
f=open( 'psi4out.xyz', 'w' )
f.write( "10  " )
f.write( str(ee) + "\n" )
f.write( MOL.save_string_xyz() )
f.close()
--------------------------------------------------------------------------

    Molecular point group: c1
  Charge       = 0
  Multiplicity = 1
  Basis Set: CC-PVTZ
  Basis Set:
  @DF-RHF Final Energy:  -191.99648175027414
    Total Energy =                       -191.9964817502741425
    Molecular point group: c1
  Basis Set: CC-PVTZ
  Basis Set:
  Basis Set: CC-PVTZ
  Basis Set:
  @DF-RHF Final Energy:  -191.99675061379463
    Total Energy =                       -191.9967506137945747
  Basis Set: CC-PVTZ
  Basis Set:
  Basis Set: CC-PVTZ
  Basis Set:
  @DF-RHF Final Energy:  -191.99689483604899
    Total Energy =                       -191.9968948360490799
  Basis Set: CC-PVTZ
  Basis Set:
  Basis Set: CC-PVTZ
  Basis Set:
  @DF-RHF Final Energy:  -191.99689848161574
    Total Energy =                       -191.9968984816158866
  Basis Set: CC-PVTZ
  Basis Set:
  Charge       = 0
  Multiplicity = 1
  Basis Set: CC-PVTZ
  Basis Set:

    Orbital Energies (a.u.)
    -----------------------

    Doubly Occupied:

       1A    -20.552089     2A    -11.278396     3A    -11.237882
       4A    -11.223789     5A     -1.373463     6A     -1.067150
       7A     -0.936473     8A     -0.777026     9A     -0.690577
      10A     -0.663683    11A     -0.629611    12A     -0.573363
      13A     -0.554567    14A     -0.486083    15A     -0.457908
      16A     -0.374134

  @DF-RHF Final Energy:  -191.99689940795400

   => Energetics <=

    Nuclear Repulsion Energy =            119.5925848779809968
    One-Electron Energy =                -497.4265779146509203
    Two-Electron Energy =                 185.8370936287159907
    DFT Exchange-Correlation Energy =       0.0000000000000000
    Empirical Dispersion Energy =           0.0000000000000000
    PCM Polarization Energy =               0.0000000000000000
    EFP Energy =                            0.0000000000000000
    Total Energy =                       -191.9968994079539470
    Molecular point group: c1
  Basis Set: CC-PVTZ
  Basis Set:

  -Total Gradient:
     Atom            X                  Y                   Z
    ------   -----------------  -----------------  -----------------
       1       -0.002758875001    -0.001550702927    -0.001150970968
       2        0.002828657384     0.001545802852     0.001556839490
       3        0.002463897107     0.001320994673    -0.000886452118
       4       -0.000040083896    -0.000066293811    -0.000029682842
       5       -0.002481541589    -0.001333057346     0.000518424165
       6       -0.000015743027     0.000003180346    -0.000024397281
       7        0.000039992643     0.000028744968    -0.000035770930
       8       -0.000028599739     0.000056344389     0.000023627463
       9       -0.000000076541     0.000005685288     0.000012395569
      10       -0.000007627341    -0.000010698432     0.000015987450

  **** Optimization is complete! (in 5 steps) ****
    Final optimized geometry and variables:
    Molecular point group: c1

    Geometry (in Angstrom), charge = 0, multiplicity = 1:

    H            1.095613685207    -1.081041319838     0.268835376838
    O            1.203186778891    -0.649340988734    -0.558654389901
    C            0.529272703524     0.571475683229    -0.552441243445
    C           -0.693633453615     0.618940442690     0.320151597829
    H            0.216280863532     0.768393650626    -1.572301021741
    H            1.200622876784     1.373660651628    -0.256728812373
    C           -1.295713142778    -0.407087690133     0.880781856377
    H           -1.094438536757     1.607515214541     0.469547399124
    H           -0.959608772235    -1.418578943342     0.746088656095
    H           -2.169067720730    -0.271394035231     1.489323319039

  Mulliken Charges: (a.u.)
   Center  Symbol    Alpha    Beta     Spin     Total
       1     H     0.39027  0.39027  0.00000  0.21945
       2     O     4.20180  4.20180  0.00000 -0.40360
       3     C     2.93945  2.93945  0.00000  0.12111
       4     C     3.08104  3.08104  0.00000 -0.16209
       5     H     0.45926  0.45926  0.00000  0.08148
       6     H     0.47050  0.47050  0.00000  0.05899
       7     C     3.17707  3.17707  0.00000 -0.35413
       8     H     0.42227  0.42227  0.00000  0.15545
       9     H     0.43129  0.43129  0.00000  0.13743
      10     H     0.42705  0.42705  0.00000  0.14591

   Total alpha = 16.00000, Total beta = 16.00000, Total charge = -0.00000

*** Psi4 exiting successfully. Buy a developer a beer!
