  ==> Input File <==

--------------------------------------------------------------------------
set {
	reference rhf
	basis 6-31G*
}

set_num_threads( 4 )
memory 2 gb

molecule MOL {
0 1

H	 2.465338	 -2.224223	 0.000000
O	 2.784187	 -1.332015	 0.000000
C	 1.765313	 -0.449364	 0.000000
C	 1.687308	 0.435962	 -1.070540
C	 0.821981	 -0.402118	 1.007981
H	 2.432528	 0.379243	 -1.841441
C	 0.667419	 1.363124	 -1.127659
H	 0.857815	 -1.072018	 1.844328
C	 -0.188749	 0.541452	 0.918993
H	 0.614791	 2.042818	 -1.957782
C	 -0.292794	 1.430600	 -0.127018
N	 -1.184089	 0.587167	 1.987962
H	 -1.089797	 2.144230	 -0.157372
O	 -1.071565	 -0.194527	 2.883687
O	 -2.050652	 1.402179	 1.903774

	symmetry c1
}
set optking {
	frozen_dihedral = ("
		4 3 2 1
	")
}

ee = optimize('scf')
oeprop('DIPOLE', 'QUADRUPOLE', 'MULLIKEN_CHARGES')
f=open( 'psi4out.xyz', 'w' )
f.write( "15  " )
f.write( str(ee) + "\n" )
f.write( MOL.save_string_xyz() )
f.close()
--------------------------------------------------------------------------

    Molecular point group: c1
  Charge       = 0
  Multiplicity = 1
  Basis Set: 6-31G*
  Basis Set:
  @DF-RHF Final Energy:  -509.02395797553351
    Total Energy =                       -509.0239579755336763
    Molecular point group: c1
  Basis Set: 6-31G*
  Basis Set:
  Basis Set: 6-31G*
  Basis Set:
  @DF-RHF Final Energy:  -509.02413647867706
    Total Energy =                       -509.0241364786775193
  Basis Set: 6-31G*
  Basis Set:
  Basis Set: 6-31G*
  Basis Set:
  @DF-RHF Final Energy:  -509.02388648049771
    Total Energy =                       -509.0238864804980494
  Basis Set: 6-31G*
  Basis Set:
  Basis Set: 6-31G*
  Basis Set:
  @DF-RHF Final Energy:  -509.02438437442413
    Total Energy =                       -509.0243843744241303
  Basis Set: 6-31G*
  Basis Set:
  Basis Set: 6-31G*
  Basis Set:
  @DF-RHF Final Energy:  -509.02437152085975
    Total Energy =                       -509.0243715208596313
  Basis Set: 6-31G*
  Basis Set:
  Basis Set: 6-31G*
  Basis Set:
  @DF-RHF Final Energy:  -509.02440719448185
    Total Energy =                       -509.0244071944821371
  Basis Set: 6-31G*
  Basis Set:
  Charge       = 0
  Multiplicity = 1
  Basis Set: 6-31G*
  Basis Set:

    Orbital Energies (a.u.)
    -----------------------

    Doubly Occupied:

       1A    -20.604413     2A    -20.604302     3A    -20.604178
       4A    -15.859123     5A    -11.323274     6A    -11.309948
       7A    -11.268564     8A    -11.268377     9A    -11.266145
      10A    -11.263626    11A     -1.637817    12A     -1.422363
      13A     -1.421047    14A     -1.200859    15A     -1.094808
      16A     -1.046533    17A     -0.964817    18A     -0.871444
      19A     -0.830239    20A     -0.791432    21A     -0.742284
      22A     -0.736763    23A     -0.722805    24A     -0.708918
      25A     -0.677137    26A     -0.640926    27A     -0.625486
      28A     -0.569675    29A     -0.554790    30A     -0.534438
      31A     -0.512978    32A     -0.490895    33A     -0.486887
      34A     -0.454519    35A     -0.377136    36A     -0.354651

  @DF-RHF Final Energy:  -509.02440787409415

   => Energetics <=

    Nuclear Repulsion Energy =            502.9488724161546429
    One-Electron Energy =               -1692.2593728838608058
    Two-Electron Energy =                 680.2860925936120111
    DFT Exchange-Correlation Energy =       0.0000000000000000
    Empirical Dispersion Energy =           0.0000000000000000
    PCM Polarization Energy =               0.0000000000000000
    EFP Energy =                            0.0000000000000000
    Total Energy =                       -509.0244078740940950
    Molecular point group: c1
  Basis Set: 6-31G*
  Basis Set:

  -Total Gradient:
     Atom            X                  Y                   Z
    ------   -----------------  -----------------  -----------------
       1        0.000052492191    -0.000045337930    -0.002034501366
       2       -0.000401216303    -0.000505696220     0.002141696759
       3        0.001087589663     0.001535329234     0.000777085776
       4       -0.000849704007    -0.000890039635    -0.000814189497
       5        0.000123230192    -0.000089912463    -0.000057781198
       6        0.000002287114    -0.000004608193     0.000008932479
       7        0.000083656028    -0.000088732787    -0.000082623590
       8        0.000000052415     0.000005853370     0.000010019451
       9       -0.000084850909     0.000107402226    -0.000077804541
      10       -0.000013242972     0.000007138698     0.000006325614
      11       -0.000004634264    -0.000017543394     0.000156316842
      12       -0.000007326482    -0.000049674738    -0.000015954862
      13       -0.000000675420     0.000000268196    -0.000017617639
      14        0.000012114968     0.000022144327    -0.000009254703
      15        0.000000227780     0.000013409305     0.000009350464

  **** Optimization is complete! (in 7 steps) ****
    Final optimized geometry and variables:
    Molecular point group: c1

    Geometry (in Angstrom), charge = 0, multiplicity = 1:

    H            2.203423667059    -2.533142997076    -0.670424379998
    O            2.527105100819    -1.642094251313    -0.674004633323
    C            1.495983119875    -0.753120769193    -0.713338201553
    C            1.414845929250     0.128842861498    -1.780553251370
    C            0.558867749411    -0.706072702414     0.301938613512
    H            2.156212780380     0.070875838529    -2.555330468687
    C            0.399034465125     1.067552163576    -1.830795202188
    H            0.616926703193    -1.372632944173     1.138577502802
    C           -0.453339558742     0.232846804413     0.217576348620
    H            0.343899808765     1.750582753867    -2.657926204431
    C           -0.554500741544     1.128604196128    -0.828373841435
    N           -1.449130337391     0.278294739607     1.284825591064
    H           -1.350966676440     1.843397883973    -0.852796982553
    O           -1.357567811278    -0.525163484334     2.162886257325
    O           -2.297331363543     1.114547657787     1.215274283728

  Mulliken Charges: (a.u.)
   Center  Symbol    Alpha    Beta     Spin     Total
       1     H     0.26775  0.26775  0.00000  0.46451
       2     O     4.38325  4.38325  0.00000 -0.76650
       3     C     2.81254  2.81254  0.00000  0.37492
       4     C     3.10312  3.10312  0.00000 -0.20624
       5     C     3.11740  3.11740  0.00000 -0.23481
       6     H     0.38166  0.38166  0.00000  0.23667
       7     C     3.10463  3.10463  0.00000 -0.20926
       8     H     0.36245  0.36245  0.00000  0.27509
       9     C     2.91699  2.91699  0.00000  0.16602
      10     H     0.38650  0.38650  0.00000  0.22699
      11     C     3.09187  3.09187  0.00000 -0.18375
      12     N     3.24056  3.24056  0.00000  0.51888
      13     H     0.36434  0.36434  0.00000  0.27132
      14     O     4.23409  4.23409  0.00000 -0.46819
      15     O     4.23283  4.23283  0.00000 -0.46566

   Total alpha = 36.00000, Total beta = 36.00000, Total charge = -0.00000
