  ==> Input File <==

--------------------------------------------------------------------------
set {
	reference rhf
	basis 6-31G*
}

set_num_threads( 4 )
memory 2 gb

molecule MOL {
0 1

H	 0.037977	 2.200062	 2.474583
C	 -0.519990	 1.269784	 2.638527
C	 -1.656322	 1.030386	 1.677251
O	 -0.213552	 0.537472	 3.522588
C	 -1.220012	 1.144545	 0.209990
H	 -2.086102	 0.058593	 1.890827
H	 -2.415049	 1.783960	 1.884895
C	 -0.252658	 0.041456	 -0.226725
H	 -2.107010	 1.115064	 -0.415830
H	 -0.764482	 2.119473	 0.043362
C	 1.180775	 0.282413	 0.250794
H	 -0.266029	 -0.034465	 -1.312038
H	 -0.597733	 -0.921000	 0.146291
C	 2.148627	 -0.814315	 -0.201312
H	 1.516199	 1.249228	 -0.115937
H	 1.192670	 0.346017	 1.338083
C	 3.580890	 -0.659131	 0.322722
H	 2.166869	 -0.852443	 -1.289387
H	 1.762857	 -1.776509	 0.128956
C	 4.324889	 0.564933	 -0.213704
H	 4.142010	 -1.551473	 0.056605
H	 3.564836	 -0.624694	 1.410140
H	 4.342616	 0.565491	 -1.300421
H	 3.866655	 1.493402	 0.110242
H	 5.353900	 0.572371	 0.132816

	symmetry c1
}
set optking {
	frozen_dihedral = ("
		3 5 8 12
	")
}

ee = optimize('scf')
oeprop('DIPOLE', 'QUADRUPOLE', 'MULLIKEN_CHARGES')
f=open( 'psi4out.xyz', 'w' )
f.write( "25  " )
f.write( str(ee) + "\n" )
f.write( MOL.save_string_xyz() )
f.close()
--------------------------------------------------------------------------

    Molecular point group: c1
  Charge       = 0
  Multiplicity = 1
  Basis Set: 6-31G*
  Basis Set:
  @DF-RHF Final Energy:  -387.11699931549896
    Total Energy =                       -387.1169993154987878
    Molecular point group: c1
  Basis Set: 6-31G*
  Basis Set:
  Basis Set: 6-31G*
  Basis Set:
  @DF-RHF Final Energy:  -387.11716247994241
    Total Energy =                       -387.1171624799426354
  Basis Set: 6-31G*
  Basis Set:
  Basis Set: 6-31G*
  Basis Set:
  @DF-RHF Final Energy:  -387.11861036745802
    Total Energy =                       -387.1186103674580181
  Basis Set: 6-31G*
  Basis Set:
  Basis Set: 6-31G*
  Basis Set:
  @DF-RHF Final Energy:  -387.11895777343733
    Total Energy =                       -387.1189577734367049
  Basis Set: 6-31G*
  Basis Set:
  @DF-RHF Final Energy:  -387.11918879383097
    Total Energy =                       -387.1191887938302898
  @DF-RHF Final Energy:  -387.11920736877840
    Total Energy =                       -387.1192073687780066
  Basis Set: 6-31G*
  Basis Set:
  @DF-RHF Final Energy:  -387.11920843156469
    Total Energy =                       -387.1192084315644024
  Basis Set: 6-31G*
  Basis Set:
  Basis Set: 6-31G*
  Basis Set:
  @DF-RHF Final Energy:  -387.11921262403951
    Total Energy =                       -387.1192126240398466
  Basis Set: 6-31G*
  Basis Set:
  Basis Set: 6-31G*
  Basis Set:
  @DF-RHF Final Energy:  -387.11921375416847
    Total Energy =                       -387.1192137541686407
  Basis Set: 6-31G*
  Basis Set:
  Charge       = 0
  Multiplicity = 1
  Basis Set: 6-31G*
  Basis Set:

    Orbital Energies (a.u.)
    -----------------------

    Doubly Occupied:

       1A    -20.561245     2A    -11.326620     3A    -11.235677
       4A    -11.235098     5A    -11.223749     6A    -11.218178
       7A    -11.216063     8A    -11.215362     9A    -11.208783
      10A     -1.401674    11A     -1.102284    12A     -1.067315
      13A     -1.010627    14A     -0.944264    15A     -0.879849
      16A     -0.814049    17A     -0.788567    18A     -0.779818
      19A     -0.663257    20A     -0.653919    21A     -0.642197
      22A     -0.621243    23A     -0.611896    24A     -0.579510
      25A     -0.567476    26A     -0.560705    27A     -0.535110
      28A     -0.522438    29A     -0.509145    30A     -0.505813
      31A     -0.484879    32A     -0.472649    33A     -0.459783
      34A     -0.456152    35A     -0.442913    36A     -0.408616

  @DF-RHF Final Energy:  -387.11921362451665

   => Energetics <=

    Nuclear Repulsion Energy =            451.9424741598634228
    One-Electron Energy =               -1420.2695340835218758
    Two-Electron Energy =                 581.2078462991418064
    DFT Exchange-Correlation Energy =       0.0000000000000000
    Empirical Dispersion Energy =           0.0000000000000000
    PCM Polarization Energy =               0.0000000000000000
    EFP Energy =                            0.0000000000000000
    Total Energy =                       -387.1192136245166466
    Molecular point group: c1
  Basis Set: 6-31G*
  Basis Set:

  -Total Gradient:
     Atom            X                  Y                   Z
    ------   -----------------  -----------------  -----------------
       1        0.000017039364    -0.000023621237    -0.000012092059
       2       -0.000068041827     0.000015156191     0.000063869980
       3       -0.000879038968    -0.000693902006    -0.000340430974
       4        0.000044126547    -0.000002317865     0.000001453869
       5        0.001018076811     0.000727470162     0.000517811485
       6        0.000003134537     0.000012717348    -0.000003143139
       7       -0.000013251970     0.000007149076    -0.000009246585
       8        0.001021300475     0.001033740054    -0.000221056030
       9        0.000010581668    -0.000018135380    -0.000013665817
      10        0.000005106359    -0.000016770307    -0.000016450022
      11        0.000011129717     0.000062842193     0.000009926493
      12       -0.001135202507    -0.001083482873     0.000079308397
      13       -0.000022151992     0.000011894176    -0.000007725540
      14       -0.000014651614    -0.000012200116    -0.000028622243
      15       -0.000009843022     0.000011313717    -0.000015776169
      16       -0.000006879722    -0.000002956769    -0.000009027995
      17       -0.000013051792    -0.000008897595     0.000012673095
      18        0.000027300794    -0.000013798894    -0.000007583420
      19       -0.000004633115    -0.000012577356    -0.000010165083
      20       -0.000003168185     0.000007655218     0.000000723375
      21       -0.000006270986     0.000003302625     0.000003670042
      22        0.000006151663    -0.000000289758     0.000004364332
      23       -0.000002479206    -0.000004927350     0.000004625690
      24        0.000015628757     0.000001259681    -0.000003235680
      25       -0.000000911784    -0.000000622935    -0.000000206014

  **** Optimization is complete! (in 10 steps) ****
    Final optimized geometry and variables:
    Molecular point group: c1

    Geometry (in Angstrom), charge = 0, multiplicity = 1:

    H           -1.022029416539     2.012323796110     1.597726708846
    C           -1.494684402453     1.043723798908     1.800906073479
    C           -2.510020124242     0.600803370398     0.778387753684
    O           -1.212371248602     0.435147928268     2.782142913682
    C           -2.032395741482     0.699097933377    -0.679696300196
    H           -2.828926291895    -0.405256100815     1.025371091839
    H           -3.370346199851     1.257757728681     0.905176773391
    C           -1.032693074792    -0.381046629758    -1.118314258086
    H           -2.912513783135     0.625491664483    -1.310953377398
    H           -1.615431153997     1.687743680580    -0.864231918589
    C            0.410448665999    -0.172274995854    -0.649651788527
    H           -1.046318361464    -0.433292247784    -2.204488208640
    H           -1.387484832796    -1.350293615498    -0.773152002419
    C            1.360122016085    -1.239846317450    -1.201422227046
    H            0.742264842080     0.815690196229    -0.960051537994
    H            0.459652633401    -0.190657623492     0.436042893707
    C            2.800926110872    -1.140669098074    -0.687775241034
    H            1.362785160384    -1.192069185923    -2.289373166111
    H            0.968228034202    -2.220860140486    -0.941308870939
    C            3.548522896105     0.118092360738    -1.131466867448
    H            3.349610497175    -2.012472543187    -1.035445378980
    H            2.799546369657    -1.196685345836     0.398579926895
    H            3.553449884023     0.208119963284    -2.214584397976
    H            3.102414079691     1.020233172217    -0.726070058690
    H            4.581444868508     0.089560130829    -0.798646200323

  Mulliken Charges: (a.u.)
   Center  Symbol    Alpha    Beta     Spin     Total
       1     H     0.43174  0.43174  0.00000  0.13653
       2     C     2.82810  2.82810  0.00000  0.34379
       3     C     3.20834  3.20834  0.00000 -0.41667
       4     O     4.24139  4.24139  0.00000 -0.48278
       5     C     3.16772  3.16772  0.00000 -0.33543
       6     H     0.39928  0.39928  0.00000  0.20145
       7     H     0.40608  0.40608  0.00000  0.18783
       8     C     3.15343  3.15343  0.00000 -0.30686
       9     H     0.41202  0.41202  0.00000  0.17597
      10     H     0.41923  0.41923  0.00000  0.16154
      11     C     3.16369  3.16369  0.00000 -0.32739
      12     H     0.41858  0.41858  0.00000  0.16284
      13     H     0.41889  0.41889  0.00000  0.16223
      14     C     3.15231  3.15231  0.00000 -0.30463
      15     H     0.42219  0.42219  0.00000  0.15562
      16     H     0.41503  0.41503  0.00000  0.16994
      17     C     3.15333  3.15333  0.00000 -0.30666
      18     H     0.42441  0.42441  0.00000  0.15117
      19     H     0.42053  0.42053  0.00000  0.15893
      20     C     3.24120  3.24120  0.00000 -0.48241
      21     H     0.42062  0.42062  0.00000  0.15877
      22     H     0.41997  0.41997  0.00000  0.16005
      23     H     0.42287  0.42287  0.00000  0.15427
      24     H     0.42064  0.42064  0.00000  0.15871
      25     H     0.41841  0.41841  0.00000  0.16319

   Total alpha = 36.00000, Total beta = 36.00000, Total charge =  0.00000
