  ==> Input File <==

--------------------------------------------------------------------------
set {
	reference rhf
	basis 6-31G*
}

set_num_threads( 1 )
memory 2 gb

molecule MOL {
0 1

H	 3.729337	 -0.928513	 -0.071494
O	 2.826016	 -1.159218	 0.122261
C	 2.077727	 -0.067559	 -0.035091
C	 0.624473	 -0.343591	 0.253101
O	 2.542965	 0.974826	 -0.363729
C	 -0.265902	 0.883932	 0.072916
H	 0.324016	 -1.163849	 -0.390541
H	 0.565024	 -0.726111	 1.268924
C	 -1.728698	 0.646073	 0.462102
H	 -0.209144	 1.219470	 -0.958188
H	 0.135059	 1.692851	 0.673903
C	 -2.482460	 -0.343073	 -0.431425
H	 -2.245265	 1.602650	 0.432430
H	 -1.779332	 0.308348	 1.496285
C	 -3.960546	 -0.461025	 -0.060175
H	 -2.395034	 -0.026811	 -1.468912
H	 -2.024850	 -1.327147	 -0.371646
H	 -4.472726	 -1.168004	 -0.705284
H	 -4.465146	 0.496508	 -0.151489
H	 -4.081218	 -0.800940	 0.964585

	symmetry c1
}
set optking {
	frozen_dihedral = ("
		16 12 9 6,
		7 4 6 10,
		12 9 6 10,
		5 3 4 7
	")
}

ee = energy('scf')
oeprop('DIPOLE', 'QUADRUPOLE', 'MULLIKEN_CHARGES')
f=open( 'psi4out.xyz', 'w' )
f.write( "20  " )
f.write( str(ee) + "\n" )
f.write( MOL.save_string_xyz() )
f.close()
--------------------------------------------------------------------------

    Molecular point group: c1

    Geometry (in Angstrom), charge = 0, multiplicity = 1:

       Center              X                  Y                   Z               Mass
    ------------   -----------------  -----------------  -----------------  -----------------
           H          3.729338311224    -0.928511045066    -0.071486004163     1.007825032070
           O          2.826017311224    -1.159216045066     0.122268995837    15.994914619560
           C          2.077728311224    -0.067557045066    -0.035083004163    12.000000000000
           C          0.624474311224    -0.343589045066     0.253108995837    12.000000000000
           O          2.542966311224     0.974827954934    -0.363721004163    15.994914619560
           C         -0.265900688776     0.883933954934     0.072923995837    12.000000000000
           H          0.324017311224    -1.163847045066    -0.390533004163     1.007825032070
           H          0.565025311224    -0.726109045066     1.268931995837     1.007825032070
           C         -1.728696688776     0.646074954934     0.462109995837    12.000000000000
           H         -0.209142688776     1.219471954934    -0.958180004163     1.007825032070
           H          0.135060311224     1.692852954934     0.673910995837     1.007825032070
           C         -2.482458688776    -0.343071045066    -0.431417004163    12.000000000000
           H         -2.245263688776     1.602651954934     0.432437995837     1.007825032070
           H         -1.779330688776     0.308349954934     1.496292995837     1.007825032070
           C         -3.960544688776    -0.461023045066    -0.060167004163    12.000000000000
           H         -2.395032688776    -0.026809045066    -1.468904004163     1.007825032070
           H         -2.024848688776    -1.327145045066    -0.371638004163     1.007825032070
           H         -4.472724688776    -1.168002045066    -0.705276004163     1.007825032070
           H         -4.465144688776     0.496509954934    -0.151481004163     1.007825032070
           H         -4.081216688776    -0.800938045066     0.964592995837     1.007825032070

  Charge       = 0
  Multiplicity = 1
  Basis Set: 6-31G*
  Basis Set:

    Orbital Energies (a.u.)
    -----------------------

    Doubly Occupied:

       1A    -20.612526     2A    -20.551613     3A    -11.381189
       4A    -11.240222     5A    -11.222933     6A    -11.220702
       7A    -11.220113     8A    -11.212411     9A     -1.474591
      10A     -1.365644    11A     -1.096217    12A     -1.040972
      13A     -0.961256    14A     -0.868865    15A     -0.816206
      16A     -0.776886    17A     -0.699562    18A     -0.690039
      19A     -0.663924    20A     -0.635923    21A     -0.602806
      22A     -0.593904    23A     -0.575449    24A     -0.555743
      25A     -0.540188    26A     -0.513049    27A     -0.495660
      28A     -0.479243    29A     -0.470493    30A     -0.467513
      31A     -0.457281    32A     -0.443713

  @DF-RHF Final Energy:  -383.94876156224734

   => Energetics <=

    Nuclear Repulsion Energy =            375.9151293857482869
    One-Electron Energy =               -1267.8341157018871854
    Two-Electron Energy =                 507.9702247538914435
    DFT Exchange-Correlation Energy =       0.0000000000000000
    Empirical Dispersion Energy =           0.0000000000000000
    PCM Polarization Energy =               0.0000000000000000
    EFP Energy =                            0.0000000000000000
    Total Energy =                       -383.9487615622474550

  Mulliken Charges: (a.u.)
   Center  Symbol    Alpha    Beta     Spin     Total
       1     H     0.26785  0.26785  0.00000  0.46429
       2     O     4.35158  4.35158  0.00000 -0.70317
       3     C     2.62221  2.62221  0.00000  0.75558
       4     C     3.21288  3.21288  0.00000 -0.42576
       5     O     4.27927  4.27927  0.00000 -0.55854
       6     C     3.15440  3.15440  0.00000 -0.30880
       7     H     0.39684  0.39684  0.00000  0.20633
       8     H     0.39907  0.39907  0.00000  0.20187
       9     C     3.15553  3.15553  0.00000 -0.31106
      10     H     0.41224  0.41224  0.00000  0.17552
      11     H     0.40798  0.40798  0.00000  0.18403
      12     C     3.15487  3.15487  0.00000 -0.30973
      13     H     0.41787  0.41787  0.00000  0.16425
      14     H     0.42367  0.42367  0.00000  0.15265
      15     C     3.23923  3.23923  0.00000 -0.47846
      16     H     0.42146  0.42146  0.00000  0.15707
      17     H     0.42276  0.42276  0.00000  0.15449
      18     H     0.41834  0.41834  0.00000  0.16333
      19     H     0.42064  0.42064  0.00000  0.15872
      20     H     0.42131  0.42131  0.00000  0.15738

   Total alpha = 32.00000, Total beta = 32.00000, Total charge = -0.00000
