  ==> Input File <==

--------------------------------------------------------------------------
set {
	reference rhf
	basis 6-31G*
}

set_num_threads( 4 )
memory 2 gb

molecule MOL {
0 1

H	 -3.928080	 -1.295144	 1.208933
O	 -3.332361	 -1.123111	 0.493792
C	 -2.106521	 -0.661770	 1.000815
C	 -1.177863	 -0.397191	 -0.171080
H	 -2.249554	 0.251469	 1.576873
H	 -1.664648	 -1.401590	 1.666965
C	 0.198102	 0.111031	 0.262842
H	 -1.653905	 0.325615	 -0.828092
H	 -1.075606	 -1.316761	 -0.740650
C	 1.331804	 -0.827780	 -0.158768
H	 0.361943	 1.100838	 -0.156218
H	 0.217265	 0.229072	 1.345532
C	 2.723619	 -0.410569	 0.329459
H	 1.342964	 -0.912588	 -1.244120
H	 1.116806	 -1.824343	 0.220779
C	 3.243875	 0.895854	 -0.272975
H	 3.424222	 -1.207124	 0.091250
H	 2.714788	 -0.329854	 1.414619
H	 3.251977	 0.848779	 -1.358681
H	 2.637085	 1.747371	 0.016682
H	 4.259473	 1.094070	 0.055697

	symmetry c1
}
set optking {
	frozen_dihedral = ("
		8 4 7 10
	")
}

ee = optimize('scf')
oeprop('DIPOLE', 'QUADRUPOLE', 'MULLIKEN_CHARGES')
f=open( 'psi4out.xyz', 'w' )
f.write( "21  " )
f.write( str(ee) + "\n" )
f.write( MOL.save_string_xyz() )
f.close()
--------------------------------------------------------------------------

    Molecular point group: c1
  Charge       = 0
  Multiplicity = 1
  Basis Set: 6-31G*
  Basis Set:
  @DF-RHF Final Energy:  -310.20766031422829
    Total Energy =                       -310.2076603142278941
    Molecular point group: c1
  Basis Set: 6-31G*
  Basis Set:
  Basis Set: 6-31G*
  Basis Set:
  @DF-RHF Final Energy:  -310.20786996808505
    Total Energy =                       -310.2078699680851628
  Basis Set: 6-31G*
  Basis Set:
  Basis Set: 6-31G*
  Basis Set:
  @DF-RHF Final Energy:  -310.20792767847848
    Total Energy =                       -310.2079276784786543
  Basis Set: 6-31G*
  Basis Set:
  Basis Set: 6-31G*
  Basis Set:
  @DF-RHF Final Energy:  -310.20787710653718
    Total Energy =                       -310.2078771065371825
  Basis Set: 6-31G*
  Basis Set:
  Basis Set: 6-31G*
  Basis Set:
  @DF-RHF Final Energy:  -310.20793279506972
    Total Energy =                       -310.2079327950697802
  Basis Set: 6-31G*
  Basis Set:
  Charge       = 0
  Multiplicity = 1
  Basis Set: 6-31G*
  Basis Set:

    Orbital Energies (a.u.)
    -----------------------

    Doubly Occupied:

       1A    -20.551988     2A    -11.267583     3A    -11.215637
       4A    -11.215223     5A    -11.214050     6A    -11.210278
       7A    -11.208158     8A     -1.359117     9A     -1.084928
      10A     -1.031819    11A     -0.953743    12A     -0.876652
      13A     -0.808515    14A     -0.779163    15A     -0.693812
      16A     -0.653484    17A     -0.624627    18A     -0.609129
      19A     -0.590358    20A     -0.554291    21A     -0.551171
      22A     -0.516809    23A     -0.505365    24A     -0.495860
      25A     -0.474933    26A     -0.459531    27A     -0.452895
      28A     -0.445921    29A     -0.431429

  @DF-RHF Final Energy:  -310.20793288940422

   => Energetics <=

    Nuclear Repulsion Energy =            313.0724189810796361
    One-Electron Energy =               -1040.8877692499813747
    Two-Electron Energy =                 417.6074173794979743
    DFT Exchange-Correlation Energy =       0.0000000000000000
    Empirical Dispersion Energy =           0.0000000000000000
    PCM Polarization Energy =               0.0000000000000000
    EFP Energy =                            0.0000000000000000
    Total Energy =                       -310.2079328894037644
    Molecular point group: c1
  Basis Set: 6-31G*
  Basis Set:

  -Total Gradient:
     Atom            X                  Y                   Z
    ------   -----------------  -----------------  -----------------
       1       -0.000013262241    -0.000006971577    -0.000002187035
       2       -0.000035516820    -0.000013356222    -0.000001516337
       3        0.000029742829     0.000017054545    -0.000004317708
       4       -0.000020232726     0.000082184905     0.000094600801
       5        0.000003833636    -0.000001685571     0.000000702722
       6       -0.000000196280     0.000004871203    -0.000004301989
       7       -0.000004628364    -0.000077250331     0.000059500605
       8        0.000041689004    -0.000047213144    -0.000077982197
       9        0.000000702647    -0.000002679640    -0.000000307947
      10       -0.000000008501     0.000043820937    -0.000053250713
      11        0.000004788079     0.000000499198    -0.000004679932
      12       -0.000004043382    -0.000002823912     0.000005451472
      13        0.000004559689     0.000003767449    -0.000018007752
      14       -0.000000700827     0.000007712130     0.000002227261
      15        0.000005012064    -0.000000902780     0.000001957568
      16       -0.000001157827    -0.000003298110     0.000005049829
      17       -0.000000516608    -0.000009542088     0.000002237459
      18       -0.000006609807     0.000006817982    -0.000005718541
      19        0.000001251278    -0.000000299933    -0.000001538712
      20       -0.000004321430     0.000000810242    -0.000000038739
      21       -0.000000384412    -0.000001515279     0.000002119883

  **** Optimization is complete! (in 6 steps) ****
    Final optimized geometry and variables:
    Molecular point group: c1

    Geometry (in Angstrom), charge = 0, multiplicity = 1:

    H           -3.992860285652    -0.945587852975     0.988773831633
    O           -3.398662952153    -0.776002203072     0.271736770465
    C           -2.174503738986    -0.306306020787     0.772366369165
    C           -1.249362767218    -0.038936994930    -0.402387349896
    H           -2.318965734160     0.607862791109     1.346748702329
    H           -1.723376962304    -1.041322628445     1.438384668600
    C            0.143356230836     0.462910305293     0.037219650649
    H           -1.733140751496     0.679344368704    -1.055855116476
    H           -1.161498138607    -0.958083049714    -0.973584810640
    C            1.280898399194    -0.473017487409    -0.383700788309
    H            0.315814929562     1.454693606103    -0.366823853638
    H            0.171213528892     0.576640400582     1.120298900387
    C            2.671303831648    -0.053544807314     0.105177711130
    H            1.291381372883    -0.557565332714    -1.469113116791
    H            1.066129270777    -1.470565141834    -0.005238994216
    C            3.191535879629     1.251598110733    -0.500375612834
    H            3.373022017538    -0.850197326167    -0.129622520067
    H            2.661025639305     0.030468841655     1.190227622335
    H            3.200827778296     1.201268314150    -1.585886947286
    H            2.584168947927     2.103727346132    -0.213980173465
    H            4.206713787998     1.451112247671    -0.171219473491

  Mulliken Charges: (a.u.)
   Center  Symbol    Alpha    Beta     Spin     Total
       1     H     0.28113  0.28113  0.00000  0.43774
       2     O     4.37153  4.37153  0.00000 -0.74305
       3     C     2.99346  2.99346  0.00000  0.01307
       4     C     3.16121  3.16121  0.00000 -0.32242
       5     H     0.43230  0.43230  0.00000  0.13539
       6     H     0.43298  0.43298  0.00000  0.13404
       7     C     3.16552  3.16552  0.00000 -0.33104
       8     H     0.41228  0.41228  0.00000  0.17545
       9     H     0.41171  0.41171  0.00000  0.17658
      10     C     3.15351  3.15351  0.00000 -0.30702
      11     H     0.41623  0.41623  0.00000  0.16754
      12     H     0.42368  0.42368  0.00000  0.15265
      13     C     3.15320  3.15320  0.00000 -0.30641
      14     H     0.42212  0.42212  0.00000  0.15576
      15     H     0.42199  0.42199  0.00000  0.15602
      16     C     3.24116  3.24116  0.00000 -0.48232
      17     H     0.42068  0.42068  0.00000  0.15864
      18     H     0.42395  0.42395  0.00000  0.15209
      19     H     0.42176  0.42176  0.00000  0.15648
      20     H     0.42035  0.42035  0.00000  0.15931
      21     H     0.41926  0.41926  0.00000  0.16149

   Total alpha = 29.00000, Total beta = 29.00000, Total charge = -0.00000
