  ==> Input File <==

--------------------------------------------------------------------------
set {
	reference rhf
	basis 6-31G*
}

set_num_threads( 4 )
memory 2 gb

molecule MOL {
0 1

H	 3.729471	 -0.928294	 -0.070608
O	 2.826016	 -1.159218	 0.122261
C	 2.077727	 -0.067559	 -0.035091
C	 0.624473	 -0.343591	 0.253101
O	 2.542965	 0.974826	 -0.363729
C	 -0.265902	 0.883932	 0.072916
H	 0.324016	 -1.163849	 -0.390541
H	 0.565024	 -0.726111	 1.268924
C	 -1.728698	 0.646073	 0.462102
H	 -0.209144	 1.219470	 -0.958188
H	 0.135059	 1.692851	 0.673903
C	 -2.482460	 -0.343073	 -0.431425
H	 -2.245265	 1.602650	 0.432430
H	 -1.779332	 0.308348	 1.496285
C	 -3.569619	 0.331764	 -1.267581
H	 -1.774851	 -0.839566	 -1.092355
H	 -2.936919	 -1.123941	 0.172806
H	 -4.090398	 -0.388637	 -1.890578
H	 -3.147581	 1.090401	 -1.920408
H	 -4.307613	 0.815523	 -0.633877

	symmetry c1
}
set optking {
	frozen_dihedral = ("
		16 12 9 6
	")
}

ee = optimize('scf')
oeprop('DIPOLE', 'QUADRUPOLE', 'MULLIKEN_CHARGES')
f=open( 'psi4out.xyz', 'w' )
f.write( "20  " )
f.write( str(ee) + "\n" )
f.write( MOL.save_string_xyz() )
f.close()
--------------------------------------------------------------------------

    Molecular point group: c1
  Charge       = 0
  Multiplicity = 1
  Basis Set: 6-31G*
  Basis Set:
  @DF-RHF Final Energy:  -383.94302953658308
    Total Energy =                       -383.9430295365828556
    Molecular point group: c1
  Basis Set: 6-31G*
  Basis Set:
  Basis Set: 6-31G*
  Basis Set:
  @DF-RHF Final Energy:  -383.94324862016646
    Total Energy =                       -383.9432486201665711
  Basis Set: 6-31G*
  Basis Set:
  Basis Set: 6-31G*
  Basis Set:
  @DF-RHF Final Energy:  -383.94351456298574
    Total Energy =                       -383.9435145629856834
  Basis Set: 6-31G*
  Basis Set:
  Basis Set: 6-31G*
  Basis Set:
  @DF-RHF Final Energy:  -383.94356774939502
    Total Energy =                       -383.9435677493947878
  Basis Set: 6-31G*
  Basis Set:
  Basis Set: 6-31G*
  Basis Set:
  @DF-RHF Final Energy:  -383.94347826100005
    Total Energy =                       -383.9434782609998820
  Basis Set: 6-31G*
  Basis Set:
  Basis Set: 6-31G*
  Basis Set:
  @DF-RHF Final Energy:  -383.94357944111408
    Total Energy =                       -383.9435794411139682
  Basis Set: 6-31G*
  Basis Set:
  Charge       = 0
  Multiplicity = 1
  Basis Set: 6-31G*
  Basis Set:

    Orbital Energies (a.u.)
    -----------------------

    Doubly Occupied:

       1A    -20.612569     2A    -20.551648     3A    -11.381211
       4A    -11.240234     5A    -11.223348     6A    -11.220442
       7A    -11.219872     8A    -11.211992     9A     -1.474623
      10A     -1.365677    11A     -1.095176    12A     -1.039111
      13A     -0.960045    14A     -0.870267    15A     -0.816363
      16A     -0.775393    17A     -0.699578    18A     -0.689688
      19A     -0.666339    20A     -0.629222    21A     -0.607622
      22A     -0.591190    23A     -0.574173    24A     -0.565851
      25A     -0.524510    26A     -0.513224    27A     -0.505081
      28A     -0.479198    29A     -0.468596    30A     -0.462019
      31A     -0.457440    32A     -0.443374

  @DF-RHF Final Energy:  -383.94357986911115

   => Energetics <=

    Nuclear Repulsion Energy =            377.0601224403100673
    One-Electron Energy =               -1270.1372574666265791
    Two-Electron Energy =                 509.1335551572058193
    DFT Exchange-Correlation Energy =       0.0000000000000000
    Empirical Dispersion Energy =           0.0000000000000000
    PCM Polarization Energy =               0.0000000000000000
    EFP Energy =                            0.0000000000000000
    Total Energy =                       -383.9435798691106356
    Molecular point group: c1
  Basis Set: 6-31G*
  Basis Set:

  -Total Gradient:
     Atom            X                  Y                   Z
    ------   -----------------  -----------------  -----------------
       1       -0.000000102630     0.000001765994     0.000002216228
       2       -0.000014573739    -0.000035918061    -0.000076089645
       3        0.000044718781     0.000099595382     0.000231057669
       4       -0.000035460543    -0.000049990914    -0.000108590801
       5       -0.000019366319    -0.000033217229    -0.000071389419
       6        0.000201783061    -0.000514708612     0.000488031269
       7       -0.000000214719     0.000000942234     0.000014925459
       8        0.000018534478     0.000007672968     0.000007486677
       9       -0.000247825580     0.000972230457    -0.000791477737
      10       -0.000039339263    -0.000008207721     0.000010510188
      11        0.000027450833     0.000010636332    -0.000009650279
      12        0.000177616195    -0.001123083497     0.000999471651
      13        0.000043822907     0.000014057119     0.000001310375
      14        0.000031843151     0.000014323082     0.000000532487
      15        0.000016084722    -0.000054390394    -0.000033060568
      16       -0.000182017788     0.000715398203    -0.000641883451
      17       -0.000023530188    -0.000002758472    -0.000016799234
      18        0.000002204159     0.000014965113    -0.000039385120
      19       -0.000001816820     0.000024446474     0.000030591176
      20        0.000000189289    -0.000053758460     0.000002193072

  **** Optimization is complete! (in 7 steps) ****
    Final optimized geometry and variables:
    Molecular point group: c1

    Geometry (in Angstrom), charge = 0, multiplicity = 1:

    H            3.677713386014    -1.032600349846     0.065892726631
    O            2.787368239594    -1.244691438400     0.328689337186
    C            2.024173466044    -0.175422599150     0.104012214172
    C            0.590074663827    -0.423271366066     0.494559321979
    O            2.463767812070     0.829869572197    -0.351204354626
    C           -0.316379773962     0.781993210775     0.256166638207
    H            0.256306300567    -1.299349595883    -0.052904998841
    H            0.586862184112    -0.711647191681     1.542456225238
    C           -1.775344945231     0.520543109084     0.647935593611
    H           -0.260325669063     1.075791030976    -0.787600734688
    H            0.067522623786     1.621483059041     0.826152986269
    C           -2.532458538099    -0.442090094187    -0.296726727391
    H           -2.295261247950     1.473904304128     0.675950037833
    H           -1.802034229227     0.141232027123     1.666754937496
    C           -3.621546396620     0.256089708441    -1.113320553871
    H           -1.836374913586    -0.909176849555    -0.988329841248
    H           -2.981036793739    -1.251345253249     0.271566289212
    H           -4.112515214763    -0.436980705885    -1.789642243357
    H           -3.205259316071     1.063100982693    -1.709979085595
    H           -4.381851163397     0.683256978699    -0.465874342199

  Mulliken Charges: (a.u.)
   Center  Symbol    Alpha    Beta     Spin     Total
       1     H     0.26786  0.26786  0.00000  0.46428
       2     O     4.35148  4.35148  0.00000 -0.70297
       3     C     2.62274  2.62274  0.00000  0.75452
       4     C     3.21168  3.21168  0.00000 -0.42336
       5     O     4.27926  4.27926  0.00000 -0.55853
       6     C     3.15543  3.15543  0.00000 -0.31086
       7     H     0.39708  0.39708  0.00000  0.20585
       8     H     0.39884  0.39884  0.00000  0.20232
       9     C     3.16116  3.16116  0.00000 -0.32232
      10     H     0.41104  0.41104  0.00000  0.17791
      11     H     0.41004  0.41004  0.00000  0.17992
      12     C     3.15621  3.15621  0.00000 -0.31243
      13     H     0.41462  0.41462  0.00000  0.17076
      14     H     0.42110  0.42110  0.00000  0.15779
      15     C     3.24004  3.24004  0.00000 -0.48008
      16     H     0.42177  0.42177  0.00000  0.15647
      17     H     0.41879  0.41879  0.00000  0.16242
      18     H     0.41965  0.41965  0.00000  0.16070
      19     H     0.42047  0.42047  0.00000  0.15906
      20     H     0.42072  0.42072  0.00000  0.15856

   Total alpha = 32.00000, Total beta = 32.00000, Total charge =  0.00000
