                              Psi4 1.0.54 Driver

  ==> Input File <==

--------------------------------------------------------------------------
set {
	reference rhf
	basis cc-pvtz
}

set_num_threads( 4 )
memory 2 gb

molecule MOL {
0 1

H	 -2.149496	 -2.244167	 0.000000
O	 -2.454378	 -1.354528	 0.000000
C	 -1.430628	 -0.482077	 0.000000
C	 -0.193548	 -0.947895	 0.421091
C	 -1.573480	 0.830528	 -0.397343
H	 -0.103127	 -1.971553	 0.726012
C	 0.889563	 -0.099217	 0.441691
H	 -2.524692	 1.204071	 -0.725385
C	 -0.470790	 1.673730	 -0.370604
H	 1.842451	 -0.467276	 0.768609
C	 0.764887	 1.221371	 0.046427
C	 -0.629278	 3.045565	 -0.788047
H	 1.606095	 1.884030	 0.061449
N	 -0.756746	 4.117687	 -1.115140

	symmetry c1
}
set optking {
	frozen_dihedral = ("
		5 3 2 1
	")
}

ee,wfn = optimize('scf', return_wfn=True)
oeprop( wfn, 'DIPOLE', 'QUADRUPOLE', 'MULLIKEN_CHARGES')
f=open( 'psi4out.xyz', 'w' )
f.write( "14  " )
f.write( str(ee) + "\n" )
f.write( MOL.save_string_xyz() )
f.close()
--------------------------------------------------------------------------

    Molecular point group: c1
  Charge       = 0
  Multiplicity = 1
  Basis Set: CC-PVTZ
  Basis Set:
  @DF-RHF Final Energy:  -397.42994827760964
    Total Energy =                       -397.4299482776096966
    Molecular point group: c1
  Basis Set: CC-PVTZ
  Basis Set:
  Basis Set: CC-PVTZ
  Basis Set:
  @DF-RHF Final Energy:  -397.43192237836018
    Total Energy =                       -397.4319223783602411
  Basis Set: CC-PVTZ
  Basis Set:
  Basis Set: CC-PVTZ
  Basis Set:
  @DF-RHF Final Energy:  -397.43209457393641
    Total Energy =                       -397.4320945739366380
  Basis Set: CC-PVTZ
  Basis Set:
  Basis Set: CC-PVTZ
  Basis Set:
  @DF-RHF Final Energy:  -397.43212244788003
    Total Energy =                       -397.4321224478800332
  Basis Set: CC-PVTZ
  Basis Set:
  Basis Set: CC-PVTZ
  Basis Set:
  @DF-RHF Final Energy:  -397.43212739237947
    Total Energy =                       -397.4321273923798117
  Basis Set: CC-PVTZ
  Basis Set:
  Charge       = 0
  Multiplicity = 1
  Basis Set: CC-PVTZ
  Basis Set:

    Orbital Energies (a.u.)
    -----------------------

    Doubly Occupied:

       1A    -20.605372     2A    -15.563630     3A    -11.324084
       4A    -11.291528     5A    -11.266920     6A    -11.261977
       7A    -11.256918     8A    -11.256856     9A    -11.255749
      10A     -1.437474    11A     -1.236586    12A     -1.186759
      13A     -1.066343    14A     -1.043464    15A     -0.902191
      16A     -0.861767    17A     -0.798399    18A     -0.717796
      19A     -0.695554    20A     -0.676932    21A     -0.633381
      22A     -0.623208    23A     -0.592595    24A     -0.567523
      25A     -0.551033    26A     -0.544745    27A     -0.526655
      28A     -0.480077    29A     -0.477584    30A     -0.367368
      31A     -0.343334

  @DF-RHF Final Energy:  -397.43212770115520

   => Energetics <=

    Nuclear Repulsion Energy =            380.4480385322947313
    One-Electron Energy =               -1292.9327302562528530
    Two-Electron Energy =                 515.0525640228030397
    DFT Exchange-Correlation Energy =       0.0000000000000000
    Empirical Dispersion Energy =           0.0000000000000000
    PCM Polarization Energy =               0.0000000000000000
    EFP Energy =                            0.0000000000000000
    Total Energy =                       -397.4321277011550819
    Molecular point group: c1
  Basis Set: CC-PVTZ
  Basis Set:

  -Total Gradient:
     Atom            X                  Y                   Z
    ------   -----------------  -----------------  -----------------
       1        0.000033943259     0.000027928789    -0.001774863178
       2        0.000099944037    -0.000174796894     0.001689871646
       3       -0.000435756685     0.000432238263     0.001239251503
       4        0.000010354432    -0.000008495936     0.000026899282
       5        0.000325581684    -0.000278120771    -0.001204432359
       6       -0.000000684129    -0.000003599227    -0.000001629146
       7       -0.000002531551    -0.000008174267     0.000020520634
       8       -0.000003386960    -0.000006219142    -0.000001666369
       9       -0.000020660976     0.000014394648     0.000062336392
      10        0.000000536531     0.000007481875    -0.000000572427
      11       -0.000012505706    -0.000000862567    -0.000052207171
      12        0.000016482175     0.000005988917     0.000009527072
      13        0.000003716404    -0.000002865060     0.000001147962
      14       -0.000015032512    -0.000004898630    -0.000014183838

  **** Optimization is complete! (in 6 steps) ****
    Final optimized geometry and variables:
    Molecular point group: c1

    Geometry (in Angstrom), charge = 0, multiplicity = 1:

    H           -1.558185381555    -3.022886093080     0.159808878830
    O           -1.798038235467    -2.113654005898     0.167941449257
    C           -0.710110533906    -1.319782054658     0.197317180476
    C            0.528584286744    -1.770338013152     0.616507264654
    C           -0.867294765683    -0.007318947949    -0.207287435372
    H            0.647436887669    -2.789655935400     0.934443047407
    C            1.609051975548    -0.908753413008     0.632602056599
    H           -1.827833901636     0.333608179157    -0.536291880992
    C            0.220983000418     0.844425452389    -0.176718414556
    H            2.565613420369    -1.267961782681     0.958552991583
    C            1.468017297134     0.404525840862     0.239960936282
    C            0.053996643218     2.215064255612    -0.596345748291
    H            2.300898473189     1.077713842297     0.253504197857
    N           -0.073115902760     3.286948367323    -0.924261836462

  Mulliken Charges: (a.u.)
   Center  Symbol    Alpha    Beta     Spin     Total
       1     H     0.38478  0.38478  0.00000  0.23045
       2     O     4.17097  4.17097  0.00000 -0.34194
       3     C     2.84441  2.84441  0.00000  0.31117
       4     C     3.12854  3.12854  0.00000 -0.25709
       5     C     3.12200  3.12200  0.00000 -0.24400
       6     H     0.42725  0.42725  0.00000  0.14549
       7     C     3.05699  3.05699  0.00000 -0.11398
       8     H     0.40918  0.40918  0.00000  0.18164
       9     C     2.92136  2.92136  0.00000  0.15727
      10     H     0.41669  0.41669  0.00000  0.16663
      11     C     3.10497  3.10497  0.00000 -0.20994
      12     C     3.02416  3.02416  0.00000 -0.04832
      13     H     0.41444  0.41444  0.00000  0.17112
      14     N     3.57425  3.57425  0.00000 -0.14850

   Total alpha = 31.00000, Total beta = 31.00000, Total charge =  0.00000

*** Psi4 exiting successfully. Buy a developer a beer!
