  ==> Input File <==

--------------------------------------------------------------------------
set {
	reference rhf
	basis cc-pvtz
}

set_num_threads( 4 )
memory 2 gb

molecule MOL {
0 1

H	 -1.088256	 -1.364742	 0.152233
O	 -1.432053	 -0.565244	 -0.200812
C	 -0.727158	 0.534527	 0.310686
C	 0.680222	 0.664433	 -0.252229
H	 -1.306802	 1.408001	 0.044211
H	 -0.690821	 0.490158	 1.397609
C	 0.794639	 1.651875	 -1.409775
H	 1.348013	 0.960917	 0.549883
H	 1.000487	 -0.319486	 -0.583865
H	 0.539893	 2.659577	 -1.100315
H	 1.806592	 1.682510	 -1.795216
H	 0.138421	 1.375152	 -2.229385

	symmetry c1
}
set optking {
	frozen_dihedral = ("
		8 4 3 2
	")
}

ee = optimize('scf')
oeprop('DIPOLE', 'QUADRUPOLE', 'MULLIKEN_CHARGES')
f=open( 'psi4out.xyz', 'w' )
f.write( "12  " )
f.write( str(ee) + "\n" )
f.write( MOL.save_string_xyz() )
f.close()
--------------------------------------------------------------------------

    Molecular point group: c1
  Charge       = 0
  Multiplicity = 1
  Basis Set: CC-PVTZ
  Basis Set:
  @DF-RHF Final Energy:  -193.18617314661233
    Total Energy =                       -193.1861731466122478
    Molecular point group: c1
  Basis Set: CC-PVTZ
  Basis Set:
  Basis Set: CC-PVTZ
  Basis Set:
  @DF-RHF Final Energy:  -193.18656612474209
    Total Energy =                       -193.1865661247421713
  Basis Set: CC-PVTZ
  Basis Set:
  Basis Set: CC-PVTZ
  Basis Set:
  @DF-RHF Final Energy:  -193.18662449911744
    Total Energy =                       -193.1866244991174142
  Basis Set: CC-PVTZ
  Basis Set:
  Basis Set: CC-PVTZ
  Basis Set:
  @DF-RHF Final Energy:  -193.18662817144872
    Total Energy =                       -193.1866281714486888
  Basis Set: CC-PVTZ
  Basis Set:
  Charge       = 0
  Multiplicity = 1
  Basis Set: CC-PVTZ
  Basis Set:

    Orbital Energies (a.u.)
    -----------------------

    Doubly Occupied:

       1A    -20.545450     2A    -11.266035     3A    -11.217936
       4A    -11.209859     5A     -1.363597     6A     -1.049849
       7A     -0.920108     8A     -0.819799     9A     -0.684726
      10A     -0.629143    11A     -0.626256    12A     -0.572836
      13A     -0.533622    14A     -0.524104    15A     -0.485741
      16A     -0.467071    17A     -0.430334

  @DF-RHF Final Energy:  -193.18662839629334

   => Energetics <=

    Nuclear Repulsion Energy =            131.8838933823995774
    One-Electron Energy =                -523.4481123519376524
    Two-Electron Energy =                 198.3775905732445892
    DFT Exchange-Correlation Energy =       0.0000000000000000
    Empirical Dispersion Energy =           0.0000000000000000
    PCM Polarization Energy =               0.0000000000000000
    EFP Energy =                            0.0000000000000000
    Total Energy =                       -193.1866283962934574
    Molecular point group: c1
  Basis Set: CC-PVTZ
  Basis Set:

  -Total Gradient:
     Atom            X                  Y                   Z
    ------   -----------------  -----------------  -----------------
       1       -0.000001798576    -0.000012659982    -0.000002946862
       2        0.001290853963    -0.002198569026     0.002793169381
       3       -0.001550441913     0.001945710441    -0.003559192110
       4       -0.000533172948     0.004934208386    -0.000205285224
       5        0.000000250280    -0.000000170346    -0.000003987567
       6       -0.000012080916    -0.000019525957    -0.000001148995
       7        0.000011984831    -0.000003477411     0.000027974407
       8        0.000801185146    -0.004604772024     0.000955559535
       9        0.000008911788    -0.000022503704    -0.000007141901
      10        0.000000940105    -0.000013848238     0.000001317119
      11       -0.000018307584     0.000018856028     0.000007639233
      12        0.000001675824    -0.000023248169    -0.000005957016

  **** Optimization is complete! (in 5 steps) ****
    Final optimized geometry and variables:
    Molecular point group: c1

    Geometry (in Angstrom), charge = 0, multiplicity = 1:

    H           -0.820186264792    -1.886114961884     0.429451468030
    O           -1.237644640244    -1.083836473329     0.174972485130
    C           -0.530826415191     0.006360292608     0.706184765846
    C            0.889422529687     0.137154624310     0.144731487435
    H           -1.116647124127     0.885080186503     0.472293037313
    H           -0.495146748241    -0.075119403416     1.789303621912
    C            1.002317542891     1.091555371075    -1.037630416000
    H            1.572213196239     0.418833785006     0.940110301583
    H            1.212643456480    -0.852979705300    -0.165865639538
    H            0.743055574435     2.104134235658    -0.747480521353
    H            2.010087559218     1.109207583756    -1.435958249307
    H            0.332133156224     0.792459300693    -1.835620783743

  Mulliken Charges: (a.u.)
   Center  Symbol    Alpha    Beta     Spin     Total
       1     H     0.39451  0.39451  0.00000  0.21097
       2     O     4.20436  4.20436  0.00000 -0.40872
       3     C     2.96896  2.96896  0.00000  0.06208
       4     C     3.08419  3.08419  0.00000 -0.16838
       5     H     0.45988  0.45988  0.00000  0.08024
       6     H     0.46703  0.46703  0.00000  0.06594
       7     C     3.15020  3.15020  0.00000 -0.30041
       8     H     0.45442  0.45442  0.00000  0.09117
       9     H     0.46180  0.46180  0.00000  0.07640
      10     H     0.45577  0.45577  0.00000  0.08847
      11     H     0.45016  0.45016  0.00000  0.09968
      12     H     0.44872  0.44872  0.00000  0.10257

   Total alpha = 17.00000, Total beta = 17.00000, Total charge =  0.00000
