  ==> Input File <==

--------------------------------------------------------------------------
set {
	reference rhf
	basis 6-31G*
}

set_num_threads( 1 )
memory 2 gb

molecule MOL {
0 1

H	 -3.161837	 0.500524	 -0.000234
C	 -2.367097	 -0.232926	 -0.000000
O	 -1.158440	 0.455814	 -0.000122
H	 -2.468853	 -0.861886	 -0.882833
H	 -2.468942	 -0.861421	 0.883154
C	 -0.029776	 -0.365156	 0.000148
C	 1.212217	 0.508981	 0.000007
H	 -0.036772	 -1.013236	 -0.877259
H	 -0.036869	 -1.012778	 0.877897
C	 1.202251	 1.538342	 -1.129240
H	 1.281993	 1.008061	 0.961626
H	 2.084393	 -0.132033	 -0.084306
H	 0.349132	 2.206334	 -1.049242
H	 2.099557	 2.147552	 -1.105774
H	 1.156511	 1.058129	 -2.102742

	symmetry c1
}
set optking {
	frozen_dihedral = ("
		6 3 2 4,
		8 6 3 2
	")
}

ee = energy('scf')
oeprop('DIPOLE', 'QUADRUPOLE', 'MULLIKEN_CHARGES')
f=open( 'psi4out.xyz', 'w' )
f.write( "15  " )
f.write( str(ee) + "\n" )
f.write( MOL.save_string_xyz() )
f.close()
--------------------------------------------------------------------------

    Molecular point group: c1

    Geometry (in Angstrom), charge = 0, multiplicity = 1:

       Center              X                  Y                   Z               Mass
    ------------   -----------------  -----------------  -----------------  -----------------
           H         -2.898190925920     0.125966949114     0.228690074675     1.007825032070
           C         -2.103450925920    -0.607483050886     0.228924074675    12.000000000000
           O         -0.894793925920     0.081256949114     0.228802074675    15.994914619560
           H         -2.205206925920    -1.236443050886    -0.653908925325     1.007825032070
           H         -2.205295925920    -1.235978050886     1.112078074675     1.007825032070
           C          0.233870074080    -0.739713050886     0.229072074675    12.000000000000
           C          1.475863074080     0.134423949114     0.228931074675    12.000000000000
           H          0.226874074080    -1.387793050886    -0.648334925325     1.007825032070
           H          0.226777074080    -1.387335050886     1.106821074675     1.007825032070
           C          1.465897074080     1.163784949114    -0.900315925325    12.000000000000
           H          1.545639074080     0.633503949114     1.190550074675     1.007825032070
           H          2.348039074080    -0.506590050886     0.144618074675     1.007825032070
           H          0.612778074080     1.831776949114    -0.820317925325     1.007825032070
           H          2.363203074080     1.772994949114    -0.876849925325     1.007825032070
           H          1.420157074080     0.683571949114    -1.873817925325     1.007825032070

  Charge       = 0
  Multiplicity = 1
  Basis Set: 6-31G*
  Basis Set:

    Orbital Energies (a.u.)
    -----------------------

    Doubly Occupied:

       1A    -20.554567     2A    -11.266513     3A    -11.264838
       4A    -11.214568     5A    -11.201791     6A     -1.379802
       7A     -1.053497     8A     -0.948863     9A     -0.887570
      10A     -0.797572    11A     -0.670715    12A     -0.661807
      13A     -0.633887    14A     -0.594446    15A     -0.558943
      16A     -0.544782    17A     -0.502297    18A     -0.483925
      19A     -0.475642    20A     -0.458768    21A     -0.413598

  @DF-RHF Final Energy:  -232.13903886831721

   => Energetics <=

    Nuclear Repulsion Energy =            193.5913195170817573
    One-Electron Energy =                -698.3241822009947555
    Two-Electron Energy =                 272.5938238155957833
    DFT Exchange-Correlation Energy =       0.0000000000000000
    Empirical Dispersion Energy =           0.0000000000000000
    PCM Polarization Energy =               0.0000000000000000
    EFP Energy =                            0.0000000000000000
    Total Energy =                       -232.1390388683172432

  Mulliken Charges: (a.u.)
   Center  Symbol    Alpha    Beta     Spin     Total
       1     H     0.41226  0.41226  0.00000  0.17549
       2     C     3.07887  3.07887  0.00000 -0.15774
       3     O     4.30330  4.30330  0.00000 -0.60659
       4     H     0.43000  0.43000  0.00000  0.14000
       5     H     0.43028  0.43028  0.00000  0.13943
       6     C     2.98886  2.98886  0.00000  0.02228
       7     C     3.16115  3.16115  0.00000 -0.32231
       8     H     0.43302  0.43302  0.00000  0.13397
       9     H     0.43019  0.43019  0.00000  0.13961
      10     C     3.24065  3.24065  0.00000 -0.48130
      11     H     0.41631  0.41631  0.00000  0.16738
      12     H     0.42243  0.42243  0.00000  0.15515
      13     H     0.40591  0.40591  0.00000  0.18818
      14     H     0.42206  0.42206  0.00000  0.15588
      15     H     0.42471  0.42471  0.00000  0.15058

   Total alpha = 21.00000, Total beta = 21.00000, Total charge = -0.00000
