  ==> Input File <==

--------------------------------------------------------------------------
set {
	reference rhf
	basis 6-31G*
}

set_num_threads( 4 )
memory 2 gb

molecule MOL {
0 1

H	 -0.216825	 0.021369	 -3.357402
C	 0.374198	 0.036393	 -2.447010
C	 -0.521757	 -0.028637	 -1.217342
H	 0.969602	 0.942322	 -2.434777
H	 1.053364	 -0.811668	 -2.481329
N	 0.263400	 0.031178	 0.000000
H	 -1.199035	 0.820290	 -1.219355
H	 -1.147901	 -0.924895	 -1.265384
C	 -0.521757	 -0.028637	 1.217342
H	 0.935769	 -0.712709	 0.000000
C	 0.023168	 0.933238	 2.264672
H	 -1.542310	 0.248129	 0.969837
H	 -0.567103	 -1.039421	 1.634358
H	 0.032908	 1.946789	 1.879987
H	 -0.583192	 0.909062	 3.164721
H	 1.039932	 0.670600	 2.545498

	symmetry c1
}
set optking {
	frozen_dihedral = ("
		12 9 6 3
	")
}

ee = optimize('scf')
oeprop('DIPOLE', 'QUADRUPOLE', 'MULLIKEN_CHARGES')
f=open( 'psi4out.xyz', 'w' )
f.write( "16  " )
f.write( str(ee) + "\n" )
f.write( MOL.save_string_xyz() )
f.close()
--------------------------------------------------------------------------

    Molecular point group: c1
  Charge       = 0
  Multiplicity = 1
  Basis Set: 6-31G*
  Basis Set:
  @DF-RHF Final Energy:  -212.30988205726260
    Total Energy =                       -212.3098820572625982
    Molecular point group: c1
  Basis Set: 6-31G*
  Basis Set:
  Basis Set: 6-31G*
  Basis Set:
  @DF-RHF Final Energy:  -212.31027176183514
    Total Energy =                       -212.3102717618351676
  Basis Set: 6-31G*
  Basis Set:
  Basis Set: 6-31G*
  Basis Set:
  @DF-RHF Final Energy:  -212.31037858243235
    Total Energy =                       -212.3103785824321790
  Basis Set: 6-31G*
  Basis Set:
  Basis Set: 6-31G*
  Basis Set:
  @DF-RHF Final Energy:  -212.31038282650090
    Total Energy =                       -212.3103828265009270
  Basis Set: 6-31G*
  Basis Set:
  Charge       = 0
  Multiplicity = 1
  Basis Set: 6-31G*
  Basis Set:

    Orbital Energies (a.u.)
    -----------------------

    Doubly Occupied:

       1A    -15.531460     2A    -11.241449     3A    -11.240622
       4A    -11.208157     5A    -11.202094     6A     -1.201209
       7A     -1.026047     8A     -0.962230     9A     -0.834259
      10A     -0.816833    11A     -0.663287    12A     -0.625763
      13A     -0.604744    14A     -0.568306    15A     -0.559341
      16A     -0.523037    17A     -0.506209    18A     -0.488695
      19A     -0.483122    20A     -0.472353    21A     -0.353156

  @DF-RHF Final Energy:  -212.31038331407055

   => Energetics <=

    Nuclear Repulsion Energy =            189.0439546590994553
    One-Electron Energy =                -660.4839299742563981
    Two-Electron Energy =                 259.1295920010863938
    DFT Exchange-Correlation Energy =       0.0000000000000000
    Empirical Dispersion Energy =           0.0000000000000000
    PCM Polarization Energy =               0.0000000000000000
    EFP Energy =                            0.0000000000000000
    Total Energy =                       -212.3103833140705774
    Molecular point group: c1
  Basis Set: 6-31G*
  Basis Set:

  -Total Gradient:
     Atom            X                  Y                   Z
    ------   -----------------  -----------------  -----------------
       1        0.000010476478    -0.000001967238    -0.000016206328
       2       -0.000015435622    -0.000010433564    -0.000014392381
       3       -0.000181651892     0.002522159777    -0.000004437627
       4       -0.000015291005    -0.000000591802     0.000009596015
       5       -0.000004632931    -0.000002886655     0.000004671307
       6        0.000124230762    -0.004300324417    -0.000096578931
       7       -0.000006653281    -0.000002191237    -0.000008577483
       8        0.000015781794     0.000008208713    -0.000004972972
       9        0.000795591640     0.004888675024     0.000673174363
      10        0.000011767456    -0.000013823737     0.000003586820
      11       -0.000032764839    -0.000019628820    -0.000018200018
      12       -0.000705895659    -0.003045997538    -0.000539117393
      13        0.000002211715    -0.000022497482     0.000011063134
      14        0.000003255229    -0.000007713957     0.000004073909
      15        0.000011331747     0.000019310011     0.000006779108
      16       -0.000012321592    -0.000010297079    -0.000010461520

  **** Optimization is complete! (in 5 steps) ****
    Final optimized geometry and variables:
    Molecular point group: c1

    Geometry (in Angstrom), charge = 0, multiplicity = 1:

    H           -0.110030461735    -0.175847199930    -3.331747616170
    C            0.463491940228    -0.154013312099    -2.410338505042
    C           -0.454990943853    -0.227335751718    -1.197953559622
    H            1.049070149090     0.758136285702    -2.387056923098
    H            1.151822694099    -0.995151919586    -2.431253923202
    N            0.309966022609    -0.150988345531     0.030649890824
    H           -1.141019248344     0.613654174198    -1.215640987479
    H           -1.068543565621    -1.131455564229    -1.260854479776
    C           -0.460887849027    -0.191309768245     1.264810139741
    H            1.026916470994    -0.848503360868     0.040881489769
    C            0.115638145125     0.745342935323     2.318528350468
    H           -1.487599643607     0.080144622816     1.041108942956
    H           -0.514570781839    -1.203923803901     1.668869913949
    H            0.120630793865     1.766668993049     1.954511644794
    H           -0.463631451412     0.705116622762     3.237138101673
    H            1.139787725069     0.472926075294     2.555301453865

  Mulliken Charges: (a.u.)
   Center  Symbol    Alpha    Beta     Spin     Total
       1     H     0.42014  0.42014  0.00000  0.15972
       2     C     3.24342  3.24342  0.00000 -0.48684
       3     C     3.05063  3.05063  0.00000 -0.10127
       4     H     0.41210  0.41210  0.00000  0.17579
       5     H     0.42489  0.42489  0.00000  0.15022
       6     N     3.85490  3.85490  0.00000 -0.70979
       7     H     0.42015  0.42015  0.00000  0.15969
       8     H     0.43581  0.43581  0.00000  0.12839
       9     C     3.05861  3.05861  0.00000 -0.11723
      10     H     0.33309  0.33309  0.00000  0.33382
      11     C     3.22876  3.22876  0.00000 -0.45752
      12     H     0.42128  0.42128  0.00000  0.15743
      13     H     0.43041  0.43041  0.00000  0.13918
      14     H     0.41655  0.41655  0.00000  0.16691
      15     H     0.42641  0.42641  0.00000  0.14718
      16     H     0.42284  0.42284  0.00000  0.15432

   Total alpha = 21.00000, Total beta = 21.00000, Total charge = -0.00000
