  ==> Input File <==

--------------------------------------------------------------------------
set {
	reference rhf
	basis 6-31G*
}

set_num_threads( 4 )
memory 2 gb

molecule MOL {
0 1

H	 -2.646374	 -0.642757	 1.268656
C	 -2.083525	 -0.384536	 0.393091
O	 -0.807605	 -0.127164	 0.768327
F	 -2.118945	 -1.383102	 -0.486752
F	 -2.621877	 0.670592	 -0.209486
C	 0.084052	 0.273579	 -0.209957
C	 1.353033	 -0.546803	 -0.018071
Cl	 0.433844	 2.004619	 -0.074457
H	 -0.288836	 0.092657	 -1.202930
F	 1.608920	 -0.704525	 1.263251
F	 2.363987	 0.102265	 -0.560401
F	 1.268394	 -1.727806	 -0.580246

	symmetry c1
}
set optking {
	frozen_dihedral = ("
		10 7 6 9
	")
}

ee = optimize('scf')
oeprop('DIPOLE', 'QUADRUPOLE', 'MULLIKEN_CHARGES')
f=open( 'psi4out.xyz', 'w' )
f.write( "12  " )
f.write( str(ee) + "\n" )
f.write( MOL.save_string_xyz() )
f.close()
--------------------------------------------------------------------------

    Molecular point group: c1
  Charge       = 0
  Multiplicity = 1
  Basis Set: 6-31G*
  Basis Set:
  @DF-RHF Final Energy: -1146.30971806341813
    Total Energy =                      -1146.3097180634188135
    Molecular point group: c1
  Basis Set: 6-31G*
  Basis Set:
  Basis Set: 6-31G*
  Basis Set:
  @DF-RHF Final Energy: -1146.31126472371693
    Total Energy =                      -1146.3112647237157944
  Basis Set: 6-31G*
  Basis Set:
  Basis Set: 6-31G*
  Basis Set:
  @DF-RHF Final Energy: -1146.31207850125656
    Total Energy =                      -1146.3120785012565648
  Basis Set: 6-31G*
  Basis Set:
  Basis Set: 6-31G*
  Basis Set:
  @DF-RHF Final Energy: -1146.31214450923608
    Total Energy =                      -1146.3121445092353952
  Basis Set: 6-31G*
  Basis Set:
  @DF-RHF Final Energy: -1146.31215165549838
    Total Energy =                      -1146.3121516554977006
  @DF-RHF Final Energy: -1146.31215347766306
    Total Energy =                      -1146.3121534776630597
  @DF-RHF Final Energy: -1146.31119476568074
    Total Energy =                      -1146.3111947656798293
  @DF-RHF Final Energy: -1146.31128233269010
    Total Energy =                      -1146.3112823326900980
  Basis Set: 6-31G*
  Basis Set:
  @DF-RHF Final Energy: -1146.31169452461631
    Total Energy =                      -1146.3116945246169962
  Basis Set: 6-31G*
  Basis Set:
  Basis Set: 6-31G*
  Basis Set:
  @DF-RHF Final Energy: -1146.31210329649184
    Total Energy =                      -1146.3121032964902497
  Basis Set: 6-31G*
  Basis Set:
  Basis Set: 6-31G*
  Basis Set:
  @DF-RHF Final Energy: -1146.31214964626179
    Total Energy =                      -1146.3121496462617870
  Basis Set: 6-31G*
  Basis Set:
  Charge       = 0
  Multiplicity = 1
  Basis Set: 6-31G*
  Basis Set:

    Orbital Energies (a.u.)
    -----------------------

    Doubly Occupied:

       1A   -104.844664     2A    -26.361404     3A    -26.357120
       4A    -26.356526     5A    -26.345776     6A    -26.345414
       7A    -20.648340     8A    -11.528020     9A    -11.488596
      10A    -11.400800    11A    -10.579384    12A     -8.048752
      13A     -8.045181    14A     -8.045130    15A     -1.761035
      16A     -1.717007    17A     -1.659027    18A     -1.653837
      19A     -1.637746    20A     -1.484352    21A     -1.179770
      22A     -1.052054    23A     -0.985478    24A     -0.919094
      25A     -0.858980    26A     -0.851622    27A     -0.845102
      28A     -0.823136    29A     -0.810161    30A     -0.789932
      31A     -0.726194    32A     -0.724116    33A     -0.705372
      34A     -0.701619    35A     -0.677673    36A     -0.674748
      37A     -0.657404    38A     -0.657355    39A     -0.646056
      40A     -0.632722    41A     -0.596831    42A     -0.580417
      43A     -0.524077    44A     -0.476673    45A     -0.469628

  @DF-RHF Final Energy: -1146.31215538602964

   => Energetics <=

    Nuclear Repulsion Energy =            737.5835310437723820
    One-Electron Energy =               -3058.0427292291942649
    Two-Electron Energy =                1174.1470427993929206
    DFT Exchange-Correlation Energy =       0.0000000000000000
    Empirical Dispersion Energy =           0.0000000000000000
    PCM Polarization Energy =               0.0000000000000000
    EFP Energy =                            0.0000000000000000
    Total Energy =                      -1146.3121553860289623
    Molecular point group: c1
  Basis Set: 6-31G*
  Basis Set:

  -Total Gradient:
     Atom            X                  Y                   Z
    ------   -----------------  -----------------  -----------------
       1        0.000002573346    -0.000018818024    -0.000001858051
       2       -0.000039768997     0.000019525007    -0.000135780390
       3       -0.000007106970    -0.000065122167     0.000085247119
       4       -0.000006076958     0.000007456954     0.000082325421
       5       -0.000063544631     0.000023848957     0.000014188155
       6        0.003317923345     0.004330464964    -0.002607021235
       7        0.002771562877     0.004365231961     0.000240913833
       8       -0.000077290700    -0.000100390318    -0.000069012781
       9       -0.003289180269    -0.004539420280     0.002225182056
      10       -0.002715413662    -0.004186896733     0.000273717646
      11        0.000154465108     0.000096706748    -0.000038727461
      12       -0.000048142470     0.000067412839    -0.000069174306

  **** Optimization is complete! (in 12 steps) ****
    Final optimized geometry and variables:
    Molecular point group: c1

    Geometry (in Angstrom), charge = 0, multiplicity = 1:

    H           -2.637923832637    -0.698234115853     1.235371013952
    C           -2.076101047001    -0.407780463231     0.369278491719
    O           -0.800341390118    -0.163767303903     0.752900880687
    F           -2.111344073200    -1.375644882229    -0.545000295828
    F           -2.617950767397     0.666288948671    -0.195374394323
    C            0.092688957022     0.278364497953    -0.211469456220
    C            1.373501335371    -0.531937173211    -0.010782267780
    CL           0.382924279352     2.014232828482    -0.052323869555
    H           -0.285836112083     0.069575076055    -1.196574361116
    F            1.668852425286    -0.674712561583     1.258217103702
    F            2.396063802826     0.003239461602    -0.635406533668
    F            1.173712838614    -1.737651521153    -0.514925933190

  Mulliken Charges: (a.u.)
   Center  Symbol    Alpha    Beta     Spin     Total
       1     H     0.40140  0.40140  0.00000  0.19720
       2     C     2.56617  2.56617  0.00000  0.86767
       3     O     4.29831  4.29831  0.00000 -0.59663
       4     F     4.68650  4.68650  0.00000 -0.37301
       5     F     4.68403  4.68403  0.00000 -0.36807
       6     C     3.05220  3.05220  0.00000 -0.10440
       7     C     2.43116  2.43116  0.00000  1.13767
       8    CL     8.49690  8.49690  0.00000  0.00620
       9     H     0.36645  0.36645  0.00000  0.26709
      10     F     4.66815  4.66815  0.00000 -0.33629
      11     F     4.67050  4.67050  0.00000 -0.34099
      12     F     4.67823  4.67823  0.00000 -0.35645

   Total alpha = 45.00000, Total beta = 45.00000, Total charge = -0.00000
