                              Psi4 1.0.54 Driver

  ==> Input File <==

--------------------------------------------------------------------------
set {
	reference rhf
	basis cc-pvtz
}

set_num_threads( 4 )
memory 2 gb

molecule MOL {
0 1

H	 -0.606563	 3.248686	 -1.514128
C	 0.074524	 3.129013	 -0.660498
C	 -0.531547	 2.463555	 0.545211
O	 1.187434	 3.520894	 -0.732385
C	 -1.216901	 1.136108	 0.207794
H	 0.240780	 2.335295	 1.292469
H	 -1.270122	 3.155938	 0.943228
C	 -0.247837	 0.040196	 -0.230469
H	 -1.767051	 0.802641	 1.080992
H	 -1.957845	 1.301335	 -0.570598
C	 1.181757	 0.280428	 0.247371
H	 -0.259600	 -0.030819	 -1.314870
H	 -0.591284	 -0.923375	 0.136958
C	 2.151032	 -0.811012	 -0.202643
H	 1.515939	 1.247397	 -0.115449
H	 1.191514	 0.341223	 1.333422
C	 3.580021	 -0.656538	 0.320835
H	 2.170545	 -0.847575	 -1.289412
H	 1.766632	 -1.772905	 0.124928
C	 4.327657	 0.562694	 -0.213579
H	 4.138806	 -1.549270	 0.057813
H	 3.561991	 -0.620783	 1.406976
H	 4.355973	 0.557257	 -1.298551
H	 3.867136	 1.491650	 0.100501
H	 5.351524	 0.571613	 0.142204

	symmetry c1
}
set optking {
	frozen_dihedral = ("
		3 5 8 12
	")
}

ee,wfn = optimize('scf', return_wfn=True)
oeprop( wfn, 'DIPOLE', 'QUADRUPOLE', 'MULLIKEN_CHARGES')
f=open( 'psi4out.xyz', 'w' )
f.write( "25  " )
f.write( str(ee) + "\n" )
f.write( MOL.save_string_xyz() )
f.close()
--------------------------------------------------------------------------

    Molecular point group: c1
  Charge       = 0
  Multiplicity = 1
  Basis Set: CC-PVTZ
  Basis Set:
  @DF-RHF Final Energy:  -387.24851814960186
    Total Energy =                       -387.2485181496020914
    Molecular point group: c1
  Basis Set: CC-PVTZ
  Basis Set:
  Basis Set: CC-PVTZ
  Basis Set:
  @DF-RHF Final Energy:  -387.24882016072775
    Total Energy =                       -387.2488201607275187
  Basis Set: CC-PVTZ
  Basis Set:
  Basis Set: CC-PVTZ
  Basis Set:
  @DF-RHF Final Energy:  -387.25229213416475
    Total Energy =                       -387.2522921341644633
  Basis Set: CC-PVTZ
  Basis Set:
  Basis Set: CC-PVTZ
  Basis Set:
  @DF-RHF Final Energy:  -387.25287646419963
    Total Energy =                       -387.2528764641997441
  Basis Set: CC-PVTZ
  Basis Set:
  @DF-RHF Final Energy:  -387.25297465066240
    Total Energy =                       -387.2529746506621677
  @DF-RHF Final Energy:  -387.25314170768382
    Total Energy =                       -387.2531417076838807
  @DF-RHF Final Energy:  -387.25325303484595
    Total Energy =                       -387.2532530348457840
  @DF-RHF Final Energy:  -387.25328344110824
    Total Energy =                       -387.2532834411081240
  @DF-RHF Final Energy:  -387.25330646660620
    Total Energy =                       -387.2533064666064320
  @DF-RHF Final Energy:  -387.25332303118597
    Total Energy =                       -387.2533230311863690
  @DF-RHF Final Energy:  -387.25327108864428
    Total Energy =                       -387.2532710886445102
  @DF-RHF Final Energy:  -387.25323962016910
    Total Energy =                       -387.2532396201689835
  @DF-RHF Final Energy:  -387.25337582146710
    Total Energy =                       -387.2533758214671025
  @DF-RHF Final Energy:  -387.25339562846460
    Total Energy =                       -387.2533956284644319
  @DF-RHF Final Energy:  -387.25341079869730
    Total Energy =                       -387.2534107986972458
  Basis Set: CC-PVTZ
  Basis Set:
  @DF-RHF Final Energy:  -387.25342421279066
    Total Energy =                       -387.2534242127904918
  Basis Set: CC-PVTZ
  Basis Set:
  Basis Set: CC-PVTZ
  Basis Set:
  @DF-RHF Final Energy:  -387.25342931482089
    Total Energy =                       -387.2534293148210054
  Basis Set: CC-PVTZ
  Basis Set:
  Basis Set: CC-PVTZ
  Basis Set:
  @DF-RHF Final Energy:  -387.25343062417579
    Total Energy =                       -387.2534306241760760
  Basis Set: CC-PVTZ
  Basis Set:
  Charge       = 0
  Multiplicity = 1
  Basis Set: CC-PVTZ
  Basis Set:

    Orbital Energies (a.u.)
    -----------------------

    Doubly Occupied:

       1A    -20.552252     2A    -11.321514     3A    -11.234047
       4A    -11.233442     5A    -11.220979     6A    -11.212964
       7A    -11.211972     8A    -11.211381     9A    -11.201778
      10A     -1.407009    11A     -1.101500    12A     -1.066293
      13A     -1.009045    14A     -0.943497    15A     -0.879405
      16A     -0.818530    17A     -0.787027    18A     -0.771105
      19A     -0.669368    20A     -0.659927    21A     -0.635064
      22A     -0.621214    23A     -0.604012    24A     -0.597486
      25A     -0.566155    26A     -0.548946    27A     -0.539065
      28A     -0.524737    29A     -0.512404    30A     -0.500042
      31A     -0.475958    32A     -0.473846    33A     -0.460259
      34A     -0.452409    35A     -0.443159    36A     -0.410937

  @DF-RHF Final Energy:  -387.25343135052049

   => Energetics <=

    Nuclear Repulsion Energy =            456.1106874328847880
    One-Electron Energy =               -1428.9707766858305149
    Two-Electron Energy =                 585.6066579024254679
    DFT Exchange-Correlation Energy =       0.0000000000000000
    Empirical Dispersion Energy =           0.0000000000000000
    PCM Polarization Energy =               0.0000000000000000
    EFP Energy =                            0.0000000000000000
    Total Energy =                       -387.2534313505202590
    Molecular point group: c1
  Basis Set: CC-PVTZ
  Basis Set:

  -Total Gradient:
     Atom            X                  Y                   Z
    ------   -----------------  -----------------  -----------------
       1        0.000021987383    -0.000013275882    -0.000004305636
       2        0.000031687794     0.000006042982     0.000031126185
       3        0.000557463821    -0.001652459630     0.004649416935
       4       -0.000015477568     0.000029800812    -0.000013421887
       5       -0.001836775174     0.000996648721    -0.006843872115
       6       -0.000027818318     0.000018635808     0.000016523803
       7       -0.000022582612     0.000022105892    -0.000022358395
       8        0.005401491251     0.006192944639     0.002249624501
       9        0.000050906149    -0.000083754127    -0.000026193856
      10       -0.000076492597     0.000082479003     0.000055309537
      11        0.000008507298    -0.000163689408     0.000009005910
      12       -0.004043544176    -0.005467986476    -0.000067703350
      13       -0.000015319381     0.000012392154     0.000003040615
      14       -0.000005300440     0.000001680001    -0.000017966468
      15       -0.000020002670    -0.000011330677    -0.000005941395
      16       -0.000006687332    -0.000004164054    -0.000012470464
      17        0.000000389688     0.000023728991    -0.000002038743
      18       -0.000003796518     0.000003564726    -0.000006891568
      19       -0.000013772213     0.000012062073    -0.000008174543
      20        0.000014314657    -0.000020249274     0.000003080606
      21        0.000001224989     0.000007888978     0.000008593930
      22        0.000003838177     0.000011970865    -0.000000006854
      23       -0.000005840742    -0.000000687177     0.000003237738
      24       -0.000003207283    -0.000005542925     0.000006880704
      25        0.000004805815     0.000001193980    -0.000004495192

  **** Optimization is complete! (in 19 steps) ****
    Final optimized geometry and variables:
    Molecular point group: c1

    Geometry (in Angstrom), charge = 0, multiplicity = 1:

    H           -2.242293128495     2.080784499738    -1.416909949812
    C           -1.562103237633     2.055923891016    -0.554666283888
    C           -2.014014510680     1.178055741982     0.580678365527
    O           -0.568890557786     2.697843034234    -0.567865206180
    C           -2.345329559002    -0.254457901726     0.140367097242
    H           -1.271578399428     1.205743901538     1.364191890487
    H           -2.924054754880     1.630061774137     0.969368969652
    C           -1.162655019481    -1.146939708920    -0.295991790152
    H           -2.837963115607    -0.726342370194     0.983009455228
    H           -3.085265742912    -0.224047154463    -0.652814258855
    C            0.204710252967    -0.838894262068     0.308451674795
    H           -1.104822565471    -1.175355382703    -1.380524654006
    H           -1.425607627512    -2.166394887327    -0.027175108181
    C            1.264888774075    -1.849808046404    -0.125757917104
    H            0.517576248740     0.159818507749     0.033468284948
    H            0.130021895017    -0.851486126014     1.393693715892
    C            2.645168885435    -1.633229420625     0.497339173157
    H            1.355809833125    -1.830558511734    -1.209419449712
    H            0.922222787070    -2.848316869106     0.131841198075
    C            3.351697228728    -0.354696337055     0.053147554063
    H            3.271852132771    -2.482958210078     0.244257145804
    H            2.553768271126    -1.637776456967     1.580468985598
    H            3.457648641373    -0.324468012828    -1.026500347419
    H            2.813466520241     0.534947415493     0.355851263212
    H            4.345196464438    -0.296809834919     0.483046500383

  Mulliken Charges: (a.u.)
   Center  Symbol    Alpha    Beta     Spin     Total
       1     H     0.46088  0.46088  0.00000  0.07824
       2     C     2.90553  2.90553  0.00000  0.18893
       3     C     3.09964  3.09964  0.00000 -0.19929
       4     O     4.16802  4.16802  0.00000 -0.33604
       5     C     3.11787  3.11787  0.00000 -0.23575
       6     H     0.43960  0.43960  0.00000  0.12081
       7     H     0.43458  0.43458  0.00000  0.13084
       8     C     3.10191  3.10191  0.00000 -0.20382
       9     H     0.44265  0.44265  0.00000  0.11471
      10     H     0.44344  0.44344  0.00000  0.11311
      11     C     3.09933  3.09933  0.00000 -0.19866
      12     H     0.44743  0.44743  0.00000  0.10514
      13     H     0.44822  0.44822  0.00000  0.10355
      14     C     3.09657  3.09657  0.00000 -0.19314
      15     H     0.43698  0.43698  0.00000  0.12604
      16     H     0.45448  0.45448  0.00000  0.09104
      17     C     3.08974  3.08974  0.00000 -0.17947
      18     H     0.45383  0.45383  0.00000  0.09234
      19     H     0.44971  0.44971  0.00000  0.10059
      20     C     3.15381  3.15381  0.00000 -0.30762
      21     H     0.44898  0.44898  0.00000  0.10204
      22     H     0.45569  0.45569  0.00000  0.08863
      23     H     0.45485  0.45485  0.00000  0.09030
      24     H     0.44923  0.44923  0.00000  0.10155
      25     H     0.44704  0.44704  0.00000  0.10592

   Total alpha = 36.00000, Total beta = 36.00000, Total charge = -0.00000

*** Psi4 exiting successfully. Buy a developer a beer!
