  ==> Input File <==

--------------------------------------------------------------------------
set {
	reference rhf
	basis 6-31G*
}

set_num_threads( 4 )
memory 2 gb

molecule MOL {
0 1

H	 -2.098997	 -0.674324	 -0.616650
O	 -2.035884	 -0.060112	 0.102722
C	 -0.955155	 0.788182	 -0.092531
C	 0.353668	 0.040312	 -0.004810
H	 -0.985057	 1.290372	 -1.054184
H	 -0.974469	 1.533190	 0.688632
F	 1.234899	 0.723397	 0.717270
F	 0.177799	 -1.133157	 0.581055
F	 0.892649	 -0.173964	 -1.187661

	symmetry c1
}
set optking {
	frozen_dihedral = ("
		7 4 3 5
	")
}

ee = optimize('scf')
oeprop('DIPOLE', 'QUADRUPOLE', 'MULLIKEN_CHARGES')
f=open( 'psi4out.xyz', 'w' )
f.write( "9  " )
f.write( str(ee) + "\n" )
f.write( MOL.save_string_xyz() )
f.close()
--------------------------------------------------------------------------

    Molecular point group: c1
  Charge       = 0
  Multiplicity = 1
  Basis Set: 6-31G*
  Basis Set:
  @DF-RHF Final Energy:  -450.65519249377797
    Total Energy =                       -450.6551924937779745
    Molecular point group: c1
  Basis Set: 6-31G*
  Basis Set:
  Basis Set: 6-31G*
  Basis Set:
  @DF-RHF Final Energy:  -450.65568476789548
    Total Energy =                       -450.6556847678954796
  Basis Set: 6-31G*
  Basis Set:
  Basis Set: 6-31G*
  Basis Set:
  @DF-RHF Final Energy:  -450.65614082825692
    Total Energy =                       -450.6561408282568664
  Basis Set: 6-31G*
  Basis Set:
  Basis Set: 6-31G*
  Basis Set:
  @DF-RHF Final Energy:  -450.65615897950983
    Total Energy =                       -450.6561589795101099
  Basis Set: 6-31G*
  Basis Set:
  Charge       = 0
  Multiplicity = 1
  Basis Set: 6-31G*
  Basis Set:

    Orbital Energies (a.u.)
    -----------------------

    Doubly Occupied:

       1A    -26.340637     2A    -26.339841     3A    -26.338799
       4A    -20.589289     5A    -11.500268     6A    -11.309967
       7A     -1.738975     8A     -1.635992     9A     -1.635337
      10A     -1.400751    11A     -1.042814    12A     -0.923062
      13A     -0.828725    14A     -0.825703    15A     -0.804355
      16A     -0.726660    17A     -0.711418    18A     -0.697106
      19A     -0.662222    20A     -0.657122    21A     -0.640064
      22A     -0.626848    23A     -0.609116    24A     -0.527758
      25A     -0.479716

  @DF-RHF Final Energy:  -450.65616099768340

   => Energetics <=

    Nuclear Repulsion Energy =            275.9772269105113764
    One-Electron Energy =               -1174.0816799258032006
    Two-Electron Energy =                 447.4482920176084235
    DFT Exchange-Correlation Energy =       0.0000000000000000
    Empirical Dispersion Energy =           0.0000000000000000
    PCM Polarization Energy =               0.0000000000000000
    EFP Energy =                            0.0000000000000000
    Total Energy =                       -450.6561609976834006
    Molecular point group: c1
  Basis Set: 6-31G*
  Basis Set:

  -Total Gradient:
     Atom            X                  Y                   Z
    ------   -----------------  -----------------  -----------------
       1       -0.000009600756    -0.000016315228     0.000002443480
       2        0.000080650675     0.000036202629    -0.000035420696
       3        0.001605835396     0.003343871609     0.002695778431
       4        0.001032800486     0.001175768244    -0.003979379221
       5       -0.001665536739    -0.003122940150    -0.001516402840
       6        0.000010444019    -0.000032041137    -0.000000584133
       7       -0.000963030223    -0.001418815331     0.002660787076
       8       -0.000045983509    -0.000003763180     0.000004853667
       9       -0.000045579347     0.000038032544     0.000167924232

  **** Optimization is complete! (in 5 steps) ****
    Final optimized geometry and variables:
    Molecular point group: c1

    Geometry (in Angstrom), charge = 0, multiplicity = 1:

    H           -2.148486249536    -0.657644350989    -0.641017146950
    O           -2.072099088690    -0.041070649391     0.074588298097
    C           -0.970838328130     0.784881963809    -0.107307399269
    C            0.358348790324     0.033687138522    -0.006783528733
    H           -0.998533580426     1.271095216812    -1.076212577861
    H           -0.999416125972     1.528897209758     0.672634172604
    F            1.238208026951     0.722743822191     0.702185315232
    F            0.222846498761    -1.144921806796     0.567150448482
    F            0.890290683888    -0.173925781698    -1.204655210946

  Mulliken Charges: (a.u.)
   Center  Symbol    Alpha    Beta     Spin     Total
       1     H     0.27450  0.27450  0.00000  0.45100
       2     O     4.35867  4.35867  0.00000 -0.71735
       3     C     3.06659  3.06659  0.00000 -0.13319
       4     C     2.45982  2.45982  0.00000  1.08037
       5     H     0.40604  0.40604  0.00000  0.18792
       6     H     0.39181  0.39181  0.00000  0.21637
       7     F     4.68271  4.68271  0.00000 -0.36541
       8     F     4.67540  4.67540  0.00000 -0.35081
       9     F     4.68445  4.68445  0.00000 -0.36890

   Total alpha = 25.00000, Total beta = 25.00000, Total charge =  0.00000
