  ==> Input File <==

--------------------------------------------------------------------------
set {
	reference rhf
	basis 6-31G*
}

set_num_threads( 1 )
memory 2 gb

molecule MOL {
0 1

H	 1.918377	 -1.396093	 0.784206
O	 2.016064	 -0.864478	 0.000222
C	 1.050492	 0.053836	 0.000068
C	 -0.318135	 -0.576402	 0.000164
O	 1.285279	 1.218255	 -0.000078
C	 -1.454360	 0.441875	 -0.000474
H	 -0.374042	 -1.230163	 -0.866135
H	 -0.374274	 -1.229227	 0.867154
C	 -2.826123	 -0.230780	 0.000056
H	 -1.357605	 1.085198	 -0.868380
H	 -1.357504	 1.086451	 0.866496
H	 -2.959731	 -0.858053	 -0.876869
H	 -3.619374	 0.509403	 -0.000080
H	 -2.959371	 -0.857318	 0.877556

	symmetry c1
}
set optking {
	frozen_dihedral = ("
		7 4 6 10,
		2 3 4 7
	")
}

ee = energy('scf')
oeprop('DIPOLE', 'QUADRUPOLE', 'MULLIKEN_CHARGES')
f=open( 'psi4out.xyz', 'w' )
f.write( "14  " )
f.write( str(ee) + "\n" )
f.write( MOL.save_string_xyz() )
f.close()
--------------------------------------------------------------------------

    Molecular point group: c1

    Geometry (in Angstrom), charge = 0, multiplicity = 1:

       Center              X                  Y                   Z               Mass
    ------------   -----------------  -----------------  -----------------  -----------------
           H          1.929087272519    -1.384833414210     0.775232327264     1.007825032070
           O          2.026774272519    -0.853218414210    -0.008751672736    15.994914619560
           C          1.061202272519     0.065095585790    -0.008905672736    12.000000000000
           C         -0.307424727481    -0.565142414210    -0.008809672736    12.000000000000
           O          1.295989272519     1.229514585790    -0.009051672736    15.994914619560
           C         -1.443649727481     0.453134585790    -0.009447672736    12.000000000000
           H         -0.363331727481    -1.218903414210    -0.875108672736     1.007825032070
           H         -0.363563727481    -1.217967414210     0.858180327264     1.007825032070
           C         -2.815412727481    -0.219520414210    -0.008917672736    12.000000000000
           H         -1.346894727481     1.096457585790    -0.877353672736     1.007825032070
           H         -1.346793727481     1.097710585790     0.857522327264     1.007825032070
           H         -2.949020727481    -0.846793414210    -0.885842672736     1.007825032070
           H         -3.608663727481     0.520662585790    -0.009053672736     1.007825032070
           H         -2.948660727481    -0.846058414210     0.868582327264     1.007825032070

  Charge       = 0
  Multiplicity = 1
  Basis Set: 6-31G*
  Basis Set:

    Orbital Energies (a.u.)
    -----------------------

    Doubly Occupied:

       1A    -20.603681     2A    -20.558334     3A    -11.380791
       4A    -11.247069     5A    -11.228924     6A    -11.220330
       7A     -1.469510     8A     -1.371086     9A     -1.086268
      10A     -0.978351    11A     -0.851703    12A     -0.809813
      13A     -0.717978    14A     -0.676655    15A     -0.662954
      16A     -0.633907    17A     -0.581722    18A     -0.567877
      19A     -0.548314    20A     -0.505473    21A     -0.496209
      22A     -0.486894    23A     -0.480152    24A     -0.443671

  @DF-RHF Final Energy:  -305.85947455354244

   => Energetics <=

    Nuclear Repulsion Energy =            240.2070134137509569
    One-Electron Energy =                -892.9174599520197262
    Two-Electron Energy =                 346.8509719847261294
    DFT Exchange-Correlation Energy =       0.0000000000000000
    Empirical Dispersion Energy =           0.0000000000000000
    PCM Polarization Energy =               0.0000000000000000
    EFP Energy =                            0.0000000000000000
    Total Energy =                       -305.8594745535426682

  Mulliken Charges: (a.u.)
   Center  Symbol    Alpha    Beta     Spin     Total
       1     H     0.26803  0.26803  0.00000  0.46394
       2     O     4.35321  4.35321  0.00000 -0.70642
       3     C     2.62606  2.62606  0.00000  0.74787
       4     C     3.21721  3.21721  0.00000 -0.43441
       5     O     4.25510  4.25510  0.00000 -0.51019
       6     C     3.15252  3.15252  0.00000 -0.30505
       7     H     0.39623  0.39623  0.00000  0.20754
       8     H     0.41425  0.41425  0.00000  0.17150
       9     C     3.24307  3.24307  0.00000 -0.48614
      10     H     0.40758  0.40758  0.00000  0.18484
      11     H     0.41041  0.41041  0.00000  0.17919
      12     H     0.42051  0.42051  0.00000  0.15898
      13     H     0.41364  0.41364  0.00000  0.17271
      14     H     0.42218  0.42218  0.00000  0.15564

   Total alpha = 24.00000, Total beta = 24.00000, Total charge = -0.00000
