                              Psi4 1.0.54 Driver

  ==> Input File <==

--------------------------------------------------------------------------
set {
	reference rhf
	basis cc-pvtz
}

set_num_threads( 4 )
memory 2 gb

molecule MOL {
0 1

H	 2.384762	 1.630998	 -1.246465
N	 1.575928	 1.048090	 -1.286405
C	 1.263552	 0.494993	 0.021953
H	 1.768711	 0.321388	 -1.943730
C	 -0.016533	 -0.325589	 -0.026925
H	 1.130762	 1.324019	 0.709032
H	 2.068743	 -0.120213	 0.425899
C	 -1.280353	 0.525521	 0.047747
H	 -0.016686	 -0.912532	 -0.939714
H	 -0.014099	 -1.037598	 0.796369
C	 -2.560681	 -0.301323	 -0.007747
H	 -1.279957	 1.241025	 -0.770189
H	 -1.270445	 1.110526	 0.963468
H	 -2.617064	 -0.872870	 -0.928010
H	 -3.439525	 0.331102	 0.043462
H	 -2.609427	 -1.002736	 0.818585

	symmetry c1
}
set optking {
	frozen_dihedral = ("
		6 3 5 9
	")
}

ee,wfn = optimize('scf', return_wfn=True)
oeprop( wfn, 'DIPOLE', 'QUADRUPOLE', 'MULLIKEN_CHARGES')
f=open( 'psi4out.xyz', 'w' )
f.write( "16  " )
f.write( str(ee) + "\n" )
f.write( MOL.save_string_xyz() )
f.close()
--------------------------------------------------------------------------

    Molecular point group: c1
  Charge       = 0
  Multiplicity = 1
  Basis Set: CC-PVTZ
  Basis Set:
  @DF-RHF Final Energy:  -212.39850790010587
    Total Energy =                       -212.3985079001058693
    Molecular point group: c1
  Basis Set: CC-PVTZ
  Basis Set:
  Basis Set: CC-PVTZ
  Basis Set:
  @DF-RHF Final Energy:  -212.39881188562168
    Total Energy =                       -212.3988118856217397
  Basis Set: CC-PVTZ
  Basis Set:
  Basis Set: CC-PVTZ
  Basis Set:
  @DF-RHF Final Energy:  -212.39887205116995
    Total Energy =                       -212.3988720511699739
  Basis Set: CC-PVTZ
  Basis Set:
  Basis Set: CC-PVTZ
  Basis Set:
  @DF-RHF Final Energy:  -212.39887454665876
    Total Energy =                       -212.3988745466588171
  Basis Set: CC-PVTZ
  Basis Set:
  Charge       = 0
  Multiplicity = 1
  Basis Set: CC-PVTZ
  Basis Set:

    Orbital Energies (a.u.)
    -----------------------

    Doubly Occupied:

       1A    -15.527207     2A    -11.238803     3A    -11.208289
       4A    -11.204896     5A    -11.201580     6A     -1.178632
       7A     -1.054971     8A     -0.958013     9A     -0.845487
      10A     -0.786198    11A     -0.665227    12A     -0.636016
      13A     -0.603324    14A     -0.575771    15A     -0.565030
      16A     -0.516371    17A     -0.502480    18A     -0.468527
      19A     -0.462224    20A     -0.461065    21A     -0.382458

  @DF-RHF Final Energy:  -212.39887481342788

   => Energetics <=

    Nuclear Repulsion Energy =            188.7015889747315782
    One-Electron Energy =                -660.1157881149854347
    Two-Electron Energy =                 259.0153243268258620
    DFT Exchange-Correlation Energy =       0.0000000000000000
    Empirical Dispersion Energy =           0.0000000000000000
    PCM Polarization Energy =               0.0000000000000000
    EFP Energy =                            0.0000000000000000
    Total Energy =                       -212.3988748134279945
    Molecular point group: c1
  Basis Set: CC-PVTZ
  Basis Set:

  -Total Gradient:
     Atom            X                  Y                   Z
    ------   -----------------  -----------------  -----------------
       1       -0.000003482497    -0.000010771914    -0.000003428654
       2        0.000022081755     0.000002835538    -0.000018968184
       3        0.000924855947    -0.001574150636     0.002606559476
       4       -0.000000108752     0.000010431198     0.000012502539
       5        0.001469403745    -0.002415801345     0.001357559099
       6       -0.001012315681     0.001683888024    -0.002394478795
       7       -0.000018648209     0.000005654736    -0.000013073432
       8       -0.000008799046     0.000021434373     0.000006821714
       9       -0.001369971631     0.002282244660    -0.001553075581
      10        0.000003561858     0.000001140561     0.000002978286
      11        0.000000786086    -0.000003917735    -0.000006944270
      12       -0.000001153087     0.000001702502     0.000006157332
      13        0.000001004860    -0.000003989115     0.000000490823
      14       -0.000003646990    -0.000006229173     0.000004571774
      15       -0.000005791460    -0.000001820331    -0.000002330350
      16        0.000002223098     0.000007348659    -0.000005341777

  **** Optimization is complete! (in 5 steps) ****
    Final optimized geometry and variables:
    Molecular point group: c1

    Geometry (in Angstrom), charge = 0, multiplicity = 1:

    H            2.532477944336     1.322608878629    -0.977904044726
    N            1.754286079248     0.698797946779    -1.003964713374
    C            1.452970428938     0.176365212342     0.322683358732
    H            1.988831634742    -0.040444653971    -1.632909090562
    C            0.150816459179    -0.620865255669     0.305735919601
    H            1.340735058633     1.033043806205     0.978399399705
    H            2.256417501267    -0.439128744203     0.724169153882
    C           -1.097419986976     0.259282166744     0.299804918176
    H            0.136072444731    -1.242397205858    -0.586697071330
    H            0.121617907719    -1.289256960506     1.161261634364
    C           -2.390503031338    -0.539426856306     0.176458783951
    H           -1.024391814517     0.966989087132    -0.517877825808
    H           -1.123173003474     0.844394445259     1.215495099480
    H           -2.415211024947    -1.103287521160    -0.750305786057
    H           -3.256967597765     0.111965557013     0.188688661291
    H           -2.496988187643    -1.245609436831     0.993846256301

  Mulliken Charges: (a.u.)
   Center  Symbol    Alpha    Beta     Spin     Total
       1     H     0.42866  0.42866  0.00000  0.14268
       2     N     3.69251  3.69251  0.00000 -0.38502
       3     C     3.03565  3.03565  0.00000 -0.07129
       4     H     0.43086  0.43086  0.00000  0.13828
       5     C     3.08320  3.08320  0.00000 -0.16640
       6     H     0.45814  0.45814  0.00000  0.08373
       7     H     0.45888  0.45888  0.00000  0.08223
       8     C     3.08139  3.08139  0.00000 -0.16278
       9     H     0.46098  0.46098  0.00000  0.07805
      10     H     0.45188  0.45188  0.00000  0.09623
      11     C     3.15051  3.15051  0.00000 -0.30102
      12     H     0.44736  0.44736  0.00000  0.10528
      13     H     0.45810  0.45810  0.00000  0.08380
      14     H     0.45551  0.45551  0.00000  0.08899
      15     H     0.44913  0.44913  0.00000  0.10174
      16     H     0.45726  0.45726  0.00000  0.08549

   Total alpha = 21.00000, Total beta = 21.00000, Total charge = -0.00000

*** Psi4 exiting successfully. Buy a developer a beer!
