  ==> Input File <==

--------------------------------------------------------------------------
set {
	reference rhf
	basis 6-31G*
}

set_num_threads( 4 )
memory 2 gb

molecule MOL {
0 1

O	 1.179413	 -2.316505	 -1.405114
C	 0.335580	 -1.796827	 -0.749938
C	 -1.093771	 -2.255645	 -0.655024
O	 0.550821	 -0.724572	 0.000672
H	 -1.336426	 -2.486519	 0.375752
H	 -1.235263	 -3.129301	 -1.273568
H	 -1.755409	 -1.460340	 -0.977986
C	 1.863949	 -0.193559	 -0.000319
H	 2.028859	 0.409284	 -0.881648
H	 2.526261	 -1.045082	 -0.000003
H	 2.029520	 0.410555	 0.880008

	symmetry c1
}
set optking {
	frozen_dihedral = ("
		2 4 8 9
	")
}

ee = optimize('scf')
oeprop('DIPOLE', 'QUADRUPOLE', 'MULLIKEN_CHARGES')
f=open( 'psi4out.xyz', 'w' )
f.write( "11  " )
f.write( str(ee) + "\n" )
f.write( MOL.save_string_xyz() )
f.close()
--------------------------------------------------------------------------

    Molecular point group: c1
  Charge       = 0
  Multiplicity = 1
  Basis Set: 6-31G*
  Basis Set:
  @DF-RHF Final Energy:  -266.83406670371977
    Total Energy =                       -266.8340667037198273
    Molecular point group: c1
  Basis Set: 6-31G*
  Basis Set:
  Basis Set: 6-31G*
  Basis Set:
  @DF-RHF Final Energy:  -266.83541229781991
    Total Energy =                       -266.8354122978200849
  Basis Set: 6-31G*
  Basis Set:
  Basis Set: 6-31G*
  Basis Set:
  @DF-RHF Final Energy:  -266.83567114380060
    Total Energy =                       -266.8356711438003117
  Basis Set: 6-31G*
  Basis Set:
  Basis Set: 6-31G*
  Basis Set:
  @DF-RHF Final Energy:  -266.83578627891222
    Total Energy =                       -266.8357862789123374
  Basis Set: 6-31G*
  Basis Set:
  Basis Set: 6-31G*
  Basis Set:
  @DF-RHF Final Energy:  -266.83587685971787
    Total Energy =                       -266.8358768597178710
  Basis Set: 6-31G*
  Basis Set:
  Charge       = 0
  Multiplicity = 1
  Basis Set: 6-31G*
  Basis Set:

    Orbital Energies (a.u.)
    -----------------------

    Doubly Occupied:

       1A    -20.605676     2A    -20.546317     3A    -11.376780
       4A    -11.281843     5A    -11.234570     6A     -1.470536
       7A     -1.364670     8A     -1.035980     9A     -0.953183
      10A     -0.777914    11A     -0.696034    12A     -0.680648
      13A     -0.677159    14A     -0.595979    15A     -0.591604
      16A     -0.560643    17A     -0.526060    18A     -0.522357
      19A     -0.457306    20A     -0.442200

  @DF-RHF Final Energy:  -266.83588844904318

   => Energetics <=

    Nuclear Repulsion Energy =            183.1956487260706581
    One-Electron Energy =                -727.2681562767559171
    Two-Electron Energy =                 277.2366191016420203
    DFT Exchange-Correlation Energy =       0.0000000000000000
    Empirical Dispersion Energy =           0.0000000000000000
    PCM Polarization Energy =               0.0000000000000000
    EFP Energy =                            0.0000000000000000
    Total Energy =                       -266.8358884490432388
    Molecular point group: c1
  Basis Set: 6-31G*
  Basis Set:

  -Total Gradient:
     Atom            X                  Y                   Z
    ------   -----------------  -----------------  -----------------
       1        0.000022785079     0.000031295076     0.000005163793
       2        0.000297780840    -0.000811007938     0.000982368878
       3       -0.000014688564     0.000001266624     0.000019930850
       4       -0.000473653153     0.001514081118    -0.001271697353
       5       -0.000006787228    -0.000001155128    -0.000005448408
       6        0.000009095477     0.000000820439     0.000005018254
       7       -0.000002162238     0.000003425056     0.000000290049
       8        0.000712413441    -0.001903872393    -0.000448414567
       9       -0.000546584841     0.001211004191     0.000730596126
      10        0.000014025456    -0.000039228615     0.000000985129
      11       -0.000012224268    -0.000006628432    -0.000018792749

  **** Optimization is complete! (in 6 steps) ****
    Final optimized geometry and variables:
    Molecular point group: c1

    Geometry (in Angstrom), charge = 0, multiplicity = 1:

    O            0.576394231859    -0.872173401222    -0.871689829227
    C           -0.251332616798    -0.351259722784    -0.197354566779
    C           -1.681792432458    -0.801995389714    -0.080615673815
    O           -0.020771726400     0.717673889692     0.554115323245
    H           -1.909033447473    -1.035746480389     0.952986790452
    H           -1.838942047953    -1.671754324388    -0.700738184605
    H           -2.343549893497    -0.001031074296    -0.389344109596
    C            1.296680057382     1.238467582456     0.566526405726
    H            1.465592063850     1.841082119653    -0.315662352392
    H            2.024892930037     0.444131582602     0.611151706259
    H            1.360949512931     1.860727260818     1.445955194088

  Mulliken Charges: (a.u.)
   Center  Symbol    Alpha    Beta     Spin     Total
       1     O     4.28194  4.28194  0.00000 -0.56388
       2     C     2.62243  2.62243  0.00000  0.75514
       3     C     3.28180  3.28180  0.00000 -0.56360
       4     O     4.29986  4.29986  0.00000 -0.59972
       5     H     0.40007  0.40007  0.00000  0.19985
       6     H     0.39663  0.39663  0.00000  0.20675
       7     H     0.39982  0.39982  0.00000  0.20035
       8     C     3.09359  3.09359  0.00000 -0.18718
       9     H     0.41189  0.41189  0.00000  0.17622
      10     H     0.40294  0.40294  0.00000  0.19412
      11     H     0.40902  0.40902  0.00000  0.18196

   Total alpha = 20.00000, Total beta = 20.00000, Total charge = -0.00000
