  ==> Input File <==

--------------------------------------------------------------------------
set {
	reference rhf
	basis cc-pvtz
}

set_num_threads( 4 )
memory 2 gb

molecule MOL {
0 1

O	 -2.817697	 1.304178	 0.001046
C	 -2.664672	 0.129869	 0.003507
C	 -3.797908	 -0.860100	 -0.001145
O	 -1.481217	 -0.452708	 0.001092
H	 -4.408836	 -0.679689	 -0.875387
H	 -3.443486	 -1.878443	 -0.002770
H	 -4.412123	 -0.683688	 0.871605
C	 -0.332055	 0.384012	 -0.000250
C	 0.892252	 -0.506059	 -0.000295
H	 -0.360822	 1.020205	 -0.874146
H	 -0.359817	 1.021310	 0.872861
C	 1.908834	 -0.084744	 -1.057374
H	 0.581729	 -1.531518	 -0.172571
H	 1.347877	 -0.477846	 0.984223
C	 3.153059	 -0.968312	 -1.075796
H	 1.441389	 -0.105871	 -2.038713
H	 2.205895	 0.946591	 -0.883947
C	 4.169703	 -0.546908	 -2.131193
H	 2.857656	 -1.998931	 -1.250774
H	 3.621127	 -0.947868	 -0.095704
H	 3.741104	 -0.590079	 -3.126826
H	 5.039522	 -1.193234	 -2.117729
H	 4.510246	 0.469257	 -1.962987

	symmetry c1
}
set optking {
	frozen_dihedral = ("
		13 9 8 10
	")
}

ee = optimize('scf')
oeprop('DIPOLE', 'QUADRUPOLE', 'MULLIKEN_CHARGES')
f=open( 'psi4out.xyz', 'w' )
f.write( "23  " )
f.write( str(ee) + "\n" )
f.write( MOL.save_string_xyz() )
f.close()
--------------------------------------------------------------------------

    Molecular point group: c1
  Charge       = 0
  Multiplicity = 1
  Basis Set: CC-PVTZ
  Basis Set:
  @DF-RHF Final Energy:  -423.12915790090170
    Total Energy =                       -423.1291579009017596
    Molecular point group: c1
  Basis Set: CC-PVTZ
  Basis Set:
  Basis Set: CC-PVTZ
  Basis Set:
  @DF-RHF Final Energy:  -423.12935360553763
    Total Energy =                       -423.1293536055374034
  Basis Set: CC-PVTZ
  Basis Set:
  Basis Set: CC-PVTZ
  Basis Set:
  @DF-RHF Final Energy:  -423.12942792708958
    Total Energy =                       -423.1294279270896368
  Basis Set: CC-PVTZ
  Basis Set:
  Basis Set: CC-PVTZ
  Basis Set:
  @DF-RHF Final Energy:  -423.12958692269410
    Total Energy =                       -423.1295869226943296
  Basis Set: CC-PVTZ
  Basis Set:
  Basis Set: CC-PVTZ
  Basis Set:
  @DF-RHF Final Energy:  -423.12958802781992
    Total Energy =                       -423.1295880278198638
  Basis Set: CC-PVTZ
  Basis Set:
  Charge       = 0
  Multiplicity = 1
  Basis Set: CC-PVTZ
  Basis Set:

    Orbital Energies (a.u.)
    -----------------------

    Doubly Occupied:

       1A    -20.596397     2A    -20.529713     3A    -11.366406
       4A    -11.279497     5A    -11.230873     6A    -11.221950
       7A    -11.220626     8A    -11.218757     9A    -11.210649
      10A     -1.471224    11A     -1.364099    12A     -1.093225
      13A     -1.042157    14A     -1.003537    15A     -0.931711
      16A     -0.843330    17A     -0.801951    18A     -0.780529
      19A     -0.691487    20A     -0.685546    21A     -0.670741
      22A     -0.646899    23A     -0.608096    24A     -0.585277
      25A     -0.583709    26A     -0.570225    27A     -0.559640
      28A     -0.537416    29A     -0.526402    30A     -0.503951
      31A     -0.496121    32A     -0.476241    33A     -0.471121
      34A     -0.466592    35A     -0.448991    36A     -0.439079

  @DF-RHF Final Energy:  -423.12958849271018

   => Energetics <=

    Nuclear Repulsion Energy =            451.0728859235388768
    One-Electron Energy =               -1470.0566202753880134
    Two-Electron Energy =                 595.8541458591381570
    DFT Exchange-Correlation Energy =       0.0000000000000000
    Empirical Dispersion Energy =           0.0000000000000000
    PCM Polarization Energy =               0.0000000000000000
    EFP Energy =                            0.0000000000000000
    Total Energy =                       -423.1295884927109228
    Molecular point group: c1
  Basis Set: CC-PVTZ
  Basis Set:

  -Total Gradient:
     Atom            X                  Y                   Z
    ------   -----------------  -----------------  -----------------
       1       -0.000017217437     0.000012728293    -0.000009152482
       2        0.000045163135    -0.000019106917     0.000025217596
       3       -0.000006544662     0.000004783946    -0.000000659526
       4       -0.000014279229    -0.000020764529    -0.000009424646
       5       -0.000009396828    -0.000004705139    -0.000006226207
       6        0.000000730137    -0.000000782818    -0.000000708088
       7        0.000008977466     0.000005148873    -0.000006185845
       8       -0.001873387855    -0.002577312327    -0.001154307054
       9        0.000717629854     0.001033063076    -0.003059019722
      10        0.001465757197     0.002004365836     0.001438727672
      11       -0.000010471559    -0.000013003636    -0.000015647989
      12       -0.000013582677    -0.000003787967    -0.000008486648
      13       -0.000266579391    -0.000419853086     0.002782315383
      14       -0.000008971030     0.000001164349     0.000009873057
      15       -0.000020666740     0.000001464837     0.000010454074
      16       -0.000007119902     0.000003225042     0.000001910205
      17       -0.000005822352    -0.000007214550     0.000003325526
      18        0.000010658688    -0.000001530266    -0.000001017463
      19        0.000002260794     0.000003094993    -0.000002860735
      20       -0.000002175571    -0.000003536238     0.000000276066
      21       -0.000000423080    -0.000000956942     0.000004213108
      22        0.000005490788     0.000002457252    -0.000002326013
      23       -0.000000029749     0.000001057924    -0.000000290272

  **** Optimization is complete! (in 6 steps) ****
    Final optimized geometry and variables:
    Molecular point group: c1

    Geometry (in Angstrom), charge = 0, multiplicity = 1:

    O           -2.696730382615     1.485862674386     0.511224367616
    C           -2.558470505173     0.309758234135     0.497322098000
    C           -3.704178287199    -0.665831490511     0.521049889345
    O           -1.383131325351    -0.287889542668     0.458585879089
    H           -4.339415859133    -0.471308021379    -0.332662645545
    H           -3.363455175625    -1.688707305597     0.501675021361
    H           -4.288717534811    -0.487755594567     1.413682249243
    C           -0.224342636553     0.535789519343     0.437660187773
    C            1.015031056112    -0.358458294730     0.418128886136
    H           -0.262690001816     1.184675830055    -0.426041175132
    H           -0.241422588909     1.175448133006     1.308083802832
    C            2.054223712577     0.075536158295    -0.611080021850
    H            0.700564303162    -1.378500612770     0.233532498104
    H            1.468102156014    -0.364792552603     1.404212371800
    C            3.312646801502    -0.786299574718    -0.593253253188
    H            1.609278208165     0.044875879117    -1.602471041490
    H            2.328699809993     1.112871607689    -0.433057348377
    C            4.346960219325    -0.356055223931    -1.627890772319
    H            3.038367868850    -1.823225612687    -0.766732058538
    H            3.757611921014    -0.750997615328     0.397297276972
    H            3.942953566016    -0.414404716224    -2.633018910840
    H            5.227032722738    -0.987344369919    -1.588460043855
    H            4.666232910460     0.667139541221    -1.460140541968

  Mulliken Charges: (a.u.)
   Center  Symbol    Alpha    Beta     Spin     Total
       1     O     4.20235  4.20235  0.00000 -0.40470
       2     C     2.81033  2.81033  0.00000  0.37934
       3     C     3.13902  3.13902  0.00000 -0.27803
       4     O     4.14553  4.14553  0.00000 -0.29107
       5     H     0.44221  0.44221  0.00000  0.11558
       6     H     0.44213  0.44213  0.00000  0.11575
       7     H     0.44211  0.44211  0.00000  0.11578
       8     C     2.98396  2.98396  0.00000  0.03208
       9     C     3.09113  3.09113  0.00000 -0.18225
      10     H     0.45396  0.45396  0.00000  0.09208
      11     H     0.45202  0.45202  0.00000  0.09595
      12     C     3.09511  3.09511  0.00000 -0.19022
      13     H     0.44524  0.44524  0.00000  0.10952
      14     H     0.45101  0.45101  0.00000  0.09799
      15     C     3.08594  3.08594  0.00000 -0.17188
      16     H     0.45182  0.45182  0.00000  0.09635
      17     H     0.45237  0.45237  0.00000  0.09526
      18     C     3.14944  3.14944  0.00000 -0.29888
      19     H     0.45350  0.45350  0.00000  0.09300
      20     H     0.45373  0.45373  0.00000  0.09253
      21     H     0.45456  0.45456  0.00000  0.09089
      22     H     0.44787  0.44787  0.00000  0.10427
      23     H     0.45467  0.45467  0.00000  0.09067

   Total alpha = 36.00000, Total beta = 36.00000, Total charge =  0.00000
