                              Psi4 1.0.54 Driver

  ==> Input File <==

--------------------------------------------------------------------------
set {
	reference rhf
	basis cc-pvtz
}

set_num_threads( 4 )
memory 2 gb

molecule MOL {
0 1

O	 0.749630	 1.305591	 -0.000460
C	 0.576499	 0.134701	 -0.003900
C	 -0.765656	 -0.550508	 -0.002152
O	 1.564816	 -0.744612	 -0.000631
C	 -1.945526	 0.411052	 0.000603
H	 -0.794329	 -1.203792	 -0.868145
H	 -0.791555	 -1.205429	 0.862701
C	 -3.134677	 -0.141610	 0.778683
H	 -2.237718	 0.621008	 -1.021129
H	 -1.633941	 1.357655	 0.425146
H	 -3.485734	 -1.075582	 0.352344
H	 -3.962151	 0.557407	 0.767548
H	 -2.875280	 -0.329641	 1.815353
C	 2.884339	 -0.237801	 0.002883
H	 3.064150	 0.362814	 -0.876312
H	 3.533055	 -1.098529	 0.004958
H	 3.059365	 0.363432	 0.882614

	symmetry c1
}
set optking {
	frozen_dihedral = ("
		9 5 3 6
	")
}

ee,wfn = optimize('scf', return_wfn=True)
oeprop( wfn, 'DIPOLE', 'QUADRUPOLE', 'MULLIKEN_CHARGES')
f=open( 'psi4out.xyz', 'w' )
f.write( "17  " )
f.write( str(ee) + "\n" )
f.write( MOL.save_string_xyz() )
f.close()
--------------------------------------------------------------------------

    Molecular point group: c1
  Charge       = 0
  Multiplicity = 1
  Basis Set: CC-PVTZ
  Basis Set:
  @DF-RHF Final Energy:  -345.03231928564787
    Total Energy =                       -345.0323192856481000
    Molecular point group: c1
  Basis Set: CC-PVTZ
  Basis Set:
  Basis Set: CC-PVTZ
  Basis Set:
  @DF-RHF Final Energy:  -345.03246356592501
    Total Energy =                       -345.0324635659254682
  Basis Set: CC-PVTZ
  Basis Set:
  Basis Set: CC-PVTZ
  Basis Set:
  @DF-RHF Final Energy:  -345.03095655988960
    Total Energy =                       -345.0309565598897734
  Basis Set: CC-PVTZ
  Basis Set:
  Basis Set: CC-PVTZ
  Basis Set:
  @DF-RHF Final Energy:  -345.03264399282517
    Total Energy =                       -345.0326439928250579
  Basis Set: CC-PVTZ
  Basis Set:
  Basis Set: CC-PVTZ
  Basis Set:
  @DF-RHF Final Energy:  -345.03266384985420
    Total Energy =                       -345.0326638498544298
  Basis Set: CC-PVTZ
  Basis Set:
  Basis Set: CC-PVTZ
  Basis Set:
  @DF-RHF Final Energy:  -345.03266771666381
    Total Energy =                       -345.0326677166635818
  Basis Set: CC-PVTZ
  Basis Set:
  Charge       = 0
  Multiplicity = 1
  Basis Set: CC-PVTZ
  Basis Set:

    Orbital Energies (a.u.)
    -----------------------

    Doubly Occupied:

       1A    -20.596619     2A    -20.534817     3A    -11.365191
       4A    -11.278782     5A    -11.234574     6A    -11.219268
       7A    -11.212188     8A     -1.472742     9A     -1.366305
      10A     -1.080067    11A     -1.002576    12A     -0.939801
      13A     -0.828003    14A     -0.768930    15A     -0.702415
      16A     -0.686245    17A     -0.676477    18A     -0.635579
      19A     -0.598980    20A     -0.573918    21A     -0.570993
      22A     -0.530381    23A     -0.524952    24A     -0.494928
      25A     -0.487259    26A     -0.478040    27A     -0.460869
      28A     -0.441825

  @DF-RHF Final Energy:  -345.03266797162854

   => Energetics <=

    Nuclear Repulsion Energy =            313.0720911425285635
    One-Electron Energy =               -1090.6840684686503664
    Two-Electron Energy =                 432.5793093544930912
    DFT Exchange-Correlation Energy =       0.0000000000000000
    Empirical Dispersion Energy =           0.0000000000000000
    PCM Polarization Energy =               0.0000000000000000
    EFP Energy =                            0.0000000000000000
    Total Energy =                       -345.0326679716287686
    Molecular point group: c1
  Basis Set: CC-PVTZ
  Basis Set:

  -Total Gradient:
     Atom            X                  Y                   Z
    ------   -----------------  -----------------  -----------------
       1       -0.000003279586     0.000009464397    -0.000003043419
       2       -0.000007310240    -0.000012530666     0.000004143800
       3       -0.003094626072    -0.003874024827     0.002484098727
       4       -0.000001122986     0.000005450550     0.000001320625
       5        0.003396755236     0.004250841577    -0.000586679327
       6        0.002022948939     0.002547975557    -0.001948692980
       7       -0.000000835026    -0.000006484172    -0.000001417702
       8       -0.000001845997     0.000002331905    -0.000003990817
       9       -0.002350493783    -0.002913039623     0.000064517198
      10       -0.000000640886    -0.000002106910    -0.000002299791
      11       -0.000001733251     0.000014449539     0.000008783951
      12        0.000016578722    -0.000015102259     0.000004944340
      13       -0.000004844402     0.000000245236    -0.000017924375
      14        0.000028338798    -0.000005410561    -0.000003663849
      15        0.000000229582    -0.000000487047     0.000002083440
      16        0.000004368603     0.000000414316     0.000000198614
      17       -0.000002487651    -0.000001987011    -0.000002378436

  **** Optimization is complete! (in 7 steps) ****
    Final optimized geometry and variables:
    Molecular point group: c1

    Geometry (in Angstrom), charge = 0, multiplicity = 1:

    O            0.741790915894     1.288104107280    -0.117951507301
    C            0.560590039316     0.118516020613    -0.111598063815
    C           -0.783123557253    -0.569542777187    -0.070125695062
    O            1.544846876008    -0.765287487198    -0.143099751870
    C           -1.974751096386     0.388637944923    -0.057898769755
    H           -0.805816781772    -1.217439161294    -0.939261058297
    H           -0.778276427783    -1.217105630532     0.799352657320
    C           -3.179016590578    -0.200267036627     0.673139741101
    H           -2.269470890874     0.604048176591    -1.078623126155
    H           -1.685291068674     1.324561158881     0.397345338912
    H           -3.491099544183    -1.140498145543     0.229986074993
    H           -4.023459101871     0.477553204600     0.635655765827
    H           -2.950738981561    -0.387458440953     1.717124962765
    C            2.865966017124    -0.265013138073    -0.184403227341
    H            3.018797640757     0.335534804756    -1.068812631813
    H            3.510690391736    -1.128606377683    -0.204996083451
    H            3.074194654074     0.334795473989     0.689143479522

  Mulliken Charges: (a.u.)
   Center  Symbol    Alpha    Beta     Spin     Total
       1     O     4.19602  4.19602  0.00000 -0.39204
       2     C     2.80367  2.80367  0.00000  0.39266
       3     C     3.10039  3.10039  0.00000 -0.20077
       4     O     4.14770  4.14770  0.00000 -0.29540
       5     C     3.08365  3.08365  0.00000 -0.16731
       6     H     0.43824  0.43824  0.00000  0.12352
       7     H     0.44046  0.44046  0.00000  0.11907
       8     C     3.14998  3.14998  0.00000 -0.29996
       9     H     0.45262  0.45262  0.00000  0.09476
      10     H     0.43806  0.43806  0.00000  0.12389
      11     H     0.45575  0.45575  0.00000  0.08850
      12     H     0.44697  0.44697  0.00000  0.10605
      13     H     0.45553  0.45553  0.00000  0.08894
      14     C     3.03677  3.03677  0.00000 -0.07354
      15     H     0.45438  0.45438  0.00000  0.09124
      16     H     0.44542  0.44542  0.00000  0.10916
      17     H     0.45438  0.45438  0.00000  0.09124

   Total alpha = 28.00000, Total beta = 28.00000, Total charge =  0.00000

*** Psi4 exiting successfully. Buy a developer a beer!
