  ==> Input File <==

--------------------------------------------------------------------------
set {
	reference rhf
	basis cc-pvtz
}

set_num_threads( 4 )
memory 2 gb

molecule MOL {
0 1

O	 0.395927	 1.296676	 -0.000076
C	 0.503051	 0.114301	 -0.000074
C	 -0.701422	 -0.805636	 -0.000109
C	 1.858118	 -0.556123	 0.000212
C	 -0.386347	 -2.239532	 0.395808
H	 -1.443738	 -0.373602	 0.666035
H	 -1.144350	 -0.765578	 -0.991900
H	 0.032502	 -2.283712	 1.392223
H	 -1.286752	 -2.841794	 0.375611
H	 0.334540	 -2.679179	 -0.280404
H	 1.961106	 -1.191101	 -0.872843
H	 2.636688	 0.191085	 -0.000109
H	 1.961070	 -1.190284	 0.873873

	symmetry c1
}
set optking {
	frozen_dihedral = ("
		6 3 2 1
	")
}

ee = optimize('scf')
oeprop('DIPOLE', 'QUADRUPOLE', 'MULLIKEN_CHARGES')
f=open( 'psi4out.xyz', 'w' )
f.write( "13  " )
f.write( str(ee) + "\n" )
f.write( MOL.save_string_xyz() )
f.close()
--------------------------------------------------------------------------

    Molecular point group: c1
  Charge       = 0
  Multiplicity = 1
  Basis Set: CC-PVTZ
  Basis Set:
  @DF-RHF Final Energy:  -231.07725791604156
    Total Energy =                       -231.0772579160414466
    Molecular point group: c1
  Basis Set: CC-PVTZ
  Basis Set:
  Basis Set: CC-PVTZ
  Basis Set:
  @DF-RHF Final Energy:  -231.07819613616437
    Total Energy =                       -231.0781961361642232
  Basis Set: CC-PVTZ
  Basis Set:
  Basis Set: CC-PVTZ
  Basis Set:
  @DF-RHF Final Energy:  -231.07924130368028
    Total Energy =                       -231.0792413036801918
  Basis Set: CC-PVTZ
  Basis Set:
  Basis Set: CC-PVTZ
  Basis Set:
  @DF-RHF Final Energy:  -231.07938041016530
    Total Energy =                       -231.0793804101652995
  Basis Set: CC-PVTZ
  Basis Set:
  Basis Set: CC-PVTZ
  Basis Set:
  @DF-RHF Final Energy:  -231.07935758047614
    Total Energy =                       -231.0793575804762554
  Basis Set: CC-PVTZ
  Basis Set:
  Basis Set: CC-PVTZ
  Basis Set:
  @DF-RHF Final Energy:  -231.07942703158682
    Total Energy =                       -231.0794270315868175
  Basis Set: CC-PVTZ
  Basis Set:
  Charge       = 0
  Multiplicity = 1
  Basis Set: CC-PVTZ
  Basis Set:

    Orbital Energies (a.u.)
    -----------------------

    Doubly Occupied:

       1A    -20.536081     2A    -11.321661     3A    -11.233036
       4A    -11.227549     5A    -11.226534     6A     -1.397511
       7A     -1.067775     8A     -0.995035     9A     -0.891460
      10A     -0.732597    11A     -0.654975    12A     -0.645422
      13A     -0.627995    14A     -0.585381    15A     -0.557366
      16A     -0.546340    17A     -0.531753    18A     -0.513774
      19A     -0.477640    20A     -0.401802

  @DF-RHF Final Energy:  -231.07942747779401

   => Energetics <=

    Nuclear Repulsion Energy =            177.0644033054864508
    One-Electron Energy =                -663.9442825311155048
    Two-Electron Energy =                 255.8004517478351545
    DFT Exchange-Correlation Energy =       0.0000000000000000
    Empirical Dispersion Energy =           0.0000000000000000
    PCM Polarization Energy =               0.0000000000000000
    EFP Energy =                            0.0000000000000000
    Total Energy =                       -231.0794274777938995
    Molecular point group: c1
  Basis Set: CC-PVTZ
  Basis Set:

  -Total Gradient:
     Atom            X                  Y                   Z
    ------   -----------------  -----------------  -----------------
       1        0.000036509605    -0.000023599632    -0.001479947706
       2        0.000058190849    -0.000128355856     0.002242132759
       3       -0.000665575866     0.000900745527    -0.001918852447
       4        0.000006854714    -0.000002059670     0.000095217890
       5        0.000010254645    -0.000021792605    -0.000003422193
       6        0.000552622306    -0.000728841095     0.001132514585
       7        0.000001428753    -0.000006115750     0.000007537864
       8       -0.000007236647     0.000005068684    -0.000003109358
       9        0.000000772988     0.000003787704    -0.000001188187
      10        0.000012965602    -0.000006165234    -0.000002364359
      11       -0.000019606396     0.000003560042    -0.000025585168
      12        0.000003388649     0.000001795463    -0.000013107395
      13        0.000009430797     0.000001972422    -0.000029826285

  **** Optimization is complete! (in 7 steps) ****
    Final optimized geometry and variables:
    Molecular point group: c1

    Geometry (in Angstrom), charge = 0, multiplicity = 1:

    O            0.026960755334     1.730655080454    -0.082384554372
    C            0.187375843740     0.553675475388    -0.068675648440
    C           -1.023028488463    -0.369644671127    -0.074784082859
    C            1.575504693083    -0.040954212683    -0.100690665031
    C           -0.800214332736    -1.826992294318     0.318033698059
    H           -1.754783638112     0.086432810665     0.579582005921
    H           -1.431196527245    -0.313591755837    -1.079634496158
    H           -0.415388978369    -1.914699511929     1.327517974397
    H           -1.739218219777    -2.364897454110     0.280372522808
    H           -0.109950034624    -2.330231203547    -0.347650414217
    H            1.688554006455    -0.681947049230    -0.968281466720
    H            2.302113669462     0.755468167114    -0.140081865967
    H            1.750706349131    -0.653190245067     0.775962586560

  Mulliken Charges: (a.u.)
   Center  Symbol    Alpha    Beta     Spin     Total
       1     O     4.17518  4.17518  0.00000 -0.35036
       2     C     2.85958  2.85958  0.00000  0.28084
       3     C     3.09616  3.09616  0.00000 -0.19231
       4     C     3.16003  3.16003  0.00000 -0.32006
       5     C     3.15790  3.15790  0.00000 -0.31581
       6     H     0.43714  0.43714  0.00000  0.12572
       7     H     0.44167  0.44167  0.00000  0.11665
       8     H     0.44992  0.44992  0.00000  0.10017
       9     H     0.44124  0.44124  0.00000  0.11752
      10     H     0.45242  0.45242  0.00000  0.09516
      11     H     0.44822  0.44822  0.00000  0.10356
      12     H     0.43201  0.43201  0.00000  0.13599
      13     H     0.44853  0.44853  0.00000  0.10293

   Total alpha = 20.00000, Total beta = 20.00000, Total charge = -0.00000
