  ==> Input File <==

--------------------------------------------------------------------------
set {
	reference rhf
	basis 6-31G*
}

set_num_threads( 4 )
memory 2 gb

molecule MOL {
0 1

H	 1.052954	 2.865260	 -2.338148
O	 0.424336	 2.507524	 -1.727776
C	 1.064508	 1.599035	 -0.867546
C	 0.031547	 1.023609	 0.088541
H	 1.842655	 2.100560	 -0.294965
H	 1.543102	 0.806035	 -1.437808
C	 -1.134819	 0.293262	 -0.585751
H	 -0.361884	 1.840223	 0.687407
H	 0.543407	 0.348750	 0.772489
C	 -1.917817	 -0.639439	 0.339494
H	 -0.758119	 -0.268455	 -1.433105
H	 -1.813832	 1.041889	 -0.986690
H	 -2.777680	 -1.057197	 -0.174994
H	 -1.310268	 -1.471279	 0.680599
H	 -2.283753	 -0.111424	 1.216626

	symmetry c1
}
set optking {
	frozen_dihedral = ("
		8 4 7 11
	")
}

ee = optimize('scf')
oeprop('DIPOLE', 'QUADRUPOLE', 'MULLIKEN_CHARGES')
f=open( 'psi4out.xyz', 'w' )
f.write( "15  " )
f.write( str(ee) + "\n" )
f.write( MOL.save_string_xyz() )
f.close()
--------------------------------------------------------------------------

    Molecular point group: c1
  Charge       = 0
  Multiplicity = 1
  Basis Set: 6-31G*
  Basis Set:
  @DF-RHF Final Energy:  -232.14360845467249
    Total Energy =                       -232.1436084546726306
    Molecular point group: c1
  Basis Set: 6-31G*
  Basis Set:
  Basis Set: 6-31G*
  Basis Set:
  @DF-RHF Final Energy:  -232.14405310516557
    Total Energy =                       -232.1440531051654261
  Basis Set: 6-31G*
  Basis Set:
  Basis Set: 6-31G*
  Basis Set:
  @DF-RHF Final Energy:  -232.14408380905823
    Total Energy =                       -232.1440838090584293
  Basis Set: 6-31G*
  Basis Set:
  Charge       = 0
  Multiplicity = 1
  Basis Set: 6-31G*
  Basis Set:

    Orbital Energies (a.u.)
    -----------------------

    Doubly Occupied:

       1A    -20.553070     2A    -11.267927     3A    -11.212075
       4A    -11.208667     5A    -11.205191     6A     -1.359821
       7A     -1.063952     8A     -0.973689     9A     -0.856268
      10A     -0.786242    11A     -0.704091    12A     -0.642240
      13A     -0.605388    14A     -0.589380    15A     -0.546565
      16A     -0.534029    17A     -0.508760    18A     -0.475404
      19A     -0.465647    20A     -0.454922    21A     -0.430332

  @DF-RHF Final Energy:  -232.14408467621948

   => Energetics <=

    Nuclear Repulsion Energy =            188.6806724705904514
    One-Electron Energy =                -688.7621967127549851
    Two-Electron Energy =                 267.9374395659449988
    DFT Exchange-Correlation Energy =       0.0000000000000000
    Empirical Dispersion Energy =           0.0000000000000000
    PCM Polarization Energy =               0.0000000000000000
    EFP Energy =                            0.0000000000000000
    Total Energy =                       -232.1440846762195065
    Molecular point group: c1
  Basis Set: 6-31G*
  Basis Set:

  -Total Gradient:
     Atom            X                  Y                   Z
    ------   -----------------  -----------------  -----------------
       1       -0.000000481620    -0.000011883949     0.000018768416
       2       -0.000019583495     0.000043301412     0.000022489610
       3        0.000099580607    -0.000016055626    -0.000110159533
       4       -0.000556214060    -0.001893198968     0.002645268212
       5        0.000008408414     0.000013488861    -0.000029515421
       6        0.000056766510    -0.000021170049     0.000008838667
       7        0.000616806036    -0.002571682365     0.001917128296
       8        0.000239982104     0.001936950143    -0.002520265681
       9       -0.000044591988     0.000005729661    -0.000030607067
      10       -0.000025223862    -0.000095336224    -0.000046190822
      11       -0.000411710837     0.002542673147    -0.001910891681
      12        0.000021762065     0.000058541160     0.000011734581
      13        0.000010400500    -0.000039842459     0.000026731926
      14        0.000009726542     0.000023682324     0.000029324689
      15       -0.000005626917     0.000024802937    -0.000032654192

  **** Optimization is complete! (in 4 steps) ****
    Final optimized geometry and variables:
    Molecular point group: c1

    Geometry (in Angstrom), charge = 0, multiplicity = 1:

    H            1.308415455350     1.888981126307    -1.734552649979
    O            0.695433782228     1.540625818099    -1.103115023222
    C            1.339409711600     0.591500603433    -0.291213194512
    C            0.319756191813     0.011755303866     0.675076357161
    H            2.152228195297     1.055637265603     0.264832793634
    H            1.769343613146    -0.203353893352    -0.899561533038
    C           -0.837126892992    -0.708966417639    -0.025260489604
    H           -0.068818823707     0.833541087073     1.270521292820
    H            0.837882335856    -0.667833032201     1.348413668431
    C           -1.627378511947    -1.620453007171     0.911502679253
    H           -0.454345939266    -1.277408969361    -0.870375029232
    H           -1.499838849780     0.034081570215    -0.456006859368
    H           -2.457305655391    -2.091991495224     0.394341913855
    H           -0.999526952631    -2.408604759172     1.318188477203
    H           -2.036032689821    -1.060765354683     1.748507015013

  Mulliken Charges: (a.u.)
   Center  Symbol    Alpha    Beta     Spin     Total
       1     H     0.28060  0.28060  0.00000  0.43881
       2     O     4.36967  4.36967  0.00000 -0.73935
       3     C     2.99867  2.99867  0.00000  0.00266
       4     C     3.15942  3.15942  0.00000 -0.31885
       5     H     0.42952  0.42952  0.00000  0.14096
       6     H     0.43255  0.43255  0.00000  0.13491
       7     C     3.15113  3.15113  0.00000 -0.30226
       8     H     0.41461  0.41461  0.00000  0.17079
       9     H     0.42395  0.42395  0.00000  0.15210
      10     C     3.24027  3.24027  0.00000 -0.48054
      11     H     0.42474  0.42474  0.00000  0.15051
      12     H     0.40985  0.40985  0.00000  0.18030
      13     H     0.41948  0.41948  0.00000  0.16104
      14     H     0.42382  0.42382  0.00000  0.15235
      15     H     0.42172  0.42172  0.00000  0.15657

   Total alpha = 21.00000, Total beta = 21.00000, Total charge =  0.00000
