  ==> Input File <==

--------------------------------------------------------------------------
set {
	reference rhf
	basis 6-31G*
}

set_num_threads( 4 )
memory 2 gb

molecule MOL {
0 1

O	 0.791082	 1.316441	 -0.987186
C	 -0.207597	 1.258989	 -0.345616
C	 -1.142393	 2.412106	 -0.098990
O	 -0.632575	 0.154573	 0.251549
H	 -1.225619	 2.594732	 0.966218
H	 -0.769371	 3.294242	 -0.597515
H	 -2.131500	 2.166988	 -0.468234
C	 0.160891	 -1.019931	 0.106212
C	 1.589627	 -0.672828	 0.480843
H	 0.089836	 -1.367806	 -0.916050
H	 -0.238459	 -1.792301	 0.749618
C	 2.246377	 0.346236	 -0.452210
H	 2.163194	 -1.597435	 0.473358
H	 1.604769	 -0.303424	 1.502885
C	 3.691736	 0.652107	 -0.061850
H	 2.219579	 -0.032311	 -1.472055
H	 1.666466	 1.263317	 -0.447249
H	 4.134505	 1.377213	 -0.737283
H	 4.305508	 -0.243868	 -0.089969
H	 3.748266	 1.059562	 0.943567

	symmetry c1
}
set optking {
	frozen_dihedral = ("
		2 4 8 10
	")
}

ee = optimize('scf')
oeprop('DIPOLE', 'QUADRUPOLE', 'MULLIKEN_CHARGES')
f=open( 'psi4out.xyz', 'w' )
f.write( "20  " )
f.write( str(ee) + "\n" )
f.write( MOL.save_string_xyz() )
f.close()
--------------------------------------------------------------------------

    Molecular point group: c1
  Charge       = 0
  Multiplicity = 1
  Basis Set: 6-31G*
  Basis Set:
  @DF-RHF Final Energy:  -383.67992833353441
    Total Energy =                       -383.6799283335350310
    Molecular point group: c1
  Basis Set: 6-31G*
  Basis Set:
  Basis Set: 6-31G*
  Basis Set:
  @DF-RHF Final Energy:  -383.79121113057573
    Total Energy =                       -383.7912111305757890
  Basis Set: 6-31G*
  Basis Set:
  Basis Set: 6-31G*
  Basis Set:
  @DF-RHF Final Energy:  -383.86221330199112
    Total Energy =                       -383.8622133019907778
  Basis Set: 6-31G*
  Basis Set:
  Basis Set: 6-31G*
  Basis Set:
  @DF-RHF Final Energy:  -383.89884430086414
    Total Energy =                       -383.8988443008644253
  Basis Set: 6-31G*
  Basis Set:
  @DF-RHF Final Energy:  -383.91747485084386
    Total Energy =                       -383.9174748508438597
  @DF-RHF Final Energy:  -383.92733540383614
    Total Energy =                       -383.9273354038357411
  @DF-RHF Final Energy:  -383.93206348619424
    Total Energy =                       -383.9320634861941244
  @DF-RHF Final Energy:  -383.93412011268441
    Total Energy =                       -383.9341201126842407
  @DF-RHF Final Energy:  -383.93489161910645
    Total Energy =                       -383.9348916191065655
  @DF-RHF Final Energy:  -383.93512235735733
    Total Energy =                       -383.9351223573572724
  @DF-RHF Final Energy:  -383.93521676675761
    Total Energy =                       -383.9352167667578897
  @DF-RHF Final Energy:  -383.93526910493404
    Total Energy =                       -383.9352691049342639
  @DF-RHF Final Energy:  -383.93530780297255
    Total Energy =                       -383.9353078029727158
  @DF-RHF Final Energy:  -383.93533949068569
    Total Energy =                       -383.9353394906858057
  @DF-RHF Final Energy:  -383.93536025357935
    Total Energy =                       -383.9353602535794607
  @DF-RHF Final Energy:  -383.93538351991083
    Total Energy =                       -383.9353835199107152
  @DF-RHF Final Energy:  -383.93539343288671
    Total Energy =                       -383.9353934328869400
  @DF-RHF Final Energy:  -383.93541949679519
    Total Energy =                       -383.9354194967951344
  @DF-RHF Final Energy:  -383.93543209691836
    Total Energy =                       -383.9354320969184755
  @DF-RHF Final Energy:  -383.93544139425086
    Total Energy =                       -383.9354413942510291
  @DF-RHF Final Energy:  -383.93546184652229
    Total Energy =                       -383.9354618465222302
  @DF-RHF Final Energy:  -383.93546191117048
    Total Energy =                       -383.9354619111707052
  @DF-RHF Final Energy:  -383.93546166896942
    Total Energy =                       -383.9354616689693103
  @DF-RHF Final Energy:  -383.93546144268646
    Total Energy =                       -383.9354614426862327
  @DF-RHF Final Energy:  -383.93546199535353
    Total Energy =                       -383.9354619953534211
  @DF-RHF Final Energy:  -383.93546178881689
    Total Energy =                       -383.9354617888172925
  @DF-RHF Final Energy:  -383.93546140263146
    Total Energy =                       -383.9354614026314039
  @DF-RHF Final Energy:  -383.93546029425789
    Total Energy =                       -383.9354602942578367
  @DF-RHF Final Energy:  -383.93546023149679
    Total Energy =                       -383.9354602314967906
  @DF-RHF Final Energy:  -383.93546080508639
    Total Energy =                       -383.9354608050864499
  @DF-RHF Final Energy:  -383.93545689290903
    Total Energy =                       -383.9354568929088600
  @DF-RHF Final Energy:  -383.93545283872419
    Total Energy =                       -383.9354528387240180
  @DF-RHF Final Energy:  -383.93544902941994
    Total Energy =                       -383.9354490294196012
  @DF-RHF Final Energy:  -383.93546271869224
    Total Energy =                       -383.9354627186917241
  @DF-RHF Final Energy:  -383.93546570008897
    Total Energy =                       -383.9354657000890256
  @DF-RHF Final Energy:  -383.93546554267414
    Total Energy =                       -383.9354655426748195
  Basis Set: 6-31G*
  Basis Set:
  @DF-RHF Final Energy:  -383.93546512754131
    Total Energy =                       -383.9354651275415335
  Basis Set: 6-31G*
  Basis Set:
  Basis Set: 6-31G*
  Basis Set:
  @DF-RHF Final Energy:  -383.93546387221596
    Total Energy =                       -383.9354638722162463
  Basis Set: 6-31G*
  Basis Set:
  Basis Set: 6-31G*
  Basis Set:
  @DF-RHF Final Energy:  -383.93546507893075
    Total Energy =                       -383.9354650789312018
  Basis Set: 6-31G*
  Basis Set:
  Charge       = 0
  Multiplicity = 1
  Basis Set: 6-31G*
  Basis Set:

    Orbital Energies (a.u.)
    -----------------------

    Doubly Occupied:

       1A    -20.600470     2A    -20.544013     3A    -11.375606
       4A    -11.287174     5A    -11.232998     6A    -11.225151
       7A    -11.208110     8A    -11.205963     9A     -1.465276
      10A     -1.362725    11A     -1.078096    12A     -1.026654
      13A     -0.978533    14A     -0.891126    15A     -0.808701
      16A     -0.754009    17A     -0.692245    18A     -0.681857
      19A     -0.664531    20A     -0.621785    21A     -0.600989
      22A     -0.593189    23A     -0.567935    24A     -0.555561
      25A     -0.538193    26A     -0.524713    27A     -0.514556
      28A     -0.487114    29A     -0.467000    30A     -0.460029
      31A     -0.443962    32A     -0.433122

  @DF-RHF Final Energy:  -383.93546300277472

   => Energetics <=

    Nuclear Repulsion Energy =            393.0601529512752563
    One-Electron Energy =               -1302.2084610453034657
    Two-Electron Energy =                 525.2128450912533708
    DFT Exchange-Correlation Energy =       0.0000000000000000
    Empirical Dispersion Energy =           0.0000000000000000
    PCM Polarization Energy =               0.0000000000000000
    EFP Energy =                            0.0000000000000000
    Total Energy =                       -383.9354630027747817
    Molecular point group: c1
  Basis Set: 6-31G*
  Basis Set:

  -Total Gradient:
     Atom            X                  Y                   Z
    ------   -----------------  -----------------  -----------------
       1        0.000499809000    -0.000271023905    -0.000711479215
       2        0.003181192236     0.002337647089     0.005826511588
       3       -0.000703721447    -0.000311476766     0.000261939354
       4       -0.005863599072    -0.004905556005    -0.007752618178
       5        0.000229279719    -0.000033021152    -0.000035248235
       6       -0.000047697205     0.000432627874    -0.000180324667
       7       -0.000117390052     0.000135679838    -0.000023776387
       8        0.007337635066     0.007967354731     0.000959701661
       9       -0.000615923490    -0.000108093725     0.000442091572
      10       -0.004648536113    -0.005234724473     0.001770745391
      11        0.000092595759    -0.000001975113    -0.000220232127
      12        0.000038203623     0.000202426969    -0.000059099636
      13        0.000480398893     0.000009734448    -0.000144575064
      14       -0.000096953178    -0.000075203802    -0.000068562236
      15       -0.000028315122    -0.000160279797    -0.000653646023
      16        0.000035527621     0.000285339276     0.000085044316
      17        0.000072698672    -0.000126970346     0.000237536975
      18        0.000131282967     0.000029759702    -0.000088208181
      19        0.000046807030    -0.000112897182     0.000106524661
      20       -0.000023294903    -0.000059347662     0.000247674431

    Molecular point group: c1

    Geometry (in Angstrom), charge = 0, multiplicity = 1:

    O           -0.561334151138     1.088108648633    -1.066216457263
    C           -1.375370551734     0.792302517009    -0.252959972108
    C           -2.472545535558     1.703694340654     0.231184771579
    O           -1.456554971933    -0.395526668398     0.323443639855
    H           -2.351800923058     1.882027301031     1.293767697878
    H           -2.431553105410     2.639255217378    -0.306539873823
    H           -3.436276836568     1.231810613458     0.085690584112
    C           -0.430569169424    -1.377609954047     0.168706097540
    C            0.967819460058    -1.021458499875     0.675130175586
    H           -0.445057111572    -1.745968492496    -0.849639660544
    H           -0.809331476958    -2.182111613362     0.783626776454
    C            1.959293741348    -0.366970158552    -0.295068777810
    H            1.399366961699    -1.967195458614     0.998384691281
    H            0.866042408255    -0.422558630899     1.577249551144
    C            3.396023466023    -0.466536078282     0.218596046015
    H            1.888488976613    -0.853509507714    -1.264311465013
    H            1.700192350679     0.668028680168    -0.459343661341
    H            4.086837937596     0.020614104057    -0.462388407432
    H            3.711430683024    -1.501282770301     0.323992550900
    H            3.501710799665     0.009418007431     1.190262203135

  Mulliken Charges: (a.u.)
   Center  Symbol    Alpha    Beta     Spin     Total
       1     O     4.28249  4.28249  0.00000 -0.56499
       2     C     2.61894  2.61894  0.00000  0.76212
       3     C     3.28181  3.28181  0.00000 -0.56362
       4     O     4.31197  4.31197  0.00000 -0.62394
       5     H     0.40155  0.40155  0.00000  0.19689
       6     H     0.39759  0.39759  0.00000  0.20481
       7     H     0.39980  0.39980  0.00000  0.20041
       8     C     2.99569  2.99569  0.00000  0.00863
       9     C     3.17736  3.17736  0.00000 -0.35473
      10     H     0.41071  0.41071  0.00000  0.17859
      11     H     0.40920  0.40920  0.00000  0.18161
      12     C     3.14905  3.14905  0.00000 -0.29810
      13     H     0.41910  0.41910  0.00000  0.16180
      14     H     0.41458  0.41458  0.00000  0.17085
      15     C     3.24329  3.24329  0.00000 -0.48657
      16     H     0.42220  0.42220  0.00000  0.15559
      17     H     0.39937  0.39937  0.00000  0.20125
      18     H     0.41732  0.41732  0.00000  0.16535
      19     H     0.42465  0.42465  0.00000  0.15071
      20     H     0.42334  0.42334  0.00000  0.15332

   Total alpha = 32.00000, Total beta = 32.00000, Total charge =  0.00000
