  ==> Input File <==

--------------------------------------------------------------------------
set {
	reference rhf
	basis 6-31G*
}

set_num_threads( 4 )
memory 2 gb

molecule MOL {
0 1

H	 -3.001339	 0.326516	 2.019600
O	 -2.148347	 0.603182	 1.716885
C	 -2.026376	 0.340750	 0.341611
C	 -0.673256	 0.843270	 -0.132153
H	 -2.108411	 -0.727790	 0.150745
H	 -2.822116	 0.835554	 -0.213925
C	 0.486613	 -0.083066	 0.235839
H	 -0.715586	 0.970948	 -1.210718
H	 -0.508072	 1.829858	 0.297090
C	 1.840406	 0.433480	 -0.254303
H	 0.300215	 -1.068318	 -0.178947
H	 0.519509	 -0.203625	 1.318070
C	 3.000220	 -0.489290	 0.118523
H	 1.809207	 0.553576	 -1.335192
H	 2.021860	 1.424500	 0.157276
H	 2.864959	 -1.479103	 -0.307933
H	 3.946603	 -0.099227	 -0.243630
H	 3.080049	 -0.602997	 1.196117

	symmetry c1
}
set optking {
	frozen_dihedral = ("
		2 3 4 8
	")
}

ee = optimize('scf')
oeprop('DIPOLE', 'QUADRUPOLE', 'MULLIKEN_CHARGES')
f=open( 'psi4out.xyz', 'w' )
f.write( "18  " )
f.write( str(ee) + "\n" )
f.write( MOL.save_string_xyz() )
f.close()
--------------------------------------------------------------------------

    Molecular point group: c1
  Charge       = 0
  Multiplicity = 1
  Basis Set: 6-31G*
  Basis Set:
  @DF-RHF Final Energy:  -271.17882116710064
    Total Energy =                       -271.1788211671004660
    Molecular point group: c1
  Basis Set: 6-31G*
  Basis Set:
  Basis Set: 6-31G*
  Basis Set:
  @DF-RHF Final Energy:  -271.17908058544197
    Total Energy =                       -271.1790805854418522
  Basis Set: 6-31G*
  Basis Set:
  Basis Set: 6-31G*
  Basis Set:
  @DF-RHF Final Energy:  -271.17911588817844
    Total Energy =                       -271.1791158881785577
  Basis Set: 6-31G*
  Basis Set:
  Basis Set: 6-31G*
  Basis Set:
  @DF-RHF Final Energy:  -271.17912158778722
    Total Energy =                       -271.1791215877874492
  Basis Set: 6-31G*
  Basis Set:
  Basis Set: 6-31G*
  Basis Set:
  @DF-RHF Final Energy:  -271.17912575888897
    Total Energy =                       -271.1791257588889721
  Basis Set: 6-31G*
  Basis Set:
  Charge       = 0
  Multiplicity = 1
  Basis Set: 6-31G*
  Basis Set:

    Orbital Energies (a.u.)
    -----------------------

    Doubly Occupied:

       1A    -20.552665     2A    -11.267778     3A    -11.211559
       4A    -11.211443     5A    -11.208426     6A    -11.205333
       7A     -1.359054     8A     -1.075581     9A     -1.008843
      10A     -0.913219    11A     -0.818333    12A     -0.785676
      13A     -0.705115    14A     -0.636471    15A     -0.630187
      16A     -0.578336    17A     -0.570764    18A     -0.559283
      19A     -0.523758    20A     -0.499114    21A     -0.487910
      22A     -0.468854    23A     -0.459666    24A     -0.450635
      25A     -0.427134

  @DF-RHF Final Energy:  -271.17912610858252

   => Energetics <=

    Nuclear Repulsion Energy =            248.3966970002602181
    One-Electron Energy =                -859.9213683228465470
    Two-Electron Energy =                 340.3455452140035504
    DFT Exchange-Correlation Energy =       0.0000000000000000
    Empirical Dispersion Energy =           0.0000000000000000
    PCM Polarization Energy =               0.0000000000000000
    EFP Energy =                            0.0000000000000000
    Total Energy =                       -271.1791261085827500
    Molecular point group: c1
  Basis Set: 6-31G*
  Basis Set:

  -Total Gradient:
     Atom            X                  Y                   Z
    ------   -----------------  -----------------  -----------------
       1        0.000000855978     0.000009046965     0.000009382532
       2       -0.001051626199     0.002289835237    -0.000534487387
       3        0.001109819851    -0.002248042036     0.000783919114
       4        0.000855817521    -0.003197515260    -0.000695313175
       5       -0.000000638134     0.000007119183    -0.000023145363
       6       -0.000013889476     0.000007366126     0.000041720975
       7        0.000002443629     0.000015320332     0.000002016922
       8       -0.000936155559     0.003126147300     0.000379898825
       9        0.000013208946    -0.000006572979     0.000015208518
      10       -0.000004634340    -0.000032214004    -0.000035228846
      11        0.000004983268     0.000054817062     0.000005641046
      12        0.000015414965    -0.000025843582     0.000039946545
      13        0.000008118611     0.000008165089     0.000013872478
      14       -0.000001881581     0.000000604613    -0.000005714415
      15       -0.000006427473    -0.000007650103    -0.000002101251
      16        0.000001346423     0.000006219456    -0.000005606820
      17        0.000004034873     0.000002756980     0.000008513948
      18       -0.000000791304    -0.000009560377     0.000001476353

  **** Optimization is complete! (in 6 steps) ****
    Final optimized geometry and variables:
    Molecular point group: c1

    Geometry (in Angstrom), charge = 0, multiplicity = 1:

    H           -2.937764398231     0.008175755392     1.708868802068
    O           -2.136203338119     0.361344396411     1.350080362420
    C           -2.065978428121     0.075592946875    -0.025079614655
    C           -0.715841538288     0.546961121734    -0.542957393739
    H           -2.191574022737    -0.990823709120    -0.206199418776
    H           -2.864418831686     0.593601946462    -0.553180281786
    C            0.444844523922    -0.369175002717    -0.156892459525
    H           -0.772991535159     0.665963530267    -1.623043741129
    H           -0.547118617566     1.542500694455    -0.140533722575
    C            1.805283400218     0.160452181380    -0.612671346131
    H            0.282433622784    -1.356572165418    -0.587212285185
    H            0.447544840564    -0.498201610437     0.921907504409
    C            2.962503533835    -0.761968788026    -0.231138240770
    H            1.796300968392     0.300341166755    -1.691938284790
    H            1.970621326964     1.144254876155    -0.179054935720
    H            2.845659594283    -1.744315865979    -0.680379518036
    H            3.914232359591    -0.358145778310    -0.562712945319
    H            3.016915880887    -0.896362576330     0.845430921212

  Mulliken Charges: (a.u.)
   Center  Symbol    Alpha    Beta     Spin     Total
       1     H     0.28091  0.28091  0.00000  0.43819
       2     O     4.37010  4.37010  0.00000 -0.74021
       3     C     2.99772  2.99772  0.00000  0.00456
       4     C     3.16062  3.16062  0.00000 -0.32124
       5     H     0.43231  0.43231  0.00000  0.13538
       6     H     0.42932  0.42932  0.00000  0.14135
       7     C     3.15411  3.15411  0.00000 -0.30821
       8     H     0.42348  0.42348  0.00000  0.15304
       9     H     0.41210  0.41210  0.00000  0.17579
      10     C     3.15188  3.15188  0.00000 -0.30377
      11     H     0.42723  0.42723  0.00000  0.14554
      12     H     0.41098  0.41098  0.00000  0.17803
      13     C     3.23911  3.23911  0.00000 -0.47822
      14     H     0.42481  0.42481  0.00000  0.15039
      15     H     0.42165  0.42165  0.00000  0.15670
      16     H     0.42271  0.42271  0.00000  0.15457
      17     H     0.42002  0.42002  0.00000  0.15997
      18     H     0.42094  0.42094  0.00000  0.15812

   Total alpha = 25.00000, Total beta = 25.00000, Total charge = -0.00000
