  ==> Input File <==

--------------------------------------------------------------------------
set {
	reference rhf
	basis 6-31G*
}

set_num_threads( 4 )
memory 2 gb

molecule MOL {
0 1

H	 -3.261111	 -0.295142	 1.469456
C	 -3.306842	 -0.277400	 0.373456
C	 -2.660244	 0.921717	 -0.272021
O	 -3.838538	 -1.161155	 -0.216482
C	 -2.142543	 1.936395	 0.756895
H	 -1.866445	 0.573514	 -0.922672
H	 -3.417506	 1.397244	 -0.894182
C	 -0.974854	 1.412414	 1.596683
H	 -1.833344	 2.833822	 0.229347
H	 -2.959696	 2.236442	 1.411103
C	 -0.461876	 2.437912	 2.609610
H	 -0.163285	 1.119142	 0.933965
H	 -1.275129	 0.508194	 2.122764
C	 0.716241	 1.916350	 3.436631
H	 -0.173321	 3.342189	 2.079750
H	 -1.273334	 2.720526	 3.278975
C	 1.211529	 2.878966	 4.522048
H	 1.542335	 1.670169	 2.771306
H	 0.421591	 0.982970	 3.911706
C	 1.834440	 4.170681	 3.990000
H	 1.949978	 2.360913	 5.128894
H	 0.388075	 3.123028	 5.190089
H	 2.651287	 3.956921	 3.305649
H	 1.111497	 4.782951	 3.461368
H	 2.233781	 4.768961	 4.803377

	symmetry c1
}
set optking {
	frozen_dihedral = ("
		6 3 2 4
	")
}

ee = optimize('scf')
oeprop('DIPOLE', 'QUADRUPOLE', 'MULLIKEN_CHARGES')
f=open( 'psi4out.xyz', 'w' )
f.write( "25  " )
f.write( str(ee) + "\n" )
f.write( MOL.save_string_xyz() )
f.close()
--------------------------------------------------------------------------

    Molecular point group: c1
  Charge       = 0
  Multiplicity = 1
  Basis Set: 6-31G*
  Basis Set:
  @DF-RHF Final Energy:  -387.11947335102042
    Total Energy =                       -387.1194733510199057
    Molecular point group: c1
  Basis Set: 6-31G*
  Basis Set:
  Basis Set: 6-31G*
  Basis Set:
  @DF-RHF Final Energy:  -387.11948536084378
    Total Energy =                       -387.1194853608442372
  Basis Set: 6-31G*
  Basis Set:
  Basis Set: 6-31G*
  Basis Set:
  @DF-RHF Final Energy:  -387.12014345866993
    Total Energy =                       -387.1201434586700998
  Basis Set: 6-31G*
  Basis Set:
  Basis Set: 6-31G*
  Basis Set:
  @DF-RHF Final Energy:  -387.12029265641576
    Total Energy =                       -387.1202926564154723
  Basis Set: 6-31G*
  Basis Set:
  Basis Set: 6-31G*
  Basis Set:
  @DF-RHF Final Energy:  -387.12031022238364
    Total Energy =                       -387.1203102223831820
  Basis Set: 6-31G*
  Basis Set:
  Basis Set: 6-31G*
  Basis Set:
  @DF-RHF Final Energy:  -387.12031574603424
    Total Energy =                       -387.1203157460342936
  Basis Set: 6-31G*
  Basis Set:
  Basis Set: 6-31G*
  Basis Set:
  @DF-RHF Final Energy:  -387.12031691461698
    Total Energy =                       -387.1203169146168648
  Basis Set: 6-31G*
  Basis Set:
  Charge       = 0
  Multiplicity = 1
  Basis Set: 6-31G*
  Basis Set:

    Orbital Energies (a.u.)
    -----------------------

    Doubly Occupied:

       1A    -20.560532     2A    -11.327075     3A    -11.235021
       4A    -11.233137     5A    -11.227505     6A    -11.222075
       7A    -11.220053     8A    -11.219409     9A    -11.212244
      10A     -1.401689    11A     -1.105486    12A     -1.070715
      13A     -1.014033    14A     -0.942783    15A     -0.875561
      16A     -0.823654    17A     -0.790304    18A     -0.784022
      19A     -0.664040    20A     -0.658173    21A     -0.633883
      22A     -0.626200    23A     -0.611766    24A     -0.596980
      25A     -0.567944    26A     -0.554171    27A     -0.542661
      28A     -0.523536    29A     -0.505604    30A     -0.502344
      31A     -0.487564    32A     -0.480303    33A     -0.466927
      34A     -0.461275    35A     -0.444032    36A     -0.408512

  @DF-RHF Final Energy:  -387.12031769340132

   => Energetics <=

    Nuclear Repulsion Energy =            435.8335117052920964
    One-Electron Energy =               -1387.9052364842243605
    Two-Electron Energy =                 564.9514070855314003
    DFT Exchange-Correlation Energy =       0.0000000000000000
    Empirical Dispersion Energy =           0.0000000000000000
    PCM Polarization Energy =               0.0000000000000000
    EFP Energy =                            0.0000000000000000
    Total Energy =                       -387.1203176934009207
    Molecular point group: c1
  Basis Set: 6-31G*
  Basis Set:

  -Total Gradient:
     Atom            X                  Y                   Z
    ------   -----------------  -----------------  -----------------
       1        0.000000524627    -0.000004862910     0.000003106969
       2        0.000925811112    -0.000563869893     0.000169595042
       3       -0.000806748425     0.000177421555    -0.000698026795
       4       -0.000601335997     0.000404265972    -0.000030603510
       5        0.000048052627     0.000000316869    -0.000031129156
       6        0.000416230105    -0.000003638119     0.000587520584
       7        0.000048852832    -0.000012543347    -0.000032074247
       8        0.000001672804     0.000016180017    -0.000020362445
       9       -0.000044001575     0.000034284210     0.000017048812
      10        0.000016951224    -0.000048508459     0.000031806006
      11        0.000001585891     0.000003627484    -0.000001854724
      12       -0.000012131865    -0.000000435642    -0.000011644986
      13       -0.000000438158    -0.000006157789     0.000012036436
      14       -0.000005058697    -0.000000201657     0.000003861239
      15        0.000006432380    -0.000002411118     0.000001802195
      16       -0.000000557605     0.000004723852    -0.000004379469
      17        0.000003921624    -0.000000216642     0.000000737387
      18        0.000000069921    -0.000001600236    -0.000000353194
      19       -0.000000849731     0.000001654939     0.000001151168
      20        0.000001235354     0.000000472712     0.000000504663
      21        0.000000094225     0.000001785471     0.000001696337
      22       -0.000000558393    -0.000000223613    -0.000000488532
      23       -0.000000185610     0.000000407832     0.000000115104
      24        0.000000355824     0.000000173406     0.000001079748
      25        0.000000075515    -0.000000644890    -0.000001144627

  **** Optimization is complete! (in 8 steps) ****
    Final optimized geometry and variables:
    Molecular point group: c1

    Geometry (in Angstrom), charge = 0, multiplicity = 1:

    H           -2.408464056381    -1.857248893235    -0.405584945197
    C           -2.335879274063    -1.844170396639    -1.499119962826
    C           -1.572220640228    -0.689575987179    -2.113331574059
    O           -2.859203835242    -2.697067222958    -2.139625166427
    C           -1.049399718666     0.329157642369    -1.097799766405
    H           -0.752978632804    -1.109737280334    -2.691435279983
    H           -2.240444250778    -0.219166085578    -2.828917682735
    C            0.135043530817    -0.179538679508    -0.271006687513
    H           -0.750904812570     1.229189746719    -1.627673054307
    H           -1.859214867900     0.626486040997    -0.433242220398
    C            0.635243340281     0.843152238579     0.751112186249
    H            0.947927399878    -0.444519609113    -0.944736070855
    H           -0.138070462984    -1.097192462666     0.247385695796
    C            1.831245104072     0.337355273874     1.562114688103
    H            0.898683885531     1.760345346656     0.230711501481
    H           -0.176612844397     1.098698579606     1.430393282270
    C            2.310621257030     1.294321796905     2.659600087969
    H            2.658685605292     0.122822435366     0.887621880267
    H            1.563265249723    -0.610681909630     2.024031127247
    C            2.895230317683     2.610757032138     2.144371020045
    H            3.066752243893     0.785574387841     3.252269884739
    H            1.486161225532     1.505544603084     3.337577469803
    H            3.714330143015     2.430024254634     1.453409721055
    H            2.153323070976     3.211289842967     1.628528816847
    H            3.282121275107     3.207176481597     2.964792394721

  Mulliken Charges: (a.u.)
   Center  Symbol    Alpha    Beta     Spin     Total
       1     H     0.42872  0.42872  0.00000  0.14257
       2     C     2.83617  2.83617  0.00000  0.32767
       3     C     3.20715  3.20715  0.00000 -0.41430
       4     O     4.24128  4.24128  0.00000 -0.48256
       5     C     3.16768  3.16768  0.00000 -0.33536
       6     H     0.39948  0.39948  0.00000  0.20103
       7     H     0.39661  0.39661  0.00000  0.20679
       8     C     3.15551  3.15551  0.00000 -0.31103
       9     H     0.41320  0.41320  0.00000  0.17361
      10     H     0.41916  0.41916  0.00000  0.16168
      11     C     3.15379  3.15379  0.00000 -0.30758
      12     H     0.41978  0.41978  0.00000  0.16044
      13     H     0.42271  0.42271  0.00000  0.15457
      14     C     3.15305  3.15305  0.00000 -0.30610
      15     H     0.42007  0.42007  0.00000  0.15987
      16     H     0.42304  0.42304  0.00000  0.15392
      17     C     3.15279  3.15279  0.00000 -0.30557
      18     H     0.42329  0.42329  0.00000  0.15341
      19     H     0.42162  0.42162  0.00000  0.15676
      20     C     3.24149  3.24149  0.00000 -0.48298
      21     H     0.41990  0.41990  0.00000  0.16021
      22     H     0.42294  0.42294  0.00000  0.15412
      23     H     0.42190  0.42190  0.00000  0.15621
      24     H     0.42036  0.42036  0.00000  0.15927
      25     H     0.41831  0.41831  0.00000  0.16338

   Total alpha = 36.00000, Total beta = 36.00000, Total charge = -0.00000
