  ==> Input File <==

--------------------------------------------------------------------------
set {
	reference rhf
	basis cc-pvtz
}

set_num_threads( 4 )
memory 2 gb

molecule MOL {
0 1

H	 -3.941973	 0.934228	 -0.390224
C	 -3.240162	 0.342701	 0.161016
C	 -2.105997	 -0.000418	 -0.398703
H	 -3.485368	 0.047206	 1.162193
O	 -1.189946	 -0.765863	 0.237511
H	 -1.846458	 0.297311	 -1.398265
C	 0.026572	 -0.995256	 -0.379403
C	 1.057223	 0.049888	 -0.004615
H	 -0.054361	 -1.010670	 -1.459674
H	 0.397526	 -1.952058	 -0.044198
F	 0.455891	 1.074112	 0.566739
F	 1.944182	 -0.418444	 0.847134
F	 1.708023	 0.497691	 -1.050745

	symmetry c1
}
set optking {
	frozen_dihedral = ("
		11 8 7 9
	")
}

ee = optimize('scf')
oeprop('DIPOLE', 'QUADRUPOLE', 'MULLIKEN_CHARGES')
f=open( 'psi4out.xyz', 'w' )
f.write( "13  " )
f.write( str(ee) + "\n" )
f.write( MOL.save_string_xyz() )
f.close()
--------------------------------------------------------------------------

    Molecular point group: c1
  Charge       = 0
  Multiplicity = 1
  Basis Set: CC-PVTZ
  Basis Set:
  @DF-RHF Final Energy:  -527.73478298162934
    Total Energy =                       -527.7347829816292233
    Molecular point group: c1
  Basis Set: CC-PVTZ
  Basis Set:
  Basis Set: CC-PVTZ
  Basis Set:
  @DF-RHF Final Energy:  -527.73586480789390
    Total Energy =                       -527.7358648078939041
  Basis Set: CC-PVTZ
  Basis Set:
  Basis Set: CC-PVTZ
  Basis Set:
  @DF-RHF Final Energy:  -527.73612189089999
    Total Energy =                       -527.7361218909006766
  Basis Set: CC-PVTZ
  Basis Set:
  Basis Set: CC-PVTZ
  Basis Set:
  @DF-RHF Final Energy:  -527.73614890341696
    Total Energy =                       -527.7361489034174156
  Basis Set: CC-PVTZ
  Basis Set:
  Basis Set: CC-PVTZ
  Basis Set:
  @DF-RHF Final Energy:  -527.73615216093276
    Total Energy =                       -527.7361521609328747
  Basis Set: CC-PVTZ
  Basis Set:
  Basis Set: CC-PVTZ
  Basis Set:
  @DF-RHF Final Energy:  -527.73615360387362
    Total Energy =                       -527.7361536038736176
  Basis Set: CC-PVTZ
  Basis Set:
  Basis Set: CC-PVTZ
  Basis Set:
  @DF-RHF Final Energy:  -527.73615497267326
    Total Energy =                       -527.7361549726733756
  Basis Set: CC-PVTZ
  Basis Set:
  Charge       = 0
  Multiplicity = 1
  Basis Set: CC-PVTZ
  Basis Set:

    Orbital Energies (a.u.)
    -----------------------

    Doubly Occupied:

       1A    -26.341042     2A    -26.340592     3A    -26.337220
       4A    -20.603619     5A    -11.499608     6A    -11.319720
       7A    -11.298616     8A    -11.214444     9A     -1.750683
      10A     -1.647506    11A     -1.643721    12A     -1.444551
      13A     -1.084632    14A     -1.019275    15A     -0.932604
      16A     -0.844013    17A     -0.838073    18A     -0.828155
      19A     -0.795892    20A     -0.732349    21A     -0.722599
      22A     -0.702444    23A     -0.679942    24A     -0.668800
      25A     -0.661536    26A     -0.649889    27A     -0.634566
      28A     -0.587475    29A     -0.565014    30A     -0.529513
      31A     -0.516117    32A     -0.357147

  @DF-RHF Final Energy:  -527.73615448262194

   => Energetics <=

    Nuclear Repulsion Energy =            412.7004411975351559
    One-Electron Energy =               -1549.2904811085888923
    Two-Electron Energy =                 608.8538854284319086
    DFT Exchange-Correlation Energy =       0.0000000000000000
    Empirical Dispersion Energy =           0.0000000000000000
    PCM Polarization Energy =               0.0000000000000000
    EFP Energy =                            0.0000000000000000
    Total Energy =                       -527.7361544826218278
    Molecular point group: c1
  Basis Set: CC-PVTZ
  Basis Set:

  -Total Gradient:
     Atom            X                  Y                   Z
    ------   -----------------  -----------------  -----------------
       1       -0.000000078351    -0.000002896804     0.000001791927
       2       -0.000001999319    -0.000003381965    -0.000006119751
       3       -0.000001513001     0.000028897796    -0.000000757973
       4        0.000001510113    -0.000005552412     0.000000681064
       5       -0.000067566502     0.000109696901    -0.000219075472
       6       -0.000004432495    -0.000005136923    -0.000000580334
       7       -0.002173053213     0.001894709307     0.001052063047
       8       -0.000103468767     0.001076555117    -0.003218245799
       9        0.001974191429    -0.002028355096    -0.000035357871
      10        0.000001105586    -0.000033817271     0.000012255958
      11        0.000325338920    -0.000973837278     0.002580747992
      12       -0.000043706950     0.000021151089    -0.000050987032
      13        0.000093672543    -0.000078032461    -0.000116415755

  **** Optimization is complete! (in 8 steps) ****
    Final optimized geometry and variables:
    Molecular point group: c1

    Geometry (in Angstrom), charge = 0, multiplicity = 1:

    H           -3.938005646651     0.949117427616    -0.370834807470
    C           -3.270781577979     0.298201788004     0.155873502338
    C           -2.092716243370     0.032562092701    -0.352813343371
    H           -3.584829743788    -0.117193676367     1.093277631200
    O           -1.210705635844    -0.790441387671     0.258550326205
    H           -1.766455626967     0.449375538558    -1.288761738102
    C            0.008503234515    -1.009718000930    -0.351799821978
    C            1.061201316553     0.058309737099    -0.018026181536
    H           -0.072511900363    -1.076965892932    -1.429281446444
    H            0.385336870477    -1.952246973487     0.012600655202
    F            0.534850194749     1.136713825151     0.506172743907
    F            1.948994289525    -0.400508779193     0.840689588983
    F            1.723738582450     0.414016154415    -1.101356622280

  Mulliken Charges: (a.u.)
   Center  Symbol    Alpha    Beta     Spin     Total
       1     H     0.42542  0.42542  0.00000  0.14915
       2     C     3.19630  3.19630  0.00000 -0.39260
       3     C     2.95665  2.95665  0.00000  0.08670
       4     H     0.42502  0.42502  0.00000  0.14996
       5     O     4.13959  4.13959  0.00000 -0.27918
       6     H     0.43478  0.43478  0.00000  0.13045
       7     C     3.03483  3.03483  0.00000 -0.06965
       8     C     2.67138  2.67138  0.00000  0.65723
       9     H     0.45483  0.45483  0.00000  0.09035
      10     H     0.43561  0.43561  0.00000  0.12877
      11     F     4.60314  4.60314  0.00000 -0.20628
      12     F     4.61036  4.61036  0.00000 -0.22071
      13     F     4.61209  4.61209  0.00000 -0.22419

   Total alpha = 32.00000, Total beta = 32.00000, Total charge = -0.00000
