  ==> Input File <==

--------------------------------------------------------------------------
set {
	reference rhf
	basis 6-31G*
}

set_num_threads( 4 )
memory 2 gb

molecule MOL {
0 1

H	 -1.560487	 2.370119	 -0.042958
C	 -1.397554	 1.943492	 0.939279
C	 -0.078894	 1.181204	 0.992281
H	 -2.233490	 1.288989	 1.154034
H	 -1.397397	 2.748687	 1.666560
C	 -0.000005	 0.033229	 -0.000001
H	 0.092855	 0.775959	 1.987608
H	 0.760007	 1.847626	 0.801171
C	 1.290528	 -0.768786	 0.000276
O	 -0.901201	 -0.224152	 -0.738098
C	 2.545731	 0.095645	 -0.000061
H	 1.275672	 -1.427874	 -0.865626
H	 1.275566	 -1.427086	 0.866768
H	 2.577157	 0.734767	 -0.874036
H	 3.433520	 -0.528139	 0.000137
H	 2.577172	 0.735117	 0.873581

	symmetry c1
}
set optking {
	frozen_dihedral = ("
		3 6 9 12
	")
}

ee = optimize('scf')
oeprop('DIPOLE', 'QUADRUPOLE', 'MULLIKEN_CHARGES')
f=open( 'psi4out.xyz', 'w' )
f.write( "16  " )
f.write( str(ee) + "\n" )
f.write( MOL.save_string_xyz() )
f.close()
--------------------------------------------------------------------------

    Molecular point group: c1
  Charge       = 0
  Multiplicity = 1
  Basis Set: 6-31G*
  Basis Set:
  @DF-RHF Final Energy:  -270.02899672040428
    Total Energy =                       -270.0289967204043364
    Molecular point group: c1
  Basis Set: 6-31G*
  Basis Set:
  Basis Set: 6-31G*
  Basis Set:
  @DF-RHF Final Energy:  -270.02945184324176
    Total Energy =                       -270.0294518432419864
  Basis Set: 6-31G*
  Basis Set:
  Basis Set: 6-31G*
  Basis Set:
  @DF-RHF Final Energy:  -270.03021420968167
    Total Energy =                       -270.0302142096816169
  Basis Set: 6-31G*
  Basis Set:
  Basis Set: 6-31G*
  Basis Set:
  @DF-RHF Final Energy:  -270.03002939055983
    Total Energy =                       -270.0300293905597755
  Basis Set: 6-31G*
  Basis Set:
  Basis Set: 6-31G*
  Basis Set:
  @DF-RHF Final Energy:  -270.03039720266725
    Total Energy =                       -270.0303972026672454
  Basis Set: 6-31G*
  Basis Set:
  Basis Set: 6-31G*
  Basis Set:
  @DF-RHF Final Energy:  -270.03043255579132
    Total Energy =                       -270.0304325557913216
  Basis Set: 6-31G*
  Basis Set:
  Charge       = 0
  Multiplicity = 1
  Basis Set: 6-31G*
  Basis Set:

    Orbital Energies (a.u.)
    -----------------------

    Doubly Occupied:

       1A    -20.548872     2A    -11.322971     3A    -11.233557
       4A    -11.232993     5A    -11.229306     6A    -11.213169
       7A     -1.394316     8A     -1.073160     9A     -1.035007
      10A     -0.908465    11A     -0.864199    12A     -0.723628
      13A     -0.660225    14A     -0.640656    15A     -0.631242
      16A     -0.608447    17A     -0.555894    18A     -0.543596
      19A     -0.534023    20A     -0.510556    21A     -0.505670
      22A     -0.496449    23A     -0.478847    24A     -0.396626

  @DF-RHF Final Energy:  -270.03043318466064

   => Energetics <=

    Nuclear Repulsion Energy =            240.5189857528087316
    One-Electron Energy =                -842.4150918458904016
    Two-Electron Energy =                 331.8656729084208905
    DFT Exchange-Correlation Energy =       0.0000000000000000
    Empirical Dispersion Energy =           0.0000000000000000
    PCM Polarization Energy =               0.0000000000000000
    EFP Energy =                            0.0000000000000000
    Total Energy =                       -270.0304331846608079
    Molecular point group: c1
  Basis Set: 6-31G*
  Basis Set:

  -Total Gradient:
     Atom            X                  Y                   Z
    ------   -----------------  -----------------  -----------------
       1       -0.000001519226     0.000003908237    -0.000004896661
       2        0.000003376863    -0.000016932021     0.000019153087
       3        0.000231146832     0.000349829759    -0.000414947547
       4        0.000001918793     0.000003289070    -0.000004530286
       5        0.000001168967     0.000000654566    -0.000004019887
       6       -0.000286417401    -0.000359709592     0.000471713817
       7        0.000000472949    -0.000014782730     0.000001037195
       8        0.000013164510    -0.000000657654     0.000007250557
       9       -0.000251663369    -0.000363337894     0.000317742736
      10       -0.000032072108    -0.000009541239     0.000003463518
      11       -0.000028728511    -0.000039702553    -0.000002575768
      12        0.000365720080     0.000476975200    -0.000384155356
      13        0.000013121516    -0.000006713748    -0.000017812521
      14       -0.000029623129    -0.000003355459     0.000018416693
      15        0.000014679329    -0.000015524345    -0.000003689237
      16       -0.000014746095    -0.000004399595    -0.000002150339

  **** Optimization is complete! (in 7 steps) ****
    Final optimized geometry and variables:
    Molecular point group: c1

    Geometry (in Angstrom), charge = 0, multiplicity = 1:

    H           -1.999336702576     1.864003947766    -0.171909168807
    C           -1.712045225673     1.486985248978     0.801322967116
    C           -0.325508337737     0.855382267597     0.753204126010
    H           -2.459428382138     0.763644456196     1.105628934173
    H           -1.727031180193     2.310611943853     1.507555492361
    C           -0.224541485672    -0.300397320539    -0.227710374153
    H           -0.024318288429     0.501239656642     1.737094421538
    H            0.418006262862     1.597282480267     0.469761387626
    C            1.027041567129    -1.163071892975    -0.185820299496
    O           -1.103447798470    -0.542128443650    -0.998337462873
    C            2.350459798983    -0.392743438357    -0.137325797512
    H            0.994081497269    -1.803564028960    -1.058232877321
    H            0.949281164594    -1.804132826264     0.690767116510
    H            2.443498664742     0.284630920709    -0.980596259652
    H            3.183650861080    -1.085452202954    -0.179368506907
    H            2.453161487250     0.187144778627     0.773105321336

  Mulliken Charges: (a.u.)
   Center  Symbol    Alpha    Beta     Spin     Total
       1     H     0.40799  0.40799  0.00000  0.18402
       2     C     3.23460  3.23460  0.00000 -0.46921
       3     C     3.21062  3.21062  0.00000 -0.42123
       4     H     0.41292  0.41292  0.00000  0.17417
       5     H     0.42034  0.42034  0.00000  0.15932
       6     C     2.73159  2.73159  0.00000  0.53682
       7     H     0.41143  0.41143  0.00000  0.17713
       8     H     0.40513  0.40513  0.00000  0.18973
       9     C     3.20228  3.20228  0.00000 -0.40455
      10     O     4.26446  4.26446  0.00000 -0.52893
      11     C     3.25099  3.25099  0.00000 -0.50199
      12     H     0.39824  0.39824  0.00000  0.20352
      13     H     0.40853  0.40853  0.00000  0.18293
      14     H     0.41376  0.41376  0.00000  0.17247
      15     H     0.41072  0.41072  0.00000  0.17856
      16     H     0.41639  0.41639  0.00000  0.16722

   Total alpha = 24.00000, Total beta = 24.00000, Total charge =  0.00000
