  ==> Input File <==

--------------------------------------------------------------------------
set {
	reference rhf
	basis cc-pvtz
}

set_num_threads( 4 )
memory 2 gb

molecule MOL {
0 1

H	 -1.752232	 -2.214755	 -0.011938
C	 -1.343852	 -1.221619	 -0.018179
N	 -0.058800	 -1.097635	 -0.261688
C	 -2.148159	 -0.124236	 0.219734
C	 0.449026	 0.119242	 -0.273393
H	 -3.196988	 -0.237571	 0.417076
N	 -1.655094	 1.094230	 0.209506
C	 -0.370318	 1.215445	 -0.035100
C	 1.924033	 0.265863	 -0.538106
H	 0.033214	 2.210441	 -0.046812
C	 2.666741	 -1.070437	 -0.491889
H	 2.048607	 0.712988	 -1.517046
H	 2.352610	 0.950004	 0.184727
H	 3.716387	 -0.928978	 -0.720292
H	 2.251642	 -1.762096	 -1.213193
H	 2.594743	 -1.523177	 0.490654

	symmetry c1
}
set optking {
	frozen_dihedral = ("
		12 9 5 3
	")
}

ee = optimize('scf')
oeprop('DIPOLE', 'QUADRUPOLE', 'MULLIKEN_CHARGES')
f=open( 'psi4out.xyz', 'w' )
f.write( "16  " )
f.write( str(ee) + "\n" )
f.write( MOL.save_string_xyz() )
f.close()
--------------------------------------------------------------------------

    Molecular point group: c1
  Charge       = 0
  Multiplicity = 1
  Basis Set: CC-PVTZ
  Basis Set:
  @DF-RHF Final Energy:  -340.87012214465500
    Total Energy =                       -340.8701221446551699
    Molecular point group: c1
  Basis Set: CC-PVTZ
  Basis Set:
  Basis Set: CC-PVTZ
  Basis Set:
  @DF-RHF Final Energy:  -340.87079807119875
    Total Energy =                       -340.8707980711990331
  Basis Set: CC-PVTZ
  Basis Set:
  Basis Set: CC-PVTZ
  Basis Set:
  @DF-RHF Final Energy:  -340.87098550410030
    Total Energy =                       -340.8709855041006449
  Basis Set: CC-PVTZ
  Basis Set:
  Basis Set: CC-PVTZ
  Basis Set:
  @DF-RHF Final Energy:  -340.87101808198304
    Total Energy =                       -340.8710180819829247
  Basis Set: CC-PVTZ
  Basis Set:
  Basis Set: CC-PVTZ
  Basis Set:
  @DF-RHF Final Energy:  -340.87103585428969
    Total Energy =                       -340.8710358542899712
  Basis Set: CC-PVTZ
  Basis Set:
  Basis Set: CC-PVTZ
  Basis Set:
  @DF-RHF Final Energy:  -340.87103780226204
    Total Energy =                       -340.8710378022623786
  Basis Set: CC-PVTZ
  Basis Set:
  Basis Set: CC-PVTZ
  Basis Set:
  @DF-RHF Final Energy:  -340.87103950426695
    Total Energy =                       -340.8710395042670029
  Basis Set: CC-PVTZ
  Basis Set:
  Charge       = 0
  Multiplicity = 1
  Basis Set: CC-PVTZ
  Basis Set:

    Orbital Energies (a.u.)
    -----------------------

    Doubly Occupied:

       1A    -15.580317     2A    -15.574936     3A    -11.280537
       4A    -11.270595     5A    -11.269304     6A    -11.265935
       7A    -11.233635     8A    -11.211102     9A     -1.315777
      10A     -1.223888    11A     -1.084786    12A     -1.015221
      13A     -0.912275    14A     -0.890461    15A     -0.825173
      16A     -0.720521    17A     -0.708183    18A     -0.658115
      19A     -0.629751    20A     -0.604289    21A     -0.569852
      22A     -0.560712    23A     -0.523349    24A     -0.504279
      25A     -0.501849    26A     -0.487484    27A     -0.434940
      28A     -0.397221    29A     -0.345561

  @DF-RHF Final Energy:  -340.87103960528214

   => Energetics <=

    Nuclear Repulsion Energy =            350.4092681917068148
    One-Electron Energy =               -1155.3605211941942343
    Two-Electron Energy =                 464.0802133972049432
    DFT Exchange-Correlation Energy =       0.0000000000000000
    Empirical Dispersion Energy =           0.0000000000000000
    PCM Polarization Energy =               0.0000000000000000
    EFP Energy =                            0.0000000000000000
    Total Energy =                       -340.8710396052824763
    Molecular point group: c1
  Basis Set: CC-PVTZ
  Basis Set:

  -Total Gradient:
     Atom            X                  Y                   Z
    ------   -----------------  -----------------  -----------------
       1        0.000002079355     0.000001599726    -0.000013186900
       2        0.000001236815     0.000006343388     0.000020451625
       3        0.000031038251    -0.000020197371     0.000172463204
       4        0.000002109183    -0.000009959171     0.000030017738
       5       -0.000051616666     0.000061541471    -0.000209917053
       6       -0.000006004760     0.000002744676    -0.000017795864
       7        0.000013771991    -0.000001351764     0.000005285586
       8       -0.000014738462     0.000003303613    -0.000045209663
       9        0.000034925020    -0.000253500651    -0.000043256048
      10        0.000004508533     0.000004045689     0.000007189654
      11       -0.000010737637    -0.000003632852    -0.000001373425
      12       -0.000001040972     0.000200234305     0.000094968136
      13       -0.000007553112    -0.000002251498    -0.000001305204
      14        0.000000070685     0.000007040294    -0.000000474977
      15        0.000000994030     0.000001920399     0.000002119361
      16        0.000000957748     0.000002119746     0.000000023831

  **** Optimization is complete! (in 8 steps) ****
    Final optimized geometry and variables:
    Molecular point group: c1

    Geometry (in Angstrom), charge = 0, multiplicity = 1:

    H           -1.800187447824    -2.075170016513     0.152339277662
    C           -1.371940328585    -1.090904031230     0.142677326898
    N           -0.075125183962    -0.999032232201    -0.095140343034
    C           -2.146913867688     0.019623632265     0.370108977980
    C            0.460106224942     0.196896032770    -0.108826625826
    H           -3.199109647381    -0.064027655995     0.561990024327
    N           -1.620044253204     1.232190885478     0.362340749357
    C           -0.338416498072     1.318936299062     0.128075517678
    C            1.935258288880     0.358908726356    -0.394069168552
    H            0.095200913662     2.302220932656     0.124240568602
    C            2.741102257330    -0.931937871331    -0.347076169049
    H            2.041423242092     0.820175424706    -1.372203150077
    H            2.342239643642     1.073371950978     0.314185607026
    H            3.785128987803    -0.720617223123    -0.545335896758
    H            2.389500659026    -1.641847943612    -1.082488270395
    H            2.667913033751    -1.403937311502     0.624534425691

  Mulliken Charges: (a.u.)
   Center  Symbol    Alpha    Beta     Spin     Total
       1     H     0.41469  0.41469  0.00000  0.17063
       2     C     3.04805  3.04805  0.00000 -0.09611
       3     N     3.58912  3.58912  0.00000 -0.17825
       4     C     3.04691  3.04691  0.00000 -0.09383
       5     C     2.94520  2.94520  0.00000  0.10960
       6     H     0.41364  0.41364  0.00000  0.17273
       7     N     3.58678  3.58678  0.00000 -0.17356
       8     C     3.07415  3.07415  0.00000 -0.14830
       9     C     3.08084  3.08084  0.00000 -0.16169
      10     H     0.41626  0.41626  0.00000  0.16747
      11     C     3.14372  3.14372  0.00000 -0.28744
      12     H     0.44598  0.44598  0.00000  0.10804
      13     H     0.44737  0.44737  0.00000  0.10525
      14     H     0.45015  0.45015  0.00000  0.09970
      15     H     0.44651  0.44651  0.00000  0.10697
      16     H     0.45061  0.45061  0.00000  0.09879

   Total alpha = 29.00000, Total beta = 29.00000, Total charge = -0.00000
