                              Psi4 1.0.54 Driver

  ==> Input File <==

--------------------------------------------------------------------------
set {
	reference rhf
	basis cc-pvtz
}

set_num_threads( 4 )
memory 2 gb

molecule MOL {
0 1

H	 -4.355791	 -0.556051	 -0.652104
C	 -3.491617	 -0.496301	 -0.022865
C	 -2.314706	 -0.799218	 -0.513239
H	 -3.613506	 -0.186766	 0.996512
O	 -1.189946	 -0.765863	 0.237511
H	 -2.180000	 -1.102403	 -1.535521
C	 0.026572	 -0.995256	 -0.379403
C	 1.057223	 0.049888	 -0.004615
H	 -0.054361	 -1.010670	 -1.459674
H	 0.397526	 -1.952058	 -0.044198
F	 2.203233	 -0.234060	 -0.590375
F	 0.698147	 1.254887	 -0.392621
F	 1.266440	 0.094219	 1.288722

	symmetry c1
}
set optking {
	frozen_dihedral = ("
		3 5 7 9
	")
}

ee,wfn = optimize('scf', return_wfn=True)
oeprop( wfn, 'DIPOLE', 'QUADRUPOLE', 'MULLIKEN_CHARGES')
f=open( 'psi4out.xyz', 'w' )
f.write( "13  " )
f.write( str(ee) + "\n" )
f.write( MOL.save_string_xyz() )
f.close()
--------------------------------------------------------------------------

    Molecular point group: c1
  Charge       = 0
  Multiplicity = 1
  Basis Set: CC-PVTZ
  Basis Set:
  @DF-RHF Final Energy:  -527.74036300005832
    Total Energy =                       -527.7403630000583235
    Molecular point group: c1
  Basis Set: CC-PVTZ
  Basis Set:
  Basis Set: CC-PVTZ
  Basis Set:
  @DF-RHF Final Energy:  -527.74088770023400
    Total Energy =                       -527.7408877002337704
  Basis Set: CC-PVTZ
  Basis Set:
  Basis Set: CC-PVTZ
  Basis Set:
  @DF-RHF Final Energy:  -527.74105672315750
    Total Energy =                       -527.7410567231579535
  Basis Set: CC-PVTZ
  Basis Set:
  Basis Set: CC-PVTZ
  Basis Set:
  @DF-RHF Final Energy:  -527.74111935226313
    Total Energy =                       -527.7411193522634676
  Basis Set: CC-PVTZ
  Basis Set:
  @DF-RHF Final Energy:  -527.74098590534322
    Total Energy =                       -527.7409859053435639
  Basis Set: CC-PVTZ
  Basis Set:
  @DF-RHF Final Energy:  -527.74122178030461
    Total Energy =                       -527.7412217803043859
  Basis Set: CC-PVTZ
  Basis Set:
  Basis Set: CC-PVTZ
  Basis Set:
  @DF-RHF Final Energy:  -527.74123882812728
    Total Energy =                       -527.7412388281270523
  Basis Set: CC-PVTZ
  Basis Set:
  Basis Set: CC-PVTZ
  Basis Set:
  @DF-RHF Final Energy:  -527.74124235350632
    Total Energy =                       -527.7412423535066637
  Basis Set: CC-PVTZ
  Basis Set:
  Charge       = 0
  Multiplicity = 1
  Basis Set: CC-PVTZ
  Basis Set:

    Orbital Energies (a.u.)
    -----------------------

    Doubly Occupied:

       1A    -26.340360     2A    -26.337714     3A    -26.336586
       4A    -20.603432     5A    -11.497319     6A    -11.320194
       7A    -11.301010     8A    -11.216191     9A     -1.748860
      10A     -1.645154    11A     -1.643648    12A     -1.445021
      13A     -1.090783    14A     -1.019915    15A     -0.930740
      16A     -0.844272    17A     -0.838513    18A     -0.816006
      19A     -0.805582    20A     -0.729996    21A     -0.719083
      22A     -0.705995    23A     -0.683302    24A     -0.665539
      25A     -0.660259    26A     -0.648983    27A     -0.638085
      28A     -0.589853    29A     -0.565202    30A     -0.531663
      31A     -0.515822    32A     -0.358895

  @DF-RHF Final Energy:  -527.74124276664998

   => Energetics <=

    Nuclear Repulsion Energy =            409.0794989299180884
    One-Electron Energy =               -1542.0535286400354380
    Two-Electron Energy =                 605.2327869434668628
    DFT Exchange-Correlation Energy =       0.0000000000000000
    Empirical Dispersion Energy =           0.0000000000000000
    PCM Polarization Energy =               0.0000000000000000
    EFP Energy =                            0.0000000000000000
    Total Energy =                       -527.7412427666504300
    Molecular point group: c1
  Basis Set: CC-PVTZ
  Basis Set:

  -Total Gradient:
     Atom            X                  Y                   Z
    ------   -----------------  -----------------  -----------------
       1        0.000001069898    -0.000006573257     0.000002483942
       2       -0.000017610985     0.000002452732    -0.000029567520
       3       -0.000029489676     0.000017552446     0.000013005029
       4       -0.000006187785    -0.000001684222     0.000014124871
       5       -0.000054548811     0.000032909342    -0.000022174921
       6       -0.000026510680    -0.000000479974     0.000001066980
       7        0.000068043275    -0.000035462167     0.000000734219
       8       -0.000024439679    -0.000051573257    -0.000009292043
       9        0.000001287491     0.000014649045     0.000027962247
      10        0.000042259839    -0.000009039622    -0.000002664471
      11        0.000025804081     0.000018576797    -0.000039764601
      12        0.000034907648    -0.000024305568     0.000043345112
      13       -0.000014584605     0.000042977712     0.000000741154

  **** Optimization is complete! (in 9 steps) ****
    Final optimized geometry and variables:
    Molecular point group: c1

    Geometry (in Angstrom), charge = 0, multiplicity = 1:

    H           -4.301104630011    -0.470753409216    -0.631701547194
    C           -3.455894112191    -0.484401381635     0.025522119563
    C           -2.246348900250    -0.500102600567    -0.479532164264
    H           -3.622914021618    -0.470199106714     1.084619686923
    O           -1.139029119876    -0.475120295050     0.292394994861
    H           -2.069232606313    -0.511346325737    -1.540200030842
    C            0.072365474242    -0.843021681763    -0.268406435518
    C            1.106703146646     0.220480917419     0.024062484596
    H            0.013722456928    -0.952303410774    -1.343670414352
    H            0.420184868285    -1.774560634055     0.159284447088
    F            2.265777242563    -0.144189533395    -0.487957236083
    F            0.780184800730     1.376411865911    -0.507597129141
    F            1.277080864969     0.404542090019     1.310994490957

  Mulliken Charges: (a.u.)
   Center  Symbol    Alpha    Beta     Spin     Total
       1     H     0.42486  0.42486  0.00000  0.15029
       2     C     3.19648  3.19648  0.00000 -0.39295
       3     C     2.96437  2.96437  0.00000  0.07125
       4     H     0.42398  0.42398  0.00000  0.15204
       5     O     4.14304  4.14304  0.00000 -0.28608
       6     H     0.43515  0.43515  0.00000  0.12970
       7     C     3.00514  3.00514  0.00000 -0.01028
       8     C     2.67507  2.67507  0.00000  0.64987
       9     H     0.45841  0.45841  0.00000  0.08318
      10     H     0.44503  0.44503  0.00000  0.10994
      11     F     4.61274  4.61274  0.00000 -0.22548
      12     F     4.60918  4.60918  0.00000 -0.21836
      13     F     4.60656  4.60656  0.00000 -0.21312

   Total alpha = 32.00000, Total beta = 32.00000, Total charge =  0.00000

*** Psi4 exiting successfully. Buy a developer a beer!
