  ==> Input File <==

--------------------------------------------------------------------------
set {
	reference rhf
	basis cc-pvtz
}

set_num_threads( 4 )
memory 2 gb

molecule MOL {
0 1

O	 0.074770	 1.259872	 0.000487
C	 0.029490	 0.077183	 0.000078
C	 -1.232113	 -0.748027	 0.000015
O	 1.106773	 -0.690081	 -0.000204
C	 -2.501422	 0.088592	 -0.000052
H	 -1.188777	 -1.400384	 -0.865133
H	 -1.188857	 -1.400312	 0.865225
H	 -2.548170	 0.725504	 -0.873205
H	 -3.371613	 -0.556398	 -0.000040
H	 -2.548215	 0.725571	 0.873047
C	 1.508704	 -1.243834	 -1.236914
H	 0.731805	 -1.874814	 -1.642536
H	 2.391240	 -1.826839	 -1.029401
H	 1.736002	 -0.463482	 -1.947991

	symmetry c1
}
set optking {
	frozen_dihedral = ("
		11 4 2 3
	")
}

ee = optimize('scf')
oeprop('DIPOLE', 'QUADRUPOLE', 'MULLIKEN_CHARGES')
f=open( 'psi4out.xyz', 'w' )
f.write( "14  " )
f.write( str(ee) + "\n" )
f.write( MOL.save_string_xyz() )
f.close()
--------------------------------------------------------------------------

    Molecular point group: c1
  Charge       = 0
  Multiplicity = 1
  Basis Set: CC-PVTZ
  Basis Set:
  @DF-RHF Final Energy:  -305.96548460455909
    Total Energy =                       -305.9654846045588101
    Molecular point group: c1
  Basis Set: CC-PVTZ
  Basis Set:
  Basis Set: CC-PVTZ
  Basis Set:
  @DF-RHF Final Energy:  -305.96673609389654
    Total Energy =                       -305.9667360938967704
  Basis Set: CC-PVTZ
  Basis Set:
  Basis Set: CC-PVTZ
  Basis Set:
  @DF-RHF Final Energy:  -305.96734281490671
    Total Energy =                       -305.9673428149066012
  Basis Set: CC-PVTZ
  Basis Set:
  Basis Set: CC-PVTZ
  Basis Set:
  @DF-RHF Final Energy:  -305.96742853241540
    Total Energy =                       -305.9674285324153402
  Basis Set: CC-PVTZ
  Basis Set:
  Basis Set: CC-PVTZ
  Basis Set:
  @DF-RHF Final Energy:  -305.96743297508448
    Total Energy =                       -305.9674329750843071
  Basis Set: CC-PVTZ
  Basis Set:
  Basis Set: CC-PVTZ
  Basis Set:
  @DF-RHF Final Energy:  -305.96743705719035
    Total Energy =                       -305.9674370571905229
  Basis Set: CC-PVTZ
  Basis Set:
  Charge       = 0
  Multiplicity = 1
  Basis Set: CC-PVTZ
  Basis Set:

    Orbital Energies (a.u.)
    -----------------------

    Doubly Occupied:

       1A    -20.579524     2A    -20.545763     3A    -11.368485
       4A    -11.290950     5A    -11.242678     6A    -11.218501
       7A     -1.462311     8A     -1.371109     9A     -1.063858
      10A     -0.977836    11A     -0.894929    12A     -0.767883
      13A     -0.703234    14A     -0.680686    15A     -0.675475
      16A     -0.628136    17A     -0.614670    18A     -0.558000
      19A     -0.547671    20A     -0.526549    21A     -0.511904
      22A     -0.492833    23A     -0.460300    24A     -0.440026

  @DF-RHF Final Energy:  -305.96743717137406

   => Energetics <=

    Nuclear Repulsion Energy =            247.0904369822886792
    One-Electron Energy =                -906.8691259413274111
    Two-Electron Energy =                 353.8112517876650145
    DFT Exchange-Correlation Energy =       0.0000000000000000
    Empirical Dispersion Energy =           0.0000000000000000
    PCM Polarization Energy =               0.0000000000000000
    EFP Energy =                            0.0000000000000000
    Total Energy =                       -305.9674371713737173
    Molecular point group: c1
  Basis Set: CC-PVTZ
  Basis Set:

  -Total Gradient:
     Atom            X                  Y                   Z
    ------   -----------------  -----------------  -----------------
       1        0.000014506590    -0.000011436035    -0.000013572326
       2       -0.000202611398    -0.000259191259     0.000979025438
       3        0.000003388975    -0.000008676411    -0.000592396328
       4        0.000578090718     0.000826984463    -0.000495192132
       5       -0.000004460889    -0.000002133862    -0.000010899765
       6        0.000004047471     0.000004634656    -0.000013358367
       7       -0.000005789820    -0.000002309913    -0.000011461770
       8        0.000002042046    -0.000002511583     0.000002689215
       9        0.000001517416     0.000000661327     0.000001910432
      10       -0.000000879466     0.000001885004     0.000004603383
      11       -0.000388367353    -0.000544222899     0.000150279263
      12       -0.000004628100    -0.000002384227     0.000001113482
      13        0.000002570179    -0.000001220230     0.000002271502
      14        0.000000573633    -0.000000079027    -0.000005012025

  **** Optimization is complete! (in 7 steps) ****
    Final optimized geometry and variables:
    Molecular point group: c1

    Geometry (in Angstrom), charge = 0, multiplicity = 1:

    O            0.221237035171     1.446337839589     0.257719707722
    C            0.164169491303     0.273245561442     0.206213046382
    C           -1.118136022005    -0.522178723988     0.211413790918
    O            1.285753327357    -0.477985001547     0.201903255692
    C           -2.370981824384     0.338959968265     0.231768656750
    H           -1.114139316930    -1.178407357647    -0.652065202668
    H           -1.073305139241    -1.175456781675     1.076709800129
    H           -2.418355003007     0.978076733518    -0.639986743638
    H           -3.254347602830    -0.287743825489     0.244808509715
    H           -2.389339576511     0.975364522666     1.105866457308
    C            1.713116822436    -1.027124553992    -1.022253906414
    H            1.001218312556    -1.746138312168    -1.409658769434
    H            2.646047906693    -1.529714526772    -0.825518586588
    H            1.876991696250    -0.246580359947    -1.755144195073

  Mulliken Charges: (a.u.)
   Center  Symbol    Alpha    Beta     Spin     Total
       1     O     4.16675  4.16675  0.00000 -0.33351
       2     C     2.79157  2.79157  0.00000  0.41687
       3     C     3.10907  3.10907  0.00000 -0.21813
       4     O     4.16382  4.16382  0.00000 -0.32764
       5     C     3.13887  3.13887  0.00000 -0.27774
       6     H     0.44669  0.44669  0.00000  0.10662
       7     H     0.43899  0.43899  0.00000  0.12203
       8     H     0.44902  0.44902  0.00000  0.10196
       9     H     0.45067  0.45067  0.00000  0.09866
      10     H     0.44519  0.44519  0.00000  0.10962
      11     C     3.03633  3.03633  0.00000 -0.07266
      12     H     0.46507  0.46507  0.00000  0.06986
      13     H     0.44067  0.44067  0.00000  0.11866
      14     H     0.45729  0.45729  0.00000  0.08541

   Total alpha = 24.00000, Total beta = 24.00000, Total charge = -0.00000
