  ==> Input File <==

--------------------------------------------------------------------------
set {
	reference rhf
	basis 6-31G*
}

set_num_threads( 4 )
memory 2 gb

molecule MOL {
0 1

H	 0.727879	 0.069849	 1.999832
C	 0.414394	 -0.484033	 1.138537
C	 0.411660	 -1.867295	 1.131025
C	 0.000000	 0.183220	 0.000000
H	 0.729835	 -2.404452	 2.005206
C	 0.000000	 -2.555744	 0.000000
N	 0.000000	 1.642018	 0.000000
C	 -0.414394	 -0.484034	 -1.138537
H	 0.000000	 -3.630640	 0.000000
C	 -0.411660	 -1.867295	 -1.131025
O	 1.057097	 2.196749	 0.000000
O	 -1.057097	 2.196749	 0.000000
H	 -0.727879	 0.069849	 -1.999832
H	 -0.729835	 -2.404452	 -2.005206

	symmetry c1
}
set optking {
	frozen_dihedral = ("
		2 4 7 11
	")
}

ee = optimize('scf')
oeprop('DIPOLE', 'QUADRUPOLE', 'MULLIKEN_CHARGES')
f=open( 'psi4out.xyz', 'w' )
f.write( "14  " )
f.write( str(ee) + "\n" )
f.write( MOL.save_string_xyz() )
f.close()
--------------------------------------------------------------------------

    Molecular point group: c1
  Charge       = 0
  Multiplicity = 1
  Basis Set: 6-31G*
  Basis Set:
  @DF-RHF Final Energy:  -434.16403104560823
    Total Energy =                       -434.1640310456079987
    Molecular point group: c1
  Basis Set: 6-31G*
  Basis Set:
  Basis Set: 6-31G*
  Basis Set:
  @DF-RHF Final Energy:  -434.15850801567899
    Total Energy =                       -434.1585080156789900
  Basis Set: 6-31G*
  Basis Set:
  Basis Set: 6-31G*
  Basis Set:
  @DF-RHF Final Energy:  -434.16435504466040
    Total Energy =                       -434.1643550446602831
  Basis Set: 6-31G*
  Basis Set:
  Basis Set: 6-31G*
  Basis Set:
  @DF-RHF Final Energy:  -434.16455728908807
    Total Energy =                       -434.1645572890878384
  Basis Set: 6-31G*
  Basis Set:
  Basis Set: 6-31G*
  Basis Set:
  @DF-RHF Final Energy:  -434.16455886100039
    Total Energy =                       -434.1645588610001596
  Basis Set: 6-31G*
  Basis Set:
  Charge       = 0
  Multiplicity = 1
  Basis Set: 6-31G*
  Basis Set:

    Orbital Energies (a.u.)
    -----------------------

    Doubly Occupied:

       1A    -20.606483     2A    -20.606377     3A    -15.855642
       4A    -11.308780     5A    -11.271294     6A    -11.270988
       7A    -11.263915     8A    -11.263271     9A    -11.262105
      10A     -1.637837    11A     -1.421793    12A     -1.203146
      13A     -1.094980    14A     -1.054220    15A     -0.957365
      16A     -0.871520    17A     -0.827168    18A     -0.781113
      19A     -0.733837    20A     -0.730791    21A     -0.715245
      22A     -0.648998    23A     -0.647895    24A     -0.624045
      25A     -0.558868    26A     -0.546259    27A     -0.531965
      28A     -0.494287    29A     -0.483676    30A     -0.451928
      31A     -0.368497    32A     -0.366628

  @DF-RHF Final Energy:  -434.16455917652451

   => Energetics <=

    Nuclear Repulsion Energy =            416.3822877763541896
    One-Electron Energy =               -1416.1718649957078924
    Two-Electron Energy =                 565.6250180428289696
    DFT Exchange-Correlation Energy =       0.0000000000000000
    Empirical Dispersion Energy =           0.0000000000000000
    PCM Polarization Energy =               0.0000000000000000
    EFP Energy =                            0.0000000000000000
    Total Energy =                       -434.1645591765247900
    Molecular point group: c1
  Basis Set: 6-31G*
  Basis Set:

  -Total Gradient:
     Atom            X                  Y                   Z
    ------   -----------------  -----------------  -----------------
       1        0.000003300231     0.000011184061     0.000009666239
       2       -0.004708357950    -0.000159673510     0.001550897270
       3       -0.000016870044     0.000034968662     0.000013357751
       4        0.006810886106     0.000202902827    -0.004446773154
       5        0.000002306302    -0.000001450194    -0.000004580884
       6       -0.000013976154    -0.000001155000    -0.000033392602
       7       -0.002335560608    -0.000148814835     0.008598000915
       8        0.000052959463     0.000040548651     0.000046069860
       9       -0.000000220689    -0.000001838567     0.000003345678
      10        0.000039453092    -0.000027285375     0.000022515865
      11        0.000187747468     0.000052228183    -0.005742570650
      12       -0.000015643794    -0.000014680256    -0.000005071238
      13       -0.000003345186     0.000007425060    -0.000014119351
      14       -0.000002678237     0.000005640283     0.000002654299

  **** Optimization is complete! (in 6 steps) ****
    Final optimized geometry and variables:
    Molecular point group: c1

    Geometry (in Angstrom), charge = 0, multiplicity = 1:

    H            0.757804892628     0.071153576164     1.997715459803
    C            0.431090510681    -0.480521935819     1.136418683649
    C            0.408364419793    -1.865223215826     1.133041180872
    C            0.033093884900     0.181325199665    -0.005342472049
    H            0.711932997432    -2.403811125885     2.011589384938
    C           -0.003726968273    -2.551366452280     0.001493700589
    N           -0.002410004678     1.641684928564     0.009316558046
    C           -0.413580466185    -0.474602534944    -1.132940858659
    H           -0.013449568223    -3.625999383904     0.002074982246
    C           -0.410185746478    -1.859006951355    -1.128918129796
    O            1.044137951922     2.212310705669     0.044600486696
    O           -1.073960400355     2.160292848718    -0.056954803468
    H           -0.750466036290     0.081478675738    -1.987195513566
    H           -0.735502658647    -2.393409505734    -2.002235528479

  Mulliken Charges: (a.u.)
   Center  Symbol    Alpha    Beta     Spin     Total
       1     H     0.37565  0.37565  0.00000  0.24870
       2     C     3.08816  3.08816  0.00000 -0.17632
       3     C     3.10372  3.10372  0.00000 -0.20745
       4     C     2.89907  2.89907  0.00000  0.20185
       5     H     0.38857  0.38857  0.00000  0.22286
       6     C     3.09252  3.09252  0.00000 -0.18504
       7     N     3.25782  3.25782  0.00000  0.48436
       8     C     3.08708  3.08708  0.00000 -0.17417
       9     H     0.39003  0.39003  0.00000  0.21994
      10     C     3.10418  3.10418  0.00000 -0.20836
      11     O     4.22400  4.22400  0.00000 -0.44799
      12     O     4.22523  4.22523  0.00000 -0.45046
      13     H     0.37545  0.37545  0.00000  0.24911
      14     H     0.38852  0.38852  0.00000  0.22297

   Total alpha = 32.00000, Total beta = 32.00000, Total charge = -0.00000
