  ==> Input File <==

--------------------------------------------------------------------------
set {
	reference rhf
	basis cc-pvtz
}

set_num_threads( 4 )
memory 2 gb

molecule MOL {
0 1

H	 -2.498963	 -0.741158	 -0.729149
O	 -2.346257	 -0.289210	 0.080372
C	 -1.183935	 0.486039	 -0.009831
C	 0.062853	 -0.375310	 0.027457
H	 -1.178881	 1.094526	 -0.908634
H	 -1.184406	 1.155156	 0.838676
O	 1.172093	 0.457955	 -0.054438
H	 0.052476	 -1.081302	 -0.804627
H	 0.076323	 -0.955658	 0.947560
C	 1.484358	 0.882148	 -1.340429
H	 0.668105	 1.450744	 -1.780547
H	 2.356022	 1.516882	 -1.277171
H	 1.708970	 0.041406	 -1.992520

	symmetry c1
}
set optking {
	frozen_dihedral = ("
		10 7 4 8
	")
}

ee = optimize('scf')
oeprop('DIPOLE', 'QUADRUPOLE', 'MULLIKEN_CHARGES')
f=open( 'psi4out.xyz', 'w' )
f.write( "13  " )
f.write( str(ee) + "\n" )
f.write( MOL.save_string_xyz() )
f.close()
--------------------------------------------------------------------------

    Molecular point group: c1
  Charge       = 0
  Multiplicity = 1
  Basis Set: CC-PVTZ
  Basis Set:
  @DF-RHF Final Energy:  -268.05669454799067
    Total Energy =                       -268.0566945479907872
    Molecular point group: c1
  Basis Set: CC-PVTZ
  Basis Set:
  Basis Set: CC-PVTZ
  Basis Set:
  @DF-RHF Final Energy:  -268.05801305272763
    Total Energy =                       -268.0580130527276310
  Basis Set: CC-PVTZ
  Basis Set:
  Basis Set: CC-PVTZ
  Basis Set:
  @DF-RHF Final Energy:  -268.05889615564354
    Total Energy =                       -268.0588961556431968
  Basis Set: CC-PVTZ
  Basis Set:
  Basis Set: CC-PVTZ
  Basis Set:
  @DF-RHF Final Energy:  -268.05893022198757
    Total Energy =                       -268.0589302219875094
  Basis Set: CC-PVTZ
  Basis Set:
  Basis Set: CC-PVTZ
  Basis Set:
  @DF-RHF Final Energy:  -268.05893258186916
    Total Energy =                       -268.0589325818689304
  Basis Set: CC-PVTZ
  Basis Set:
  Charge       = 0
  Multiplicity = 1
  Basis Set: CC-PVTZ
  Basis Set:

    Orbital Energies (a.u.)
    -----------------------

    Doubly Occupied:

       1A    -20.555189     2A    -20.555021     3A    -11.269820
       4A    -11.269137     5A    -11.268960     6A     -1.389335
       7A     -1.370677     8A     -1.015691     9A     -0.927941
      10A     -0.838116    11A     -0.712944    12A     -0.673708
      13A     -0.664975    14A     -0.639377    15A     -0.598610
      16A     -0.577099    17A     -0.539661    18A     -0.493799
      19A     -0.486801    20A     -0.462491    21A     -0.408700

  @DF-RHF Final Energy:  -268.05893278600456

   => Energetics <=

    Nuclear Repulsion Energy =            192.0695898879060621
    One-Electron Energy =                -746.8209380797254653
    Two-Electron Energy =                 286.6924154058149270
    DFT Exchange-Correlation Energy =       0.0000000000000000
    Empirical Dispersion Energy =           0.0000000000000000
    PCM Polarization Energy =               0.0000000000000000
    EFP Energy =                            0.0000000000000000
    Total Energy =                       -268.0589327860044477
    Molecular point group: c1
  Basis Set: CC-PVTZ
  Basis Set:

  -Total Gradient:
     Atom            X                  Y                   Z
    ------   -----------------  -----------------  -----------------
       1       -0.000013542325     0.000006250746     0.000001561710
       2        0.000018837197    -0.000035859031    -0.000017280256
       3       -0.000000838240     0.000037632266     0.000014798618
       4       -0.000422414044     0.000526042941    -0.000329707883
       5       -0.000001639418    -0.000001230286    -0.000004720704
       6        0.000011735708     0.000013896897    -0.000000610617
       7        0.000393330013    -0.000559208034     0.000012564588
       8        0.000245572752    -0.000321296195     0.000282980684
       9       -0.000006632721     0.000001770635    -0.000000247170
      10       -0.000221401526     0.000328748442     0.000043152301
      11       -0.000003155624    -0.000001594300     0.000004884628
      12       -0.000000747545     0.000005830244    -0.000003947762
      13        0.000000895774    -0.000000984325    -0.000003428135

  **** Optimization is complete! (in 6 steps) ****
    Final optimized geometry and variables:
    Molecular point group: c1

    Geometry (in Angstrom), charge = 0, multiplicity = 1:

    H           -2.329892618220    -1.051250005334    -0.363032078802
    O           -2.175426422512    -0.564574071347     0.425920709080
    C           -1.054092429584     0.261208142870     0.276078192574
    C            0.230588392263    -0.554307955299     0.260014062063
    H           -1.139232107269     0.871802045589    -0.617849924563
    H           -1.039543727784     0.928610482383     1.126130678879
    O            1.372120321248     0.242464904664     0.196113153076
    H            0.213100887543    -1.267396986202    -0.564691721044
    H            0.288732770297    -1.123866232676     1.177597500477
    C            1.757583515048     0.663333981785    -1.073250449970
    H            1.015306901193     1.303277578407    -1.541127758046
    H            2.672966960352     1.226386219742    -0.964460575501
    H            1.945687387573    -0.183771705161    -1.728844304798

  Mulliken Charges: (a.u.)
   Center  Symbol    Alpha    Beta     Spin     Total
       1     H     0.39417  0.39417  0.00000  0.21165
       2     O     4.20246  4.20246  0.00000 -0.40493
       3     C     2.97212  2.97212  0.00000  0.05577
       4     C     2.98436  2.98436  0.00000  0.03127
       5     H     0.47138  0.47138  0.00000  0.05724
       6     H     0.45218  0.45218  0.00000  0.09565
       7     O     4.17863  4.17863  0.00000 -0.35727
       8     H     0.47951  0.47951  0.00000  0.04099
       9     H     0.44579  0.44579  0.00000  0.10842
      10     C     3.03242  3.03242  0.00000 -0.06484
      11     H     0.47248  0.47248  0.00000  0.05504
      12     H     0.44441  0.44441  0.00000  0.11117
      13     H     0.47008  0.47008  0.00000  0.05983

   Total alpha = 21.00000, Total beta = 21.00000, Total charge = -0.00000
