                              Psi4 1.0.54 Driver

  ==> Input File <==

--------------------------------------------------------------------------
set {
	reference rhf
	basis cc-pvtz
}

set_num_threads( 4 )
memory 2 gb

molecule MOL {
0 1

H	 2.517698	 2.286503	 -1.729224
O	 1.584475	 2.216501	 -1.816514
C	 1.069906	 1.365311	 -0.907580
C	 1.861810	 0.702157	 0.017512
C	 -0.294986	 1.162837	 -0.917360
H	 2.924892	 0.861056	 0.023719
C	 1.288106	 -0.160623	 0.929340
H	 -0.909295	 1.673520	 -1.630572
C	 -0.861704	 0.296439	 0.000000
H	 1.910720	 -0.668174	 1.640372
C	 -0.076488	 -0.368693	 0.926206
C	 -2.330689	 0.069587	 0.000000
H	 -0.525448	 -1.038999	 1.634028
O	 -2.848621	 -0.993976	 0.000000
H	 -2.934306	 0.982410	 0.000000

	symmetry c1
}
set optking {
	frozen_dihedral = ("
		11 9 12 14
	")
}

ee,wfn = optimize('scf', return_wfn=True)
oeprop( wfn, 'DIPOLE', 'QUADRUPOLE', 'MULLIKEN_CHARGES')
f=open( 'psi4out.xyz', 'w' )
f.write( "15  " )
f.write( str(ee) + "\n" )
f.write( MOL.save_string_xyz() )
f.close()
--------------------------------------------------------------------------

    Molecular point group: c1
  Charge       = 0
  Multiplicity = 1
  Basis Set: CC-PVTZ
  Basis Set:
  @DF-RHF Final Energy:  -418.43211278157162
    Total Energy =                       -418.4321127815713908
    Molecular point group: c1
  Basis Set: CC-PVTZ
  Basis Set:
  Basis Set: CC-PVTZ
  Basis Set:
  @DF-RHF Final Energy:  -418.43121548895090
    Total Energy =                       -418.4312154889506701
  Basis Set: CC-PVTZ
  Basis Set:
  Basis Set: CC-PVTZ
  Basis Set:
  @DF-RHF Final Energy:  -418.43233703439978
    Total Energy =                       -418.4323370344002342
  Basis Set: CC-PVTZ
  Basis Set:
  Basis Set: CC-PVTZ
  Basis Set:
  @DF-RHF Final Energy:  -418.43278789569410
    Total Energy =                       -418.4327878956945597
  Basis Set: CC-PVTZ
  Basis Set:
  Charge       = 0
  Multiplicity = 1
  Basis Set: CC-PVTZ
  Basis Set:

    Orbital Energies (a.u.)
    -----------------------

    Doubly Occupied:

       1A    -20.597847     2A    -20.559713     3A    -11.330535
       4A    -11.313199     5A    -11.254036     6A    -11.249128
       7A    -11.242802     8A    -11.240962     9A    -11.236584
      10A     -1.429448    11A     -1.414524    12A     -1.173314
      13A     -1.053034    14A     -1.027730    15A     -0.903254
      16A     -0.847834    17A     -0.819340    18A     -0.742548
      19A     -0.704110    20A     -0.677513    21A     -0.670378
      22A     -0.637806    23A     -0.616067    24A     -0.609390
      25A     -0.586468    26A     -0.544607    27A     -0.542810
      28A     -0.517742    29A     -0.495125    30A     -0.427264
      31A     -0.358960    32A     -0.329085

  @DF-RHF Final Energy:  -418.43279263858403

   => Energetics <=

    Nuclear Repulsion Energy =            402.9377556169937407
    One-Electron Energy =               -1368.4347711770760725
    Two-Electron Energy =                 547.0642229214984127
    DFT Exchange-Correlation Energy =       0.0000000000000000
    Empirical Dispersion Energy =           0.0000000000000000
    PCM Polarization Energy =               0.0000000000000000
    EFP Energy =                            0.0000000000000000
    Total Energy =                       -418.4327926385839191
    Molecular point group: c1
  Basis Set: CC-PVTZ
  Basis Set:

  -Total Gradient:
     Atom            X                  Y                   Z
    ------   -----------------  -----------------  -----------------
       1       -0.000002416750    -0.000006667015    -0.000002080002
       2        0.000078235937     0.000004647093    -0.000003274009
       3       -0.000450802355     0.000059382583    -0.000115724685
       4        0.000026635651    -0.000305017086     0.000289748731
       5        0.000378741908     0.000212426788    -0.000098012483
       6        0.000005972990     0.000033432156    -0.000025943601
       7        0.000358512005     0.000233214192    -0.000139287339
       8       -0.000024233438    -0.000044526753     0.000004841790
       9        0.000731239678    -0.006507301882    -0.007225149478
      10       -0.000015300526    -0.000009207034    -0.000001093044
      11       -0.000882338785     0.004247525374     0.003004424353
      12       -0.000097997466     0.002585467170     0.010733599360
      13        0.000004170782    -0.000013427378    -0.000032855933
      14       -0.000078878837    -0.000493024894    -0.006398617742
      15       -0.000031540784     0.000003076694     0.000009424080

  **** Optimization is complete! (in 5 steps) ****
    Final optimized geometry and variables:
    Molecular point group: c1

    Geometry (in Angstrom), charge = 0, multiplicity = 1:

    H            2.588719152056     1.761450830180    -1.541055840707
    O            1.654782564010     1.687981360672    -1.620222622699
    C            1.152128853016     0.852218005485    -0.690932256581
    C            1.944982509854     0.219557258809     0.249178979251
    C           -0.215648870797     0.646509491439    -0.688803930710
    H            3.006136062042     0.390054268016     0.258842132214
    C            1.368619753893    -0.623682644918     1.180857776588
    H           -0.820919351398     1.164670590708    -1.408071002298
    C           -0.775117883819    -0.228741521550     0.221231369524
    H            1.990314527760    -1.099711419975     1.914493716472
    C            0.009541762205    -0.856330178482     1.174961128903
    C           -2.256644786548    -0.411814099336     0.229051231278
    H           -0.440060331640    -1.520213497404     1.885839275129
    O           -2.795511433124    -1.462104327540     0.285238247854
    H           -2.839929696001     0.508839759573     0.126703611022

  Mulliken Charges: (a.u.)
   Center  Symbol    Alpha    Beta     Spin     Total
       1     H     0.38620  0.38620  0.00000  0.22759
       2     O     4.17184  4.17184  0.00000 -0.34368
       3     C     2.83887  2.83887  0.00000  0.32226
       4     C     3.13550  3.13550  0.00000 -0.27100
       5     C     3.13388  3.13388  0.00000 -0.26777
       6     H     0.43209  0.43209  0.00000  0.13582
       7     C     3.05569  3.05569  0.00000 -0.11138
       8     H     0.41926  0.41926  0.00000  0.16149
       9     C     2.93438  2.93438  0.00000  0.13123
      10     H     0.41924  0.41924  0.00000  0.16151
      11     C     3.11494  3.11494  0.00000 -0.22989
      12     C     2.92263  2.92263  0.00000  0.15474
      13     H     0.41503  0.41503  0.00000  0.16993
      14     O     4.16241  4.16241  0.00000 -0.32481
      15     H     0.45803  0.45803  0.00000  0.08395

   Total alpha = 32.00000, Total beta = 32.00000, Total charge = -0.00000

*** Psi4 exiting successfully. Buy a developer a beer!
