                              Psi4 1.0.54 Driver

  ==> Input File <==

--------------------------------------------------------------------------
set {
	reference rhf
	basis cc-pvtz
}

set_num_threads( 4 )
memory 2 gb

molecule MOL {
0 1

H	 -3.436473	 1.252944	 -1.023892
O	 -3.458596	 0.315260	 -0.960865
C	 -3.176635	 -0.080824	 0.355601
C	 -1.763371	 0.265266	 0.799691
H	 -3.321825	 -1.153438	 0.379502
H	 -3.895468	 0.357385	 1.043382
C	 -0.673390	 -0.426948	 -0.013392
H	 -1.631049	 1.344913	 0.747560
H	 -1.664587	 -0.001624	 1.849167
C	 0.737842	 -0.043159	 0.423759
H	 -0.806103	 -0.190518	 -1.063345
H	 -0.797221	 -1.503753	 0.074146
C	 1.643579	 0.328145	 -0.748769
H	 0.676884	 0.785873	 1.122243
H	 1.184076	 -0.870959	 0.971006
C	 3.091598	 0.642833	 -0.369217
H	 1.218480	 1.180276	 -1.274139
H	 1.645344	 -0.493944	 -1.459252
C	 3.270749	 1.901282	 0.476570
H	 3.669030	 0.753127	 -1.282006
H	 3.517324	 -0.207916	 0.156522
H	 2.848714	 2.768270	 -0.021722
H	 4.321966	 2.100997	 0.650637
H	 2.792808	 1.811241	 1.444594

	symmetry c1
}
set optking {
	frozen_dihedral = ("
		13 10 7 11
	")
}

ee,wfn = optimize('scf', return_wfn=True)
oeprop( wfn, 'DIPOLE', 'QUADRUPOLE', 'MULLIKEN_CHARGES')
f=open( 'psi4out.xyz', 'w' )
f.write( "24  " )
f.write( str(ee) + "\n" )
f.write( MOL.save_string_xyz() )
f.close()
--------------------------------------------------------------------------

    Molecular point group: c1
  Charge       = 0
  Multiplicity = 1
  Basis Set: CC-PVTZ
  Basis Set:
  @DF-RHF Final Energy:  -349.37526519536840
    Total Energy =                       -349.3752651953681152
    Molecular point group: c1
  Basis Set: CC-PVTZ
  Basis Set:
  Basis Set: CC-PVTZ
  Basis Set:
  @DF-RHF Final Energy:  -349.37550654985910
    Total Energy =                       -349.3755065498587555
  Basis Set: CC-PVTZ
  Basis Set:
  Basis Set: CC-PVTZ
  Basis Set:
  @DF-RHF Final Energy:  -349.37556711420524
    Total Energy =                       -349.3755671142051824
  Basis Set: CC-PVTZ
  Basis Set:
  Charge       = 0
  Multiplicity = 1
  Basis Set: CC-PVTZ
  Basis Set:

    Orbital Energies (a.u.)
    -----------------------

    Doubly Occupied:

       1A    -20.546263     2A    -11.265382     3A    -11.215777
       4A    -11.212061     5A    -11.210327     6A    -11.209652
       7A    -11.208756     8A    -11.205664     9A     -1.364062
      10A     -1.088369    11A     -1.049135    12A     -0.985949
      13A     -0.915798    14A     -0.852074    15A     -0.803399
      16A     -0.776862    17A     -0.682638    18A     -0.644212
      19A     -0.631980    20A     -0.617454    21A     -0.601407
      22A     -0.589243    23A     -0.554200    24A     -0.545411
      25A     -0.515598    26A     -0.510275    27A     -0.500277
      28A     -0.474221    29A     -0.467419    30A     -0.461104
      31A     -0.452468    32A     -0.450716    33A     -0.420447

  @DF-RHF Final Energy:  -349.37556730345761

   => Energetics <=

    Nuclear Repulsion Energy =            386.0287052907725638
    One-Electron Energy =               -1238.7513498060106940
    Two-Electron Energy =                 503.3470772117806291
    DFT Exchange-Correlation Energy =       0.0000000000000000
    Empirical Dispersion Energy =           0.0000000000000000
    PCM Polarization Energy =               0.0000000000000000
    EFP Energy =                            0.0000000000000000
    Total Energy =                       -349.3755673034575011
    Molecular point group: c1
  Basis Set: CC-PVTZ
  Basis Set:

  -Total Gradient:
     Atom            X                  Y                   Z
    ------   -----------------  -----------------  -----------------
       1       -0.000012329423     0.000003150513    -0.000016757589
       2       -0.000047265479     0.000067152384     0.000019172577
       3        0.000047157936    -0.000143163395    -0.000003145459
       4       -0.000013486726     0.000093143294     0.000015990564
       5       -0.000014894590     0.000004147267     0.000010328014
       6       -0.000004626380     0.000003308098    -0.000027535676
       7       -0.001294567171     0.003836209584     0.000861914879
       8        0.000021160125    -0.000001813421    -0.000001469324
       9        0.000008629083     0.000015555805    -0.000024265888
      10        0.000983424522    -0.003290920183    -0.000351167017
      11        0.000890585021    -0.002532117016    -0.000619951465
      12       -0.000004128509     0.000011341346    -0.000005339818
      13       -0.000579448941     0.001949155182     0.000159881365
      14       -0.000030091063    -0.000032261123    -0.000035201102
      15        0.000005985730     0.000006386628    -0.000003091724
      16        0.000003197455    -0.000030405681     0.000039257029
      17       -0.000003660106     0.000006944688     0.000013432718
      18       -0.000013385933     0.000011822406    -0.000014298611
      19        0.000018726906     0.000009445480    -0.000004425977
      20        0.000010511561    -0.000011580776     0.000003370212
      21        0.000000624423     0.000012786336     0.000011351904
      22       -0.000006320117     0.000003184059     0.000001000097
      23       -0.000003124132     0.000006843157    -0.000008331179
      24        0.000037325804     0.000001685365    -0.000020718533

  **** Optimization is complete! (in 4 steps) ****
    Final optimized geometry and variables:
    Molecular point group: c1

    Geometry (in Angstrom), charge = 0, multiplicity = 1:

    H           -3.393749500710     0.819899052989    -1.013991463986
    O           -3.396685300209    -0.116799732316    -0.934769915819
    C           -3.091474096810    -0.484708214543     0.384662810609
    C           -1.682245384778    -0.099027370035     0.807429079359
    H           -3.211568534527    -1.559818596775     0.427305585442
    H           -3.812971039719    -0.052007406772     1.073216410082
    C           -0.584386990984    -0.771833285217    -0.010889456622
    H           -1.575031312823     0.982835490871     0.742600850891
    H           -1.563303119833    -0.352097992489     1.858335713204
    C            0.841724138323    -0.392613094939     0.432861569130
    H           -0.719681281375    -0.541634051820    -1.060675951360
    H           -0.710474117476    -1.848598720847     0.060801069090
    C            1.758536580488    -0.031183942968    -0.735366273268
    H            0.790411727947     0.448978539347     1.115661958447
    H            1.283036419432    -1.207894216768     0.998158858090
    C            3.209735591184     0.260887744559    -0.351247526625
    H            1.344467902681     0.828986932774    -1.256779620087
    H            1.749719313551    -0.849216714135    -1.450807859225
    C            3.405747808908     1.511002489183     0.503388217104
    H            3.790329523633     0.369055426272    -1.262330507426
    H            3.622490586003    -0.599307225164     0.169381219441
    H            2.991934846580     2.386541712142     0.013017005470
    H            4.459692566966     1.697750423718     0.675139645850
    H            2.930326069140     1.419235427135     1.472427532150

  Mulliken Charges: (a.u.)
   Center  Symbol    Alpha    Beta     Spin     Total
       1     H     0.39539  0.39539  0.00000  0.20922
       2     O     4.20319  4.20319  0.00000 -0.40638
       3     C     2.97712  2.97712  0.00000  0.04576
       4     C     3.10273  3.10273  0.00000 -0.20546
       5     H     0.45919  0.45919  0.00000  0.08163
       6     H     0.46068  0.46068  0.00000  0.07865
       7     C     3.09173  3.09173  0.00000 -0.18346
       8     H     0.45875  0.45875  0.00000  0.08251
       9     H     0.45182  0.45182  0.00000  0.09636
      10     C     3.09734  3.09734  0.00000 -0.19468
      11     H     0.44636  0.44636  0.00000  0.10728
      12     H     0.45185  0.45185  0.00000  0.09629
      13     C     3.09382  3.09382  0.00000 -0.18765
      14     H     0.45360  0.45360  0.00000  0.09279
      15     H     0.45097  0.45097  0.00000  0.09805
      16     C     3.09054  3.09054  0.00000 -0.18108
      17     H     0.45464  0.45464  0.00000  0.09071
      18     H     0.44807  0.44807  0.00000  0.10385
      19     C     3.15307  3.15307  0.00000 -0.30614
      20     H     0.44869  0.44869  0.00000  0.10263
      21     H     0.45492  0.45492  0.00000  0.09017
      22     H     0.45533  0.45533  0.00000  0.08935
      23     H     0.44631  0.44631  0.00000  0.10737
      24     H     0.45388  0.45388  0.00000  0.09224

   Total alpha = 33.00000, Total beta = 33.00000, Total charge =  0.00000

*** Psi4 exiting successfully. Buy a developer a beer!
