  ==> Input File <==

--------------------------------------------------------------------------
set {
	reference rhf
	basis cc-pvtz
}

set_num_threads( 4 )
memory 2 gb

molecule MOL {
0 1

O	 -2.374409	 1.338660	 -0.336961
C	 -2.104891	 0.204655	 -0.107126
C	 -0.881910	 -0.448129	 -0.720509
C	 -2.949910	 -0.638219	 0.818225
C	 -0.836155	 -0.216780	 -2.236169
H	 -0.940224	 -1.509815	 -0.516713
H	 0.021457	 -0.061402	 -0.260904
C	 0.378237	 -0.875863	 -2.886837
H	 -1.752371	 -0.601317	 -2.666177
H	 -0.816520	 0.850403	 -2.443619
C	 0.506376	 -0.628592	 -4.390946
H	 0.345258	 -1.946520	 -2.700867
H	 1.277330	 -0.509972	 -2.398617
C	 -0.596211	 -1.260555	 -5.236997
H	 1.464514	 -1.018653	 -4.719781
H	 0.536227	 0.441804	 -4.577210
H	 -0.652578	 -2.330721	 -5.066245
H	 -0.405751	 -1.104939	 -6.292592
H	 -1.569655	 -0.839432	 -5.017133
H	 -3.440322	 -1.417144	 0.243099
H	 -3.694377	 -0.025850	 1.303346
H	 -2.331085	 -1.129829	 1.560495

	symmetry c1
}
set optking {
	frozen_dihedral = ("
		6 3 2 1
	")
}

ee = optimize('scf')
oeprop('DIPOLE', 'QUADRUPOLE', 'MULLIKEN_CHARGES')
f=open( 'psi4out.xyz', 'w' )
f.write( "22  " )
f.write( str(ee) + "\n" )
f.write( MOL.save_string_xyz() )
f.close()
--------------------------------------------------------------------------

    Molecular point group: c1
  Charge       = 0
  Multiplicity = 1
  Basis Set: CC-PVTZ
  Basis Set:
  @DF-RHF Final Energy:  -348.22265025630929
    Total Energy =                       -348.2226502563094073
    Molecular point group: c1
  Basis Set: CC-PVTZ
  Basis Set:
  Basis Set: CC-PVTZ
  Basis Set:
  @DF-RHF Final Energy:  -348.22298154827513
    Total Energy =                       -348.2229815482745607
  Basis Set: CC-PVTZ
  Basis Set:
  Basis Set: CC-PVTZ
  Basis Set:
  @DF-RHF Final Energy:  -348.22289004383725
    Total Energy =                       -348.2228900438368555
  Basis Set: CC-PVTZ
  Basis Set:
  Basis Set: CC-PVTZ
  Basis Set:
  @DF-RHF Final Energy:  -348.22368279797536
    Total Energy =                       -348.2236827979753002
  Basis Set: CC-PVTZ
  Basis Set:
  Basis Set: CC-PVTZ
  Basis Set:
  @DF-RHF Final Energy:  -348.22369111943925
    Total Energy =                       -348.2236911194393656
  Basis Set: CC-PVTZ
  Basis Set:
  Basis Set: CC-PVTZ
  Basis Set:
  @DF-RHF Final Energy:  -348.22367719424278
    Total Energy =                       -348.2236771942430096
  Basis Set: CC-PVTZ
  Basis Set:
  Basis Set: CC-PVTZ
  Basis Set:
  @DF-RHF Final Energy:  -348.22369417447027
    Total Energy =                       -348.2236941744703813
  Basis Set: CC-PVTZ
  Basis Set:
  Charge       = 0
  Multiplicity = 1
  Basis Set: CC-PVTZ
  Basis Set:

    Orbital Energies (a.u.)
    -----------------------

    Doubly Occupied:

       1A    -20.537218     2A    -11.320516     3A    -11.228969
       4A    -11.227380     5A    -11.219341     6A    -11.217003
       7A    -11.215781     8A    -11.208067     9A     -1.397913
      10A     -1.093171    11A     -1.043953    12A     -1.002310
      13A     -0.936969    14A     -0.856128    15A     -0.783632
      16A     -0.732866    17A     -0.658399    18A     -0.651371
      19A     -0.630217    20A     -0.613209    21A     -0.604069
      22A     -0.583473    23A     -0.558433    24A     -0.550391
      25A     -0.525109    26A     -0.520341    27A     -0.500612
      28A     -0.483772    29A     -0.466156    30A     -0.463173
      31A     -0.461388    32A     -0.399375

  @DF-RHF Final Energy:  -348.22369385436650

   => Energetics <=

    Nuclear Repulsion Energy =            372.8356584374121212
    One-Electron Energy =               -1210.7372908728204948
    Two-Electron Energy =                 489.6779385810422127
    DFT Exchange-Correlation Energy =       0.0000000000000000
    Empirical Dispersion Energy =           0.0000000000000000
    PCM Polarization Energy =               0.0000000000000000
    EFP Energy =                            0.0000000000000000
    Total Energy =                       -348.2236938543661608
    Molecular point group: c1
  Basis Set: CC-PVTZ
  Basis Set:

  -Total Gradient:
     Atom            X                  Y                   Z
    ------   -----------------  -----------------  -----------------
       1        0.000760581993     0.000409317887     0.000905281426
       2       -0.000858638424    -0.000489775579    -0.001065313002
       3       -0.000568535641    -0.000089588850    -0.000894370950
       4        0.000030954640    -0.000004172113     0.000035950968
       5       -0.000014447676    -0.000008926568     0.000040803907
       6        0.000692170011     0.000176913545     0.001060735119
       7       -0.000009334442    -0.000016387916     0.000005105200
       8       -0.000012821579     0.000007171709    -0.000008510579
       9        0.000029288056     0.000006043179     0.000023762997
      10       -0.000017438484     0.000022350738    -0.000055232358
      11       -0.000018241784     0.000032223713     0.000001375999
      12       -0.000024245314     0.000001280830    -0.000002790843
      13        0.000009447673    -0.000015225596     0.000002223865
      14        0.000007072322    -0.000009194352    -0.000014050356
      15        0.000004512909     0.000010660809     0.000002872141
      16       -0.000011683808     0.000004349744    -0.000000482505
      17       -0.000006880909    -0.000007141058     0.000002710574
      18        0.000007304268    -0.000007612561     0.000002421959
      19        0.000026384372    -0.000001313890    -0.000025711556
      20       -0.000010328067    -0.000003097054    -0.000006309930
      21       -0.000001970570    -0.000005501002    -0.000008496851
      22       -0.000013149550    -0.000012375611    -0.000001975225

  **** Optimization is complete! (in 8 steps) ****
    Final optimized geometry and variables:
    Molecular point group: c1

    Geometry (in Angstrom), charge = 0, multiplicity = 1:

    O           -1.264765247929     1.651520848489     1.547368455711
    C           -1.002986557757     0.520566074604     1.798812800920
    C            0.169501915706    -0.182924986208     1.137751891224
    C           -1.794715913994    -0.268057107648     2.812986375737
    C            0.250750867617     0.066311050642    -0.366946293257
    H            0.140775739128    -1.244505473830     1.357298369056
    H            1.062444400127     0.204911147692     1.622732945676
    C            1.486018772461    -0.573980531380    -0.996342402457
    H           -0.649550044908    -0.317403498039    -0.835286889888
    H            0.257889283512     1.134837323916    -0.542354541099
    C            1.657156953048    -0.291788637502    -2.489981278133
    H            1.459727899967    -1.649866754244    -0.837004486050
    H            2.367877365230    -0.212009502413    -0.474680823245
    C            0.588130302166    -0.915386871670    -3.384011861487
    H            2.629042146689    -0.664180791653    -2.798634313560
    H            1.679505383644     0.782592560041    -2.650061412758
    H            0.535430839527    -1.989619056444    -3.237248100375
    H            0.811141706751    -0.736948286057    -4.429588204051
    H           -0.395114838260    -0.505371707992    -3.187942225485
    H           -2.268207029593    -1.114574010916     2.326144285764
    H           -2.546039604428     0.358134977272     3.268928094200
    H           -1.132316438978    -0.666990295961     3.573992387595

  Mulliken Charges: (a.u.)
   Center  Symbol    Alpha    Beta     Spin     Total
       1     O     4.17504  4.17504  0.00000 -0.35009
       2     C     2.85899  2.85899  0.00000  0.28202
       3     C     3.10586  3.10586  0.00000 -0.21173
       4     C     3.15300  3.15300  0.00000 -0.30600
       5     C     3.09327  3.09327  0.00000 -0.18654
       6     H     0.44619  0.44619  0.00000  0.10762
       7     H     0.44366  0.44366  0.00000  0.11267
       8     C     3.09649  3.09649  0.00000 -0.19298
       9     H     0.45184  0.45184  0.00000  0.09631
      10     H     0.43796  0.43796  0.00000  0.12408
      11     C     3.09024  3.09024  0.00000 -0.18049
      12     H     0.45472  0.45472  0.00000  0.09056
      13     H     0.44882  0.44882  0.00000  0.10235
      14     C     3.15269  3.15269  0.00000 -0.30538
      15     H     0.44833  0.44833  0.00000  0.10334
      16     H     0.45265  0.45265  0.00000  0.09470
      17     H     0.45575  0.45575  0.00000  0.08850
      18     H     0.44582  0.44582  0.00000  0.10836
      19     H     0.45247  0.45247  0.00000  0.09506
      20     H     0.45006  0.45006  0.00000  0.09989
      21     H     0.43640  0.43640  0.00000  0.12720
      22     H     0.44973  0.44973  0.00000  0.10053

   Total alpha = 32.00000, Total beta = 32.00000, Total charge =  0.00000
