                              Psi4 1.0.54 Driver

  ==> Input File <==

--------------------------------------------------------------------------
set {
	reference rhf
	basis cc-pvtz
}

set_num_threads( 4 )
memory 2 gb

molecule MOL {
0 1

H	 -0.385402	 1.392291	 -2.215491
C	 -1.126751	 1.131993	 -1.466967
O	 -0.775228	 0.000056	 -0.739966
H	 -2.051551	 0.900388	 -1.976138
H	 -1.297527	 1.996448	 -0.833575
C	 0.406133	 -0.000384	 0.036994
C	 1.526415	 -0.003194	 -0.997339
C	 0.498772	 1.259027	 0.900673
C	 0.495883	 -1.257378	 0.904465
H	 1.452279	 0.872071	 -1.630204
H	 1.451276	 -0.881020	 -1.626529
H	 2.497919	 -0.002741	 -0.517601
H	 0.368981	 2.144239	 0.289753
H	 1.470064	 1.313479	 1.377660
H	 -0.248448	 1.271586	 1.684297
H	 0.363971	 -2.144195	 0.296316
H	 1.467114	 -1.312636	 1.381470
H	 -0.251246	 -1.265768	 1.688235

	symmetry c1
}
set optking {
	frozen_dihedral = ("
		2 3 6 7
	")
}

ee,wfn = optimize('scf', return_wfn=True)
oeprop( wfn, 'DIPOLE', 'QUADRUPOLE', 'MULLIKEN_CHARGES')
f=open( 'psi4out.xyz', 'w' )
f.write( "18  " )
f.write( str(ee) + "\n" )
f.write( MOL.save_string_xyz() )
f.close()
--------------------------------------------------------------------------

    Molecular point group: c1
  Charge       = 0
  Multiplicity = 1
  Basis Set: CC-PVTZ
  Basis Set:
  @DF-RHF Final Energy:  -271.26939274304817
    Total Energy =                       -271.2693927430480016
    Molecular point group: c1
  Basis Set: CC-PVTZ
  Basis Set:
  Basis Set: CC-PVTZ
  Basis Set:
  @DF-RHF Final Energy:  -271.24105301329030
    Total Energy =                       -271.2410530132906956
  Basis Set: CC-PVTZ
  Basis Set:
  Basis Set: CC-PVTZ
  Basis Set:
  @DF-RHF Final Energy:  -271.27469561443348
    Total Energy =                       -271.2746956144333126
  Basis Set: CC-PVTZ
  Basis Set:
  Basis Set: CC-PVTZ
  Basis Set:
  @DF-RHF Final Energy:  -271.27659732959205
    Total Energy =                       -271.2765973295919935
  Basis Set: CC-PVTZ
  Basis Set:
  @DF-RHF Final Energy:  -271.27668679835193
    Total Energy =                       -271.2766867983518750
  Basis Set: CC-PVTZ
  Basis Set:
  @DF-RHF Final Energy:  -271.27668883482534
    Total Energy =                       -271.2766888348252792
  Basis Set: CC-PVTZ
  Basis Set:
  Basis Set: CC-PVTZ
  Basis Set:
  @DF-RHF Final Energy:  -271.27670046011468
    Total Energy =                       -271.2767004601146823
  Basis Set: CC-PVTZ
  Basis Set:
  Basis Set: CC-PVTZ
  Basis Set:
  @DF-RHF Final Energy:  -271.27670313504177
    Total Energy =                       -271.2767031350416573
  Basis Set: CC-PVTZ
  Basis Set:
  Charge       = 0
  Multiplicity = 1
  Basis Set: CC-PVTZ
  Basis Set:

    Orbital Energies (a.u.)
    -----------------------

    Doubly Occupied:

       1A    -20.540568     2A    -11.280113     3A    -11.258197
       4A    -11.208144     5A    -11.206110     6A    -11.201792
       7A     -1.373612     8A     -1.074658     9A     -0.947198
      10A     -0.940436    11A     -0.913130    12A     -0.753493
      13A     -0.656731    14A     -0.646840    15A     -0.639554
      16A     -0.593298    17A     -0.575581    18A     -0.553284
      19A     -0.534524    20A     -0.525069    21A     -0.515125
      22A     -0.489196    23A     -0.487611    24A     -0.440991
      25A     -0.407234

  @DF-RHF Final Energy:  -271.27670348225513

   => Energetics <=

    Nuclear Repulsion Energy =            272.6903866100439018
    One-Electron Energy =                -908.4092012302683088
    Two-Electron Energy =                 364.4421111379690501
    DFT Exchange-Correlation Energy =       0.0000000000000000
    Empirical Dispersion Energy =           0.0000000000000000
    PCM Polarization Energy =               0.0000000000000000
    EFP Energy =                            0.0000000000000000
    Total Energy =                       -271.2767034822553569
    Molecular point group: c1
  Basis Set: CC-PVTZ
  Basis Set:

  -Total Gradient:
     Atom            X                  Y                   Z
    ------   -----------------  -----------------  -----------------
       1        0.000016052433     0.000000652240    -0.000000882348
       2       -0.000256001269     0.000176400829     0.000296743684
       3        0.000387045660    -0.000407068481    -0.000397724938
       4        0.000000967133    -0.000003286979     0.000003042376
       5        0.000001765867    -0.000000323013    -0.000000793280
       6       -0.000217479788     0.000560006423     0.000022381022
       7        0.000041189652    -0.000330298379     0.000091368640
       8        0.000024242047    -0.000016583298    -0.000003037230
       9        0.000003307717     0.000003141609    -0.000008031151
      10       -0.000005370737     0.000006297336    -0.000008828431
      11       -0.000006792528    -0.000001680214     0.000011416002
      12       -0.000000099498     0.000001259739    -0.000006377480
      13        0.000005650382     0.000011743112    -0.000014436576
      14        0.000013667383     0.000004008738     0.000017049216
      15       -0.000013038258    -0.000006091865    -0.000000199616
      16        0.000003393133     0.000001662304    -0.000000451099
      17        0.000007566415    -0.000000096946     0.000004569134
      18       -0.000006065745     0.000000256845    -0.000005807926

  **** Optimization is complete! (in 9 steps) ****
    Final optimized geometry and variables:
    Molecular point group: c1

    Geometry (in Angstrom), charge = 0, multiplicity = 1:

    H           -0.489691692057     0.755089288809    -2.183673029157
    C           -1.277218018463     0.486860328884    -1.486473565238
    O           -0.848773325569    -0.408004005953    -0.512177420072
    H           -2.062477809011    -0.007315368425    -2.040857355823
    H           -1.685302853556     1.397078795515    -1.059414230062
    C            0.264679964510    -0.085941065115     0.298073784565
    C            1.554374686122    -0.118380252666    -0.524486342941
    C            0.091525339390     1.271809267705     0.980385534605
    C            0.292110584526    -1.193375494520     1.345935604769
    H            1.582558208723     0.669617225825    -1.266784835069
    H            1.648396071864    -1.069771466935    -1.033406443293
    H            2.415747766196     0.011617952388     0.120077983702
    H            0.131374346489     2.091298664962     0.273488190955
    H            0.883765606044     1.426492579415     1.702832565809
    H           -0.857010153185     1.315375548951     1.502372690275
    H            0.374271607423    -2.159446764650     0.864362239644
    H            1.131690908585    -1.069889741055     2.019697152396
    H           -0.622116567876    -1.182868161115     1.925866763928

  Mulliken Charges: (a.u.)
   Center  Symbol    Alpha    Beta     Spin     Total
       1     H     0.47037  0.47037  0.00000  0.05926
       2     C     3.04442  3.04442  0.00000 -0.08884
       3     O     4.19028  4.19028  0.00000 -0.38057
       4     H     0.44083  0.44083  0.00000  0.11835
       5     H     0.46825  0.46825  0.00000  0.06350
       6     C     2.87360  2.87360  0.00000  0.25281
       7     C     3.15978  3.15978  0.00000 -0.31956
       8     C     3.16807  3.16807  0.00000 -0.33614
       9     C     3.14148  3.14148  0.00000 -0.28297
      10     H     0.44949  0.44949  0.00000  0.10101
      11     H     0.44613  0.44613  0.00000  0.10774
      12     H     0.44993  0.44993  0.00000  0.10015
      13     H     0.44853  0.44853  0.00000  0.10293
      14     H     0.44692  0.44692  0.00000  0.10617
      15     H     0.44478  0.44478  0.00000  0.11044
      16     H     0.44825  0.44825  0.00000  0.10351
      17     H     0.45937  0.45937  0.00000  0.08127
      18     H     0.44953  0.44953  0.00000  0.10094

   Total alpha = 25.00000, Total beta = 25.00000, Total charge =  0.00000

*** Psi4 exiting successfully. Buy a developer a beer!
