  ==> Input File <==

--------------------------------------------------------------------------
set {
	reference rhf
	basis 6-31G*
}

set_num_threads( 4 )
memory 2 gb

molecule MOL {
0 1

O	 0.997377	 1.025656	 0.761749
C	 1.122059	 0.121804	 -0.000188
C	 0.137069	 -0.260433	 -1.077955
O	 2.172624	 -0.688929	 0.000216
C	 -1.092917	 0.640949	 -1.122534
H	 0.670094	 -0.246184	 -2.024758
H	 -0.140723	 -1.297591	 -0.910950
C	 -2.073989	 0.231814	 -2.222295
H	 -0.778555	 1.668995	 -1.273534
H	 -1.590295	 0.616452	 -0.157900
C	 -3.309934	 1.128949	 -2.273206
H	 -1.570343	 0.257288	 -3.186540
H	 -2.383728	 -0.799799	 -2.067677
H	 -3.035636	 2.162946	 -2.460994
H	 -3.988658	 0.817758	 -3.061096
H	 -3.855156	 1.097823	 -1.334375
C	 3.452279	 -0.082609	 0.000533
H	 3.583069	 0.529321	 -0.880332
H	 4.163299	 -0.894027	 0.001117
H	 3.582335	 0.529955	 0.881077

	symmetry c1
}
set optking {
	frozen_dihedral = ("
		1 2 4 17
	")
}

ee = optimize('scf')
oeprop('DIPOLE', 'QUADRUPOLE', 'MULLIKEN_CHARGES')
f=open( 'psi4out.xyz', 'w' )
f.write( "20  " )
f.write( str(ee) + "\n" )
f.write( MOL.save_string_xyz() )
f.close()
--------------------------------------------------------------------------

    Molecular point group: c1
  Charge       = 0
  Multiplicity = 1
  Basis Set: 6-31G*
  Basis Set:
  @DF-RHF Final Energy:  -383.92967572177571
    Total Energy =                       -383.9296757217759932
    Molecular point group: c1
  Basis Set: 6-31G*
  Basis Set:
  Basis Set: 6-31G*
  Basis Set:
  @DF-RHF Final Energy:  -383.92725578966520
    Total Energy =                       -383.9272557896649687
  Basis Set: 6-31G*
  Basis Set:
  Basis Set: 6-31G*
  Basis Set:
  @DF-RHF Final Energy:  -383.93046491880983
    Total Energy =                       -383.9304649188097756
  Basis Set: 6-31G*
  Basis Set:
  Basis Set: 6-31G*
  Basis Set:
  @DF-RHF Final Energy:  -383.93053807711004
    Total Energy =                       -383.9305380771103273
  Basis Set: 6-31G*
  Basis Set:
  Basis Set: 6-31G*
  Basis Set:
  @DF-RHF Final Energy:  -383.93054521381799
    Total Energy =                       -383.9305452138180499
  Basis Set: 6-31G*
  Basis Set:
  Charge       = 0
  Multiplicity = 1
  Basis Set: 6-31G*
  Basis Set:

    Orbital Energies (a.u.)
    -----------------------

    Doubly Occupied:

       1A    -20.592778     2A    -20.551792     3A    -11.374193
       4A    -11.285674     5A    -11.236790     6A    -11.221043
       7A    -11.220044     8A    -11.211195     9A     -1.462342
      10A     -1.364926    11A     -1.088967    12A     -1.022093
      13A     -0.969111    14A     -0.889722    15A     -0.805167
      16A     -0.765746    17A     -0.696079    18A     -0.678805
      19A     -0.672707    20A     -0.644264    21A     -0.605893
      22A     -0.592729    23A     -0.582596    24A     -0.545855
      25A     -0.535538    26A     -0.515804    27A     -0.502420
      28A     -0.480790    29A     -0.476280    30A     -0.470613
      31A     -0.452772    32A     -0.433933

  @DF-RHF Final Energy:  -383.93054600626704

   => Energetics <=

    Nuclear Repulsion Energy =            380.5049645134557750
    One-Electron Energy =               -1276.9737019963781677
    Two-Electron Energy =                 512.5381914766555838
    DFT Exchange-Correlation Energy =       0.0000000000000000
    Empirical Dispersion Energy =           0.0000000000000000
    PCM Polarization Energy =               0.0000000000000000
    EFP Energy =                            0.0000000000000000
    Total Energy =                       -383.9305460062668089
    Molecular point group: c1
  Basis Set: 6-31G*
  Basis Set:

  -Total Gradient:
     Atom            X                  Y                   Z
    ------   -----------------  -----------------  -----------------
       1       -0.005235089850    -0.005640921937     0.005898464321
       2        0.007903864485     0.008385029798    -0.012414305744
       3        0.000063315923     0.000042947873     0.000000639905
       4       -0.003175170174    -0.002695735191     0.014084734423
       5       -0.000016053296    -0.000030128781     0.000003441407
       6        0.000001909016    -0.000022881348     0.000009893365
       7       -0.000015452001     0.000001767175     0.000020280332
       8       -0.000018455473    -0.000002291571     0.000004217641
       9       -0.000012004529     0.000006567786     0.000004416270
      10        0.000006509400    -0.000013071131     0.000001771779
      11        0.000010732957     0.000014274266    -0.000015209926
      12        0.000006773897    -0.000011984802     0.000006048922
      13       -0.000011725041     0.000001585840     0.000010332808
      14       -0.000003241336     0.000007073017     0.000003246091
      15        0.000006405203     0.000004481642    -0.000004364723
      16        0.000001838284    -0.000007061443    -0.000002390758
      17        0.000465949840    -0.000021370014    -0.007602726908
      18        0.000007861564    -0.000007968905    -0.000003011240
      19        0.000006076030     0.000000147348     0.000001783784
      20        0.000005955096    -0.000010459626    -0.000007261754

  **** Optimization is complete! (in 6 steps) ****
    Final optimized geometry and variables:
    Molecular point group: c1

    Geometry (in Angstrom), charge = 0, multiplicity = 1:

    O            0.823799543285     0.818252984067     1.420605106005
    C            0.943057927537    -0.090983901147     0.669912555202
    C           -0.058419384527    -0.486760822031    -0.385487902826
    O            1.960548532747    -0.963752196038     0.738704680915
    C           -1.317515445625     0.373778480427    -0.393023019804
    H            0.452911597450    -0.445771078326    -1.344924558965
    H           -0.294361995084    -1.535394034701    -0.226138705613
    C           -2.307947250283    -0.051639077328    -1.478135846639
    H           -1.040428992874     1.413823309759    -0.534805968048
    H           -1.793326242035     0.318751188794     0.581385806019
    C           -3.570442498083     0.809051773360    -1.494260162844
    H           -1.824514724531    -0.000215717590    -2.451725326445
    H           -2.583999311647    -1.093627438935    -1.329848103796
    H           -3.330372457053     1.852926366860    -1.674232002039
    H           -4.254861938232     0.487325139083    -2.272926527082
    H           -4.096151543476     0.750452096467    -0.545686733449
    C            3.268231567659    -0.428296938655     0.816305664114
    H            3.510149499274     0.099989499179    -0.098570218602
    H            3.934615294350    -1.268718044209     0.932887360955
    H            3.363613711208     0.239502963279     1.660032211310

  Mulliken Charges: (a.u.)
   Center  Symbol    Alpha    Beta     Spin     Total
       1     O     4.26967  4.26967  0.00000 -0.53934
       2     C     2.60577  2.60577  0.00000  0.78846
       3     C     3.21131  3.21131  0.00000 -0.42261
       4     O     4.31373  4.31373  0.00000 -0.62745
       5     C     3.15163  3.15163  0.00000 -0.30326
       6     H     0.40491  0.40491  0.00000  0.19017
       7     H     0.39824  0.39824  0.00000  0.20351
       8     C     3.15412  3.15412  0.00000 -0.30825
       9     H     0.41220  0.41220  0.00000  0.17561
      10     H     0.41163  0.41163  0.00000  0.17674
      11     C     3.23933  3.23933  0.00000 -0.47867
      12     H     0.42342  0.42342  0.00000  0.15315
      13     H     0.42247  0.42247  0.00000  0.15506
      14     H     0.42009  0.42009  0.00000  0.15981
      15     H     0.41866  0.41866  0.00000  0.16269
      16     H     0.41969  0.41969  0.00000  0.16063
      17     C     3.09521  3.09521  0.00000 -0.19042
      18     H     0.41929  0.41929  0.00000  0.16141
      19     H     0.40589  0.40589  0.00000  0.18822
      20     H     0.40273  0.40273  0.00000  0.19454

   Total alpha = 32.00000, Total beta = 32.00000, Total charge =  0.00000
