  ==> Input File <==

--------------------------------------------------------------------------
set {
	reference rhf
	basis 6-31G*
}

set_num_threads( 1 )
memory 2 gb

molecule MOL {
0 1

H	 2.176868	 -0.646004	 -0.217325
O	 1.337496	 -0.537251	 0.205931
C	 0.702312	 0.627605	 -0.264544
C	 -0.714990	 0.596302	 0.266387
H	 0.682322	 0.642550	 -1.350929
H	 1.215941	 1.520383	 0.085680
O	 -1.405996	 -0.526611	 -0.195820
H	 -1.257453	 1.468809	 -0.075599
H	 -0.688972	 0.618407	 1.353696
H	 -1.424473	 -0.484463	 -1.143393

	symmetry c1
}
set optking {
	frozen_dihedral = ("
		5 3 4 7
	")
}

ee = energy('scf')
oeprop('DIPOLE', 'QUADRUPOLE', 'MULLIKEN_CHARGES')
f=open( 'psi4out.xyz', 'w' )
f.write( "10  " )
f.write( str(ee) + "\n" )
f.write( MOL.save_string_xyz() )
f.close()
--------------------------------------------------------------------------

    Molecular point group: c1

    Geometry (in Angstrom), charge = 0, multiplicity = 1:

       Center              X                  Y                   Z               Mass
    ------------   -----------------  -----------------  -----------------  -----------------
           H          2.185540984165    -0.659134851765    -0.198391448726     1.007825032070
           O          1.346168984165    -0.550381851765     0.224864551274    15.994914619560
           C          0.710984984165     0.614474148235    -0.245610448726    12.000000000000
           C         -0.706317015835     0.583171148235     0.285320551274    12.000000000000
           H          0.690994984165     0.629419148235    -1.331995448726     1.007825032070
           H          1.224613984165     1.507252148235     0.104613551274     1.007825032070
           O         -1.397323015835    -0.539741851765    -0.176886448726    15.994914619560
           H         -1.248780015835     1.455678148235    -0.056665448726     1.007825032070
           H         -0.680299015835     0.605276148235     1.372629551274     1.007825032070
           H         -1.415800015835    -0.497593851765    -1.124459448726     1.007825032070

  Charge       = 0
  Multiplicity = 1
  Basis Set: 6-31G*
  Basis Set:

    Orbital Energies (a.u.)
    -----------------------

    Doubly Occupied:

       1A    -20.556827     2A    -20.551291     3A    -11.276546
       4A    -11.270003     5A     -1.374550     6A     -1.350118
       7A     -1.001487     8A     -0.844200     9A     -0.719092
      10A     -0.671158    11A     -0.660542    12A     -0.597438
      13A     -0.571331    14A     -0.536572    15A     -0.476595
      16A     -0.447458    17A     -0.435168

  @DF-RHF Final Energy:  -228.91640486463285

   => Energetics <=

    Nuclear Repulsion Energy =            134.2057687070964676
    One-Electron Energy =                -579.5637122406375283
    Two-Electron Energy =                 216.4415386689081515
    DFT Exchange-Correlation Energy =       0.0000000000000000
    Empirical Dispersion Energy =           0.0000000000000000
    PCM Polarization Energy =               0.0000000000000000
    EFP Energy =                            0.0000000000000000
    Total Energy =                       -228.9164048646329093

  Mulliken Charges: (a.u.)
   Center  Symbol    Alpha    Beta     Spin     Total
       1     H     0.28027  0.28027  0.00000  0.43946
       2     O     4.36331  4.36331  0.00000 -0.72661
       3     C     3.01029  3.01029  0.00000 -0.02057
       4     C     2.99951  2.99951  0.00000  0.00099
       5     H     0.43653  0.43653  0.00000  0.12694
       6     H     0.42806  0.42806  0.00000  0.14388
       7     O     4.35985  4.35985  0.00000 -0.71970
       8     H     0.43086  0.43086  0.00000  0.13827
       9     H     0.40753  0.40753  0.00000  0.18495
      10     H     0.28380  0.28380  0.00000  0.43240

   Total alpha = 17.00000, Total beta = 17.00000, Total charge =  0.00000
