  ==> Input File <==

--------------------------------------------------------------------------
set {
	reference rhf
	basis cc-pvtz
}

set_num_threads( 4 )
memory 2 gb

molecule MOL {
0 1

H	 1.536365	 1.097940	 1.152004
O	 0.741288	 0.589391	 1.203942
C	 0.489979	 0.078084	 0.002623
C	 -0.763662	 -0.754014	 0.000816
O	 1.196207	 0.271332	 -0.925713
C	 -2.038001	 0.074705	 -0.000833
H	 -0.712945	 -1.405886	 -0.864342
H	 -0.715137	 -1.405770	 0.866182
H	 -2.087267	 0.710831	 -0.874232
H	 -2.903419	 -0.576199	 -0.001922
H	 -2.089467	 0.710909	 0.872389

	symmetry c1
}
set optking {
	frozen_dihedral = ("
		2 3 4 7
	")
}

ee = optimize('scf')
oeprop('DIPOLE', 'QUADRUPOLE', 'MULLIKEN_CHARGES')
f=open( 'psi4out.xyz', 'w' )
f.write( "11  " )
f.write( str(ee) + "\n" )
f.write( MOL.save_string_xyz() )
f.close()
--------------------------------------------------------------------------

    Molecular point group: c1
  Charge       = 0
  Multiplicity = 1
  Basis Set: CC-PVTZ
  Basis Set:
  @DF-RHF Final Energy:  -266.95115049152798
    Total Energy =                       -266.9511504915279829
    Molecular point group: c1
  Basis Set: CC-PVTZ
  Basis Set:
  Basis Set: CC-PVTZ
  Basis Set:
  @DF-RHF Final Energy:  -266.95152172380381
    Total Energy =                       -266.9515217238038645
  Basis Set: CC-PVTZ
  Basis Set:
  Basis Set: CC-PVTZ
  Basis Set:
  @DF-RHF Final Energy:  -266.95064826040630
    Total Energy =                       -266.9506482604062398
  Basis Set: CC-PVTZ
  Basis Set:
  Basis Set: CC-PVTZ
  Basis Set:
  @DF-RHF Final Energy:  -266.95165536800704
    Total Energy =                       -266.9516553680070956
  Basis Set: CC-PVTZ
  Basis Set:
  Basis Set: CC-PVTZ
  Basis Set:
  @DF-RHF Final Energy:  -266.95165864291221
    Total Energy =                       -266.9516586429122071
  Basis Set: CC-PVTZ
  Basis Set:
  Charge       = 0
  Multiplicity = 1
  Basis Set: CC-PVTZ
  Basis Set:

    Orbital Energies (a.u.)
    -----------------------

    Doubly Occupied:

       1A    -20.605818     2A    -20.540006     3A    -11.373418
       4A    -11.241483     5A    -11.229353     6A     -1.478214
       7A     -1.369111     8A     -1.069099     9A     -0.914125
      10A     -0.818741    11A     -0.706434    12A     -0.688378
      13A     -0.643834    14A     -0.619278    15A     -0.594825
      16A     -0.545821    17A     -0.528112    18A     -0.513697
      19A     -0.481239    20A     -0.443948

  @DF-RHF Final Energy:  -266.95165882223137

   => Energetics <=

    Nuclear Repulsion Energy =            180.3874491660545232
    One-Electron Energy =                -721.8683479836731749
    Two-Electron Energy =                 274.5292399953871723
    DFT Exchange-Correlation Energy =       0.0000000000000000
    Empirical Dispersion Energy =           0.0000000000000000
    PCM Polarization Energy =               0.0000000000000000
    EFP Energy =                            0.0000000000000000
    Total Energy =                       -266.9516588222315363
    Molecular point group: c1
  Basis Set: CC-PVTZ
  Basis Set:

  -Total Gradient:
     Atom            X                  Y                   Z
    ------   -----------------  -----------------  -----------------
       1       -0.000010786095    -0.000001120134    -0.000014158561
       2        0.000121636074    -0.000205821509     0.000091927145
       3       -0.000115839526     0.000226663537    -0.000072226018
       4       -0.000132758475     0.000194532870    -0.000172581084
       5       -0.000021779985    -0.000015673597     0.000001668658
       6        0.000013035766    -0.000003553878     0.000009203198
       7        0.000153975248    -0.000203510726     0.000152357500
       8       -0.000004580773     0.000006108353    -0.000001590766
       9        0.000001033646    -0.000003301159     0.000003651634
      10        0.000002034114    -0.000002521657    -0.000001207763
      11       -0.000005969994     0.000008197899     0.000002956059

  **** Optimization is complete! (in 6 steps) ****
    Final optimized geometry and variables:
    Molecular point group: c1

    Geometry (in Angstrom), charge = 0, multiplicity = 1:

    H            1.581697982890     1.039379909245     1.063800815151
    O            0.814989236231     0.490722623005     1.135151328353
    C            0.537855827667    -0.003954773187    -0.067823810484
    C           -0.700266377310    -0.858313143303    -0.066815367008
    O            1.201106278633     0.238327434950    -1.016573313381
    C           -1.968235465374     0.000183025561    -0.080448291935
    H           -0.657620484654    -1.487444105859    -0.943356964509
    H           -0.688575974546    -1.485836642054     0.814970550984
    H           -1.996938571893     0.631968805063    -0.959528610956
    H           -2.844313137385    -0.635052754109    -0.094070545508
    H           -2.021911593368     0.631128416460     0.797275257765

  Mulliken Charges: (a.u.)
   Center  Symbol    Alpha    Beta     Spin     Total
       1     H     0.38021  0.38021  0.00000  0.23957
       2     O     4.16452  4.16452  0.00000 -0.32904
       3     C     2.79827  2.79827  0.00000  0.40346
       4     C     3.08961  3.08961  0.00000 -0.17922
       5     O     4.19583  4.19583  0.00000 -0.39167
       6     C     3.15037  3.15037  0.00000 -0.30073
       7     H     0.43696  0.43696  0.00000  0.12609
       8     H     0.44400  0.44400  0.00000  0.11200
       9     H     0.44677  0.44677  0.00000  0.10647
      10     H     0.44661  0.44661  0.00000  0.10678
      11     H     0.44685  0.44685  0.00000  0.10630

   Total alpha = 20.00000, Total beta = 20.00000, Total charge = -0.00000
