  ==> Input File <==

--------------------------------------------------------------------------
set {
	reference rhf
	basis 6-31G*
}

set_num_threads( 1 )
memory 2 gb

molecule MOL {
0 1

O	 2.862325	 1.357334	 0.000267
C	 2.843464	 0.164689	 -0.000222
C	 1.546494	 -0.624492	 -0.000609
C	 4.124123	 -0.644674	 -0.000428
C	 0.291004	 0.242674	 0.000989
H	 1.557904	 -1.283758	 -0.867573
H	 1.558622	 -1.285963	 0.864672
C	 0.609479	 1.735574	 -0.096921
H	 -0.276879	 0.044758	 0.904575
H	 -0.347142	 -0.053724	 -0.825489
C	 -0.642021	 2.615047	 -0.094824
H	 1.252512	 2.025277	 0.732915
H	 1.180415	 1.926764	 -1.004416
C	 -0.331704	 4.109773	 -0.192355
H	 -1.213174	 2.425269	 0.812253
H	 -1.285177	 2.326915	 -0.924480
C	 -1.586826	 4.981750	 -0.189450
H	 0.310172	 4.399224	 0.637124
H	 0.237912	 4.300948	 -1.099464
H	 -2.161421	 4.838606	 0.721318
H	 -1.334497	 6.035409	 -0.258982
H	 -2.233655	 4.740455	 -1.028220
H	 4.165367	 -1.288615	 -0.874074
H	 4.976217	 0.020734	 -0.001915
H	 4.166763	 -1.286207	 0.874930

	symmetry c1
}
set optking {
	frozen_dihedral = ("
		9 5 8 12,
		15 11 8 12,
		15 11 14 18,
		1 2 3 6
	")
}

ee = energy('scf')
oeprop('DIPOLE', 'QUADRUPOLE', 'MULLIKEN_CHARGES')
f=open( 'psi4out.xyz', 'w' )
f.write( "25  " )
f.write( str(ee) + "\n" )
f.write( MOL.save_string_xyz() )
f.close()
--------------------------------------------------------------------------

    Molecular point group: c1

    Geometry (in Angstrom), charge = 0, multiplicity = 1:

       Center              X                  Y                   Z               Mass
    ------------   -----------------  -----------------  -----------------  -----------------
           O          1.780002183197    -0.209780069454     0.064494666792    15.994914619560
           C          1.761141183197    -1.402425069454     0.064005666792    12.000000000000
           C          0.464171183197    -2.191606069454     0.063618666792    12.000000000000
           C          3.041800183197    -2.211788069454     0.063799666792    12.000000000000
           C         -0.791318816803    -1.324440069454     0.065216666792    12.000000000000
           H          0.475581183197    -2.850872069454    -0.803345333208     1.007825032070
           H          0.476299183197    -2.853077069454     0.928899666792     1.007825032070
           C         -0.472843816803     0.168459930546    -0.032693333208    12.000000000000
           H         -1.359201816803    -1.522356069454     0.968802666792     1.007825032070
           H         -1.429464816803    -1.620838069454    -0.761261333208     1.007825032070
           C         -1.724343816803     1.047932930546    -0.030596333208    12.000000000000
           H          0.170189183197     0.458162930546     0.797142666792     1.007825032070
           H          0.098092183197     0.359649930546    -0.940188333208     1.007825032070
           C         -1.414026816803     2.542658930546    -0.128127333208    12.000000000000
           H         -2.295496816803     0.858154930546     0.876480666792     1.007825032070
           H         -2.367499816803     0.759800930546    -0.860252333208     1.007825032070
           C         -2.669148816803     3.414635930546    -0.125222333208    12.000000000000
           H         -0.772150816803     2.832109930546     0.701351666792     1.007825032070
           H         -0.844410816803     2.733833930546    -1.035236333208     1.007825032070
           H         -3.243743816803     3.271491930546     0.785545666792     1.007825032070
           H         -2.416819816803     4.468294930546    -0.194754333208     1.007825032070
           H         -3.315977816803     3.173340930546    -0.963992333208     1.007825032070
           H          3.083044183197    -2.855729069454    -0.809846333208     1.007825032070
           H          3.893894183197    -1.546380069454     0.062312666792     1.007825032070
           H          3.084440183197    -2.853321069454     0.939157666792     1.007825032070

  Charge       = 0
  Multiplicity = 1
  Basis Set: 6-31G*
  Basis Set:

    Orbital Energies (a.u.)
    -----------------------

    Doubly Occupied:

       1A    -20.545311     2A    -11.330152     3A    -11.233030
       4A    -11.229975     5A    -11.214967     6A    -11.201303
       7A    -11.198199     8A    -11.194258     9A    -11.187018
      10A     -1.404075    11A     -1.082862    12A     -1.050325
      13A     -1.014617    14A     -0.959406    15A     -0.883114
      16A     -0.810429    17A     -0.780630    18A     -0.735432
      19A     -0.658766    20A     -0.651188    21A     -0.622109
      22A     -0.618992    23A     -0.590535    24A     -0.579487
      25A     -0.558967    26A     -0.554394    27A     -0.529295
      28A     -0.519264    29A     -0.512722    30A     -0.500749
      31A     -0.497046    32A     -0.457413    33A     -0.456187
      34A     -0.433647    35A     -0.430789    36A     -0.374825

  @DF-RHF Final Energy:  -387.09330846370250

   => Energetics <=

    Nuclear Repulsion Energy =            460.1882776440816656
    One-Electron Energy =               -1437.3603747696377013
    Two-Electron Energy =                 590.0787886618530820
    DFT Exchange-Correlation Energy =       0.0000000000000000
    Empirical Dispersion Energy =           0.0000000000000000
    PCM Polarization Energy =               0.0000000000000000
    EFP Energy =                            0.0000000000000000
    Total Energy =                       -387.0933084637030106

  Mulliken Charges: (a.u.)
   Center  Symbol    Alpha    Beta     Spin     Total
       1     O     4.25833  4.25833  0.00000 -0.51667
       2     C     2.73853  2.73853  0.00000  0.52293
       3     C     3.21542  3.21542  0.00000 -0.43084
       4     C     3.28565  3.28565  0.00000 -0.57129
       5     C     3.15382  3.15382  0.00000 -0.30764
       6     H     0.40576  0.40576  0.00000  0.18849
       7     H     0.40562  0.40562  0.00000  0.18875
       8     C     3.14815  3.14815  0.00000 -0.29629
       9     H     0.41933  0.41933  0.00000  0.16135
      10     H     0.41943  0.41943  0.00000  0.16115
      11     C     3.14600  3.14600  0.00000 -0.29200
      12     H     0.40582  0.40582  0.00000  0.18836
      13     H     0.41754  0.41754  0.00000  0.16492
      14     C     3.14933  3.14933  0.00000 -0.29865
      15     H     0.43124  0.43124  0.00000  0.13751
      16     H     0.43216  0.43216  0.00000  0.13569
      17     C     3.23841  3.23841  0.00000 -0.47682
      18     H     0.42318  0.42318  0.00000  0.15364
      19     H     0.42372  0.42372  0.00000  0.15256
      20     H     0.42368  0.42368  0.00000  0.15264
      21     H     0.42150  0.42150  0.00000  0.15699
      22     H     0.42370  0.42370  0.00000  0.15260
      23     H     0.40860  0.40860  0.00000  0.18279
      24     H     0.39648  0.39648  0.00000  0.20703
      25     H     0.40860  0.40860  0.00000  0.18279

   Total alpha = 36.00000, Total beta = 36.00000, Total charge = -0.00000
