                              Psi4 1.0.54 Driver

  ==> Input File <==

--------------------------------------------------------------------------
set {
	reference rhf
	basis cc-pvtz
}

set_num_threads( 4 )
memory 2 gb

molecule MOL {
0 1

H	 -4.260680	 0.805079	 -0.982112
O	 -3.458596	 0.315260	 -0.960865
C	 -3.176635	 -0.080824	 0.355601
C	 -1.763371	 0.265266	 0.799691
H	 -3.321825	 -1.153438	 0.379502
H	 -3.895468	 0.357385	 1.043382
C	 -0.673390	 -0.426948	 -0.013392
H	 -1.631049	 1.344913	 0.747560
H	 -1.664587	 -0.001624	 1.849167
C	 0.737842	 -0.043159	 0.423759
H	 -0.806103	 -0.190518	 -1.063345
H	 -0.797221	 -1.503753	 0.074146
C	 1.824000	 -0.743224	 -0.390623
H	 0.850588	 1.033777	 0.343840
H	 0.868587	 -0.286314	 1.476203
C	 3.255957	 -0.453067	 0.062319
H	 1.718250	 -0.470599	 -1.438164
H	 1.658105	 -1.815850	 -0.339904
C	 3.707029	 0.992337	 -0.133857
H	 3.928201	 -1.104096	 -0.488158
H	 3.362667	 -0.724561	 1.109374
H	 3.605811	 1.294044	 -1.171549
H	 4.748333	 1.111029	 0.143343
H	 3.129882	 1.683078	 0.468956

	symmetry c1
}
set optking {
	frozen_dihedral = ("
		1 2 3 5
	")
}

ee,wfn = optimize('scf', return_wfn=True)
oeprop( wfn, 'DIPOLE', 'QUADRUPOLE', 'MULLIKEN_CHARGES')
f=open( 'psi4out.xyz', 'w' )
f.write( "24  " )
f.write( str(ee) + "\n" )
f.write( MOL.save_string_xyz() )
f.close()
--------------------------------------------------------------------------

    Molecular point group: c1
  Charge       = 0
  Multiplicity = 1
  Basis Set: CC-PVTZ
  Basis Set:
  @DF-RHF Final Energy:  -349.37833558551341
    Total Energy =                       -349.3783355855129003
    Molecular point group: c1
  Basis Set: CC-PVTZ
  Basis Set:
  Basis Set: CC-PVTZ
  Basis Set:
  @DF-RHF Final Energy:  -349.37894697871445
    Total Energy =                       -349.3789469787146800
  Basis Set: CC-PVTZ
  Basis Set:
  Basis Set: CC-PVTZ
  Basis Set:
  @DF-RHF Final Energy:  -349.37908199136200
    Total Energy =                       -349.3790819913623409
  Basis Set: CC-PVTZ
  Basis Set:
  Basis Set: CC-PVTZ
  Basis Set:
  @DF-RHF Final Energy:  -349.37908785589104
    Total Energy =                       -349.3790878558913846
  Basis Set: CC-PVTZ
  Basis Set:
  Basis Set: CC-PVTZ
  Basis Set:
  @DF-RHF Final Energy:  -349.37909003717652
    Total Energy =                       -349.3790900371764678
  Basis Set: CC-PVTZ
  Basis Set:
  Charge       = 0
  Multiplicity = 1
  Basis Set: CC-PVTZ
  Basis Set:

    Orbital Energies (a.u.)
    -----------------------

    Doubly Occupied:

       1A    -20.544927     2A    -11.266104     3A    -11.209870
       4A    -11.209593     5A    -11.206676     6A    -11.206006
       7A    -11.204398     8A    -11.202811     9A     -1.362494
      10A     -1.086522    11A     -1.047127    12A     -0.985008
      13A     -0.913152    14A     -0.845074    15A     -0.792143
      16A     -0.773526    17A     -0.702709    18A     -0.650948
      19A     -0.627439    20A     -0.612450    21A     -0.584710
      22A     -0.579094    23A     -0.558001    24A     -0.534419
      25A     -0.524137    26A     -0.504178    27A     -0.491685
      28A     -0.482371    29A     -0.467028    30A     -0.454574
      31A     -0.450850    32A     -0.437299    33A     -0.425991

  @DF-RHF Final Energy:  -349.37909012901434

   => Energetics <=

    Nuclear Repulsion Energy =            384.9638660207568819
    One-Electron Energy =               -1236.7992849730908347
    Two-Electron Energy =                 502.4563288233201206
    DFT Exchange-Correlation Energy =       0.0000000000000000
    Empirical Dispersion Energy =           0.0000000000000000
    PCM Polarization Energy =               0.0000000000000000
    EFP Energy =                            0.0000000000000000
    Total Energy =                       -349.3790901290138322
    Molecular point group: c1
  Basis Set: CC-PVTZ
  Basis Set:

  -Total Gradient:
     Atom            X                  Y                   Z
    ------   -----------------  -----------------  -----------------
       1        0.000384518377     0.000635474246     0.000127050121
       2       -0.000322171888    -0.000812594403    -0.000193578345
       3       -0.000670831002     0.000251300455     0.000228154821
       4       -0.000013269966     0.000001329898     0.000023903956
       5        0.000613562736    -0.000083394042    -0.000159276238
       6        0.000011716130    -0.000000609150    -0.000002270278
       7       -0.000008893360    -0.000003530155    -0.000011484633
       8       -0.000001470727     0.000003523405     0.000000894972
       9       -0.000005999973     0.000006599795    -0.000004414509
      10       -0.000003196255    -0.000000346321    -0.000001386267
      11        0.000004864390    -0.000000014382    -0.000004593325
      12        0.000000920397     0.000001155704    -0.000002971904
      13        0.000004668483     0.000008977207    -0.000005622842
      14       -0.000009824980    -0.000012961894    -0.000004749192
      15        0.000000716906     0.000004724117     0.000005858862
      16       -0.000004582672     0.000001262980     0.000015543066
      17       -0.000002083174     0.000006365281     0.000000091577
      18        0.000003325248    -0.000002690922    -0.000006774237
      19        0.000006022773    -0.000000879205    -0.000003955116
      20        0.000000554951    -0.000003803142     0.000003083898
      21       -0.000000681289     0.000003721638     0.000004799119
      22       -0.000002468726     0.000003556081    -0.000003436891
      23        0.000001990679    -0.000002337771    -0.000003922345
      24        0.000012612941    -0.000004829420    -0.000000944272

  **** Optimization is complete! (in 6 steps) ****
    Final optimized geometry and variables:
    Molecular point group: c1

    Geometry (in Angstrom), charge = 0, multiplicity = 1:

    H           -4.207192511673     0.848931196386    -0.916149865677
    O           -3.416900078151     0.346463160632    -0.876921517503
    C           -3.163748698774    -0.072868970805     0.442807227577
    C           -1.742211174727     0.270908396034     0.851505840717
    H           -3.313450864496    -1.147206797138     0.503994267279
    H           -3.862666120302     0.392837304619     1.130251846642
    C           -0.679922753685    -0.418314550750    -0.000096666066
    H           -1.615861502064     1.348357016006     0.795182264999
    H           -1.612949055355    -0.008718611778     1.894648347955
    C            0.744404500532    -0.047958222148     0.404845953108
    H           -0.839983225860    -0.163180527348    -1.041565246015
    H           -0.807046802281    -1.495955610788     0.076026990191
    C            1.805227457818    -0.742464928629    -0.446877456302
    H            0.860068071189     1.029216981524     0.335693057601
    H            0.901612712085    -0.305663275281     1.450346437196
    C            3.250214535692    -0.465642715993    -0.028001374593
    H            1.673420625316    -0.455282743309    -1.487519142216
    H            1.635186039450    -1.814952805197    -0.406082202687
    C            3.704217010215     0.979714730122    -0.217935281099
    H            3.904408922522    -1.113202323630    -0.603895241607
    H            3.382776579054    -0.750832303703     1.012501069573
    H            3.575670728731     1.295615389016    -1.248332541047
    H            4.753596391770     1.089089169973     0.031532069393
    H            3.147985380440     1.665569982763     0.409523290725

  Mulliken Charges: (a.u.)
   Center  Symbol    Alpha    Beta     Spin     Total
       1     H     0.39242  0.39242  0.00000  0.21515
       2     O     4.20412  4.20412  0.00000 -0.40825
       3     C     2.97619  2.97619  0.00000  0.04762
       4     C     3.08339  3.08339  0.00000 -0.16678
       5     H     0.46962  0.46962  0.00000  0.06077
       6     H     0.46518  0.46518  0.00000  0.06965
       7     C     3.09203  3.09203  0.00000 -0.18406
       8     H     0.45728  0.45728  0.00000  0.08544
       9     H     0.45673  0.45673  0.00000  0.08653
      10     C     3.09147  3.09147  0.00000 -0.18294
      11     H     0.44366  0.44366  0.00000  0.11267
      12     H     0.45713  0.45713  0.00000  0.08575
      13     C     3.09420  3.09420  0.00000 -0.18841
      14     H     0.45254  0.45254  0.00000  0.09493
      15     H     0.45695  0.45695  0.00000  0.08609
      16     C     3.09019  3.09019  0.00000 -0.18037
      17     H     0.45348  0.45348  0.00000  0.09304
      18     H     0.45044  0.45044  0.00000  0.09912
      19     C     3.15233  3.15233  0.00000 -0.30466
      20     H     0.44907  0.44907  0.00000  0.10187
      21     H     0.45562  0.45562  0.00000  0.08876
      22     H     0.45478  0.45478  0.00000  0.09043
      23     H     0.44716  0.44716  0.00000  0.10567
      24     H     0.45401  0.45401  0.00000  0.09199

   Total alpha = 33.00000, Total beta = 33.00000, Total charge = -0.00000

*** Psi4 exiting successfully. Buy a developer a beer!
