  ==> Input File <==

--------------------------------------------------------------------------
set {
	reference rhf
	basis cc-pvtz
}

set_num_threads( 4 )
memory 2 gb

molecule MOL {
0 1

H	 -0.293828	 3.968221	 -1.119290
O	 -0.566329	 3.184708	 -0.678944
C	 0.497941	 2.270729	 -0.615789
C	 0.027642	 1.012027	 0.090274
H	 1.330724	 2.697600	 -0.062596
H	 0.857323	 2.037634	 -1.614274
C	 -1.138737	 0.285728	 -0.581921
H	 -0.261157	 1.282909	 1.100583
H	 0.877841	 0.339681	 0.175874
C	 -1.933983	 -0.631436	 0.343653
H	 -0.763151	 -0.285569	 -1.422081
H	 -1.808359	 1.035291	 -0.992333
H	 -2.789188	 -1.049673	 -0.174718
H	 -1.335629	 -1.461368	 0.700418
H	 -2.305435	 -0.092167	 1.209725

	symmetry c1
}
set optking {
	frozen_dihedral = ("
		8 4 7 11
	")
}

ee = optimize('scf')
oeprop('DIPOLE', 'QUADRUPOLE', 'MULLIKEN_CHARGES')
f=open( 'psi4out.xyz', 'w' )
f.write( "15  " )
f.write( str(ee) + "\n" )
f.write( MOL.save_string_xyz() )
f.close()
--------------------------------------------------------------------------

    Molecular point group: c1
  Charge       = 0
  Multiplicity = 1
  Basis Set: CC-PVTZ
  Basis Set:
  @DF-RHF Final Energy:  -232.23714834679237
    Total Energy =                       -232.2371483467925373
    Molecular point group: c1
  Basis Set: CC-PVTZ
  Basis Set:
  Basis Set: CC-PVTZ
  Basis Set:
  @DF-RHF Final Energy:  -232.23793742082427
    Total Energy =                       -232.2379374208243803
  Basis Set: CC-PVTZ
  Basis Set:
  Basis Set: CC-PVTZ
  Basis Set:
  @DF-RHF Final Energy:  -232.23799307049595
    Total Energy =                       -232.2379930704959747
  Basis Set: CC-PVTZ
  Basis Set:
  Basis Set: CC-PVTZ
  Basis Set:
  @DF-RHF Final Energy:  -232.23800021894570
    Total Energy =                       -232.2380002189454444
  Basis Set: CC-PVTZ
  Basis Set:
  Basis Set: CC-PVTZ
  Basis Set:
  @DF-RHF Final Energy:  -232.23800128326650
    Total Energy =                       -232.2380012832664988
  Basis Set: CC-PVTZ
  Basis Set:
  Charge       = 0
  Multiplicity = 1
  Basis Set: CC-PVTZ
  Basis Set:

    Orbital Energies (a.u.)
    -----------------------

    Doubly Occupied:

       1A    -20.546562     2A    -11.266350     3A    -11.210518
       4A    -11.207428     5A    -11.202520     6A     -1.364452
       7A     -1.065767     8A     -0.975013     9A     -0.856790
      10A     -0.787635    11A     -0.708883    12A     -0.636458
      13A     -0.614446    14A     -0.595192    15A     -0.547682
      16A     -0.524936    17A     -0.517099    18A     -0.476729
      19A     -0.464850    20A     -0.458751    21A     -0.432848

  @DF-RHF Final Energy:  -232.23800136607369

   => Energetics <=

    Nuclear Repulsion Energy =            188.9763748495043103
    One-Electron Energy =                -689.5069305081871107
    Two-Electron Energy =                 268.2925542926091111
    DFT Exchange-Correlation Energy =       0.0000000000000000
    Empirical Dispersion Energy =           0.0000000000000000
    PCM Polarization Energy =               0.0000000000000000
    EFP Energy =                            0.0000000000000000
    Total Energy =                       -232.2380013660737177
    Molecular point group: c1
  Basis Set: CC-PVTZ
  Basis Set:

  -Total Gradient:
     Atom            X                  Y                   Z
    ------   -----------------  -----------------  -----------------
       1       -0.000000452147     0.000004872138     0.000004312447
       2       -0.000002094293    -0.000003898708    -0.000012653899
       3       -0.000002153878    -0.000001874723     0.000012071373
       4       -0.001228128059     0.002909478479    -0.000873587447
       5        0.000001442179    -0.000009039243    -0.000005889702
       6        0.000001225174     0.000005782376    -0.000003350597
       7       -0.000222410569     0.002373080701    -0.002082281675
       8        0.001065695629    -0.002791056259     0.001078567452
       9       -0.000001204351     0.000000349398    -0.000006627522
      10        0.000001596631    -0.000002178245     0.000003711627
      11        0.000378739396    -0.002493851512     0.001891440632
      12        0.000001695327     0.000000051723    -0.000001331135
      13        0.000007179877     0.000006184638    -0.000000155825
      14        0.000000867594    -0.000003045612    -0.000003811805
      15       -0.000001998510     0.000005144849    -0.000000413924

  **** Optimization is complete! (in 6 steps) ****
    Final optimized geometry and variables:
    Molecular point group: c1

    Geometry (in Angstrom), charge = 0, multiplicity = 1:

    H            0.389600104836     2.698088864934    -0.811235001462
    O            0.107890205673     1.943231972306    -0.328796621164
    C            1.114326556508     0.964074960299    -0.331481999676
    C            0.610152744125    -0.265173039156     0.397369422503
    H            2.006929095479     1.339953538348     0.161872872171
    H            1.387433849278     0.702831585516    -1.352205431829
    C           -0.547535822133    -0.977007717969    -0.304359563488
    H            0.320420874342     0.012160234924     1.406138552440
    H            1.442760231943    -0.955739013364     0.506769790007
    C           -1.295008380449    -1.931877819141     0.622269329228
    H           -0.156787237346    -1.549287896489    -1.141363653895
    H           -1.237526469160    -0.244557797371    -0.703635301621
    H           -2.081908199891    -2.456540807852     0.092473470367
    H           -0.626279766695    -2.677104897302     1.041730138908
    H           -1.751159779748    -1.396409071452     1.447888171066

  Mulliken Charges: (a.u.)
   Center  Symbol    Alpha    Beta     Spin     Total
       1     H     0.39540  0.39540  0.00000  0.20921
       2     O     4.19879  4.19879  0.00000 -0.39758
       3     C     2.97269  2.97269  0.00000  0.05461
       4     C     3.08829  3.08829  0.00000 -0.17657
       5     H     0.46480  0.46480  0.00000  0.07041
       6     H     0.47365  0.47365  0.00000  0.05270
       7     C     3.08413  3.08413  0.00000 -0.16826
       8     H     0.45358  0.45358  0.00000  0.09284
       9     H     0.45427  0.45427  0.00000  0.09146
      10     C     3.14933  3.14933  0.00000 -0.29866
      11     H     0.45817  0.45817  0.00000  0.08366
      12     H     0.44633  0.44633  0.00000  0.10733
      13     H     0.44969  0.44969  0.00000  0.10063
      14     H     0.45722  0.45722  0.00000  0.08557
      15     H     0.45367  0.45367  0.00000  0.09266

   Total alpha = 21.00000, Total beta = 21.00000, Total charge = -0.00000
