  ==> Input File <==

--------------------------------------------------------------------------
set {
	reference rhf
	basis 6-31G*
}

set_num_threads( 4 )
memory 2 gb

molecule MOL {
0 1

O	 0.723930	 2.086683	 0.214582
C	 -0.332099	 2.432255	 0.636983
C	 -1.595613	 1.606861	 0.624653
O	 -0.540123	 3.621241	 1.188358
C	 -1.412532	 0.227344	 -0.000452
H	 -1.943750	 1.530843	 1.651189
H	 -2.353107	 2.180568	 0.097569
C	 -2.706999	 -0.587347	 -0.000541
H	 -0.639063	 -0.310677	 0.538791
H	 -1.048518	 0.339984	 -1.016971
C	 -3.956778	 0.291888	 0.000910
H	 -2.726114	 -1.239230	 -0.871609
H	 -2.725217	 -1.240844	 0.869333
H	 -3.985213	 0.933254	 -0.875158
H	 -4.860123	 -0.309979	 0.000519
H	 -3.984618	 0.931166	 0.878514
C	 0.569288	 4.498053	 1.262834
H	 1.360613	 4.060295	 1.854154
H	 0.203800	 5.397054	 1.734176
H	 0.945482	 4.719732	 0.274480

	symmetry c1
}
set optking {
	frozen_dihedral = ("
		9 5 8 12
	")
}

ee = optimize('scf')
oeprop('DIPOLE', 'QUADRUPOLE', 'MULLIKEN_CHARGES')
f=open( 'psi4out.xyz', 'w' )
f.write( "20  " )
f.write( str(ee) + "\n" )
f.write( MOL.save_string_xyz() )
f.close()
--------------------------------------------------------------------------

    Molecular point group: c1
  Charge       = 0
  Multiplicity = 1
  Basis Set: 6-31G*
  Basis Set:
  @DF-RHF Final Energy:  -383.93185643763627
    Total Energy =                       -383.9318564376368386
    Molecular point group: c1
  Basis Set: 6-31G*
  Basis Set:
  Basis Set: 6-31G*
  Basis Set:
  @DF-RHF Final Energy:  -383.93242714590139
    Total Energy =                       -383.9324271459014426
  Basis Set: 6-31G*
  Basis Set:
  Basis Set: 6-31G*
  Basis Set:
  @DF-RHF Final Energy:  -383.93478917739469
    Total Energy =                       -383.9347891773946913
  Basis Set: 6-31G*
  Basis Set:
  Basis Set: 6-31G*
  Basis Set:
  @DF-RHF Final Energy:  -383.93497993023919
    Total Energy =                       -383.9349799302390238
  Basis Set: 6-31G*
  Basis Set:
  @DF-RHF Final Energy:  -383.93367262960703
    Total Energy =                       -383.9336726296068036
  Basis Set: 6-31G*
  Basis Set:
  @DF-RHF Final Energy:  -383.93508488650292
    Total Energy =                       -383.9350848865030912
  Basis Set: 6-31G*
  Basis Set:
  Basis Set: 6-31G*
  Basis Set:
  @DF-RHF Final Energy:  -383.93508874159022
    Total Energy =                       -383.9350887415901070
  Basis Set: 6-31G*
  Basis Set:
  Basis Set: 6-31G*
  Basis Set:
  @DF-RHF Final Energy:  -383.93509032770373
    Total Energy =                       -383.9350903277037332
  Basis Set: 6-31G*
  Basis Set:
  Charge       = 0
  Multiplicity = 1
  Basis Set: 6-31G*
  Basis Set:

    Orbital Energies (a.u.)
    -----------------------

    Doubly Occupied:

       1A    -20.603373     2A    -20.545333     3A    -11.372021
       4A    -11.280698     5A    -11.234780     6A    -11.220774
       7A    -11.219764     8A    -11.213155     9A     -1.469133
      10A     -1.362587    11A     -1.086886    12A     -1.021211
      13A     -0.967273    14A     -0.897315    15A     -0.798530
      16A     -0.760988    17A     -0.701106    18A     -0.683317
      19A     -0.670934    20A     -0.642913    21A     -0.606487
      22A     -0.592959    23A     -0.565850    24A     -0.546962
      25A     -0.539864    26A     -0.522154    27A     -0.513106
      28A     -0.472651    29A     -0.467951    30A     -0.464913
      31A     -0.455005    32A     -0.437733

  @DF-RHF Final Energy:  -383.93509094103143

   => Energetics <=

    Nuclear Repulsion Energy =            385.7055177319405743
    One-Electron Energy =               -1287.4057650041017951
    Two-Electron Energy =                 517.7651563311300151
    DFT Exchange-Correlation Energy =       0.0000000000000000
    Empirical Dispersion Energy =           0.0000000000000000
    PCM Polarization Energy =               0.0000000000000000
    EFP Energy =                            0.0000000000000000
    Total Energy =                       -383.9350909410312624
    Molecular point group: c1
  Basis Set: 6-31G*
  Basis Set:

  -Total Gradient:
     Atom            X                  Y                   Z
    ------   -----------------  -----------------  -----------------
       1       -0.000009073864     0.000007581194    -0.000006562030
       2        0.000009106926    -0.000008345990     0.000003414356
       3        0.000008936345     0.000000245008     0.000021478616
       4       -0.000002229718    -0.000004475367     0.000002324293
       5        0.001537391665    -0.002637856969    -0.007284106217
       6       -0.000001217109     0.000002762634    -0.000005883557
       7       -0.000003112914     0.000000784311    -0.000008997559
       8        0.003373490708    -0.004563923989     0.005331104500
       9       -0.001804712073     0.002906614692     0.005336965616
      10        0.000004895641     0.000000311119     0.000002562452
      11       -0.000006280886     0.000004084706     0.000003041071
      12       -0.003107591168     0.004297409192    -0.003385752555
      13       -0.000000987092    -0.000002133676    -0.000002598747
      14        0.000002561899     0.000000103673    -0.000001620408
      15        0.000000273417    -0.000001147280     0.000000443451
      16       -0.000001097239    -0.000002573467    -0.000002311671
      17       -0.000001213421     0.000000287320    -0.000004470403
      18       -0.000000272813    -0.000000538237     0.000000358712
      19        0.000000081584    -0.000000049321     0.000000364013
      20        0.000001050108     0.000000860443     0.000000246065

  **** Optimization is complete! (in 9 steps) ****
    Final optimized geometry and variables:
    Molecular point group: c1

    Geometry (in Angstrom), charge = 0, multiplicity = 1:

    O            1.867739324096     0.270949270008    -0.288640412139
    C            0.823397406255     0.643743414640     0.139841862069
    C           -0.466688464805    -0.140757511514     0.125886543857
    O            0.653253002105     1.834389016564     0.701296553074
    C           -0.313028027747    -1.520440598658    -0.517396741376
    H           -0.805174676063    -0.218406491180     1.155548885182
    H           -1.203961122904     0.470609248923    -0.383172851057
    C           -1.582015021072    -2.399050269891    -0.467355632061
    H            0.481307066538    -2.021847251199     0.023700857010
    H            0.022311116647    -1.395532149803    -1.540255943339
    C           -2.918084473153    -1.649908764002    -0.534092215613
    H           -1.562301300604    -3.062662400163    -1.326907551969
    H           -1.568547757886    -3.018681112621     0.424056328472
    H           -2.978849009863    -1.024286055247    -1.420483700047
    H           -3.740404608460    -2.357134847243    -0.578281735298
    H           -3.081982317123    -1.016636146792     0.331420361048
    C            1.788887167810     2.676512596233     0.778766276732
    H            2.568760876112     2.210257648426     1.363529039093
    H            1.452448881738     3.582258160470     1.258800318444
    H            2.168254735542     2.894958346049    -0.209103349830

  Mulliken Charges: (a.u.)
   Center  Symbol    Alpha    Beta     Spin     Total
       1     O     4.28593  4.28593  0.00000 -0.57187
       2     C     2.60499  2.60499  0.00000  0.79001
       3     C     3.21183  3.21183  0.00000 -0.42366
       4     O     4.30735  4.30735  0.00000 -0.61470
       5     C     3.15444  3.15444  0.00000 -0.30887
       6     H     0.40109  0.40109  0.00000  0.19782
       7     H     0.39860  0.39860  0.00000  0.20280
       8     C     3.15537  3.15537  0.00000 -0.31075
       9     H     0.40904  0.40904  0.00000  0.18191
      10     H     0.41081  0.41081  0.00000  0.17838
      11     C     3.24573  3.24573  0.00000 -0.49146
      12     H     0.41747  0.41747  0.00000  0.16505
      13     H     0.41937  0.41937  0.00000  0.16126
      14     H     0.42130  0.42130  0.00000  0.15741
      15     H     0.41691  0.41691  0.00000  0.16617
      16     H     0.42067  0.42067  0.00000  0.15867
      17     C     3.09233  3.09233  0.00000 -0.18465
      18     H     0.40915  0.40915  0.00000  0.18169
      19     H     0.40849  0.40849  0.00000  0.18301
      20     H     0.40912  0.40912  0.00000  0.18176

   Total alpha = 32.00000, Total beta = 32.00000, Total charge =  0.00000
