  ==> Input File <==

--------------------------------------------------------------------------
set {
	reference rhf
	basis 6-31G*
}

set_num_threads( 4 )
memory 2 gb

molecule MOL {
0 1

H	 -3.063905	 0.158652	 -0.345835
O	 -2.347518	 -0.290803	 0.079804
C	 -1.184022	 0.487508	 -0.006784
C	 0.062599	 -0.378592	 0.031606
H	 -1.176523	 1.099369	 -0.904519
H	 -1.187323	 1.153111	 0.844927
O	 1.171513	 0.459272	 -0.058250
H	 0.050699	 -1.089204	 -0.797170
H	 0.078739	 -0.954914	 0.954740
C	 2.397842	 -0.198080	 -0.002151
H	 2.508049	 -0.905315	 -0.822092
H	 3.173794	 0.550865	 -0.078850
H	 2.517602	 -0.735921	 0.936026

	symmetry c1
}
set optking {
	frozen_dihedral = ("
		1 2 3 5
	")
}

ee = optimize('scf')
oeprop('DIPOLE', 'QUADRUPOLE', 'MULLIKEN_CHARGES')
f=open( 'psi4out.xyz', 'w' )
f.write( "13  " )
f.write( str(ee) + "\n" )
f.write( MOL.save_string_xyz() )
f.close()
--------------------------------------------------------------------------

    Molecular point group: c1
  Charge       = 0
  Multiplicity = 1
  Basis Set: 6-31G*
  Basis Set:
  @DF-RHF Final Energy:  -267.94902230194577
    Total Energy =                       -267.9490223019456039
    Molecular point group: c1
  Basis Set: 6-31G*
  Basis Set:
  Basis Set: 6-31G*
  Basis Set:
  @DF-RHF Final Energy:  -267.95000892431290
    Total Energy =                       -267.9500089243131242
  Basis Set: 6-31G*
  Basis Set:
  Basis Set: 6-31G*
  Basis Set:
  @DF-RHF Final Energy:  -267.95029420120272
    Total Energy =                       -267.9502942012026097
  Basis Set: 6-31G*
  Basis Set:
  Basis Set: 6-31G*
  Basis Set:
  @DF-RHF Final Energy:  -267.95030401858673
    Total Energy =                       -267.9503040185867917
  Basis Set: 6-31G*
  Basis Set:
  Charge       = 0
  Multiplicity = 1
  Basis Set: 6-31G*
  Basis Set:

    Orbital Energies (a.u.)
    -----------------------

    Doubly Occupied:

       1A    -20.558703     2A    -20.558270     3A    -11.268907
       4A    -11.267181     5A    -11.266254     6A     -1.385116
       7A     -1.363266     8A     -1.017972     9A     -0.911092
      10A     -0.831731    11A     -0.710401    12A     -0.681232
      13A     -0.641608    14A     -0.637924    15A     -0.613192
      16A     -0.550726    17A     -0.540781    18A     -0.494574
      19A     -0.472264    20A     -0.439308    21A     -0.418173

  @DF-RHF Final Energy:  -267.95030493038166

   => Energetics <=

    Nuclear Repulsion Energy =            190.3834700347478304
    One-Electron Energy =                -743.4102003255684394
    Two-Electron Energy =                 285.0764253604390888
    DFT Exchange-Correlation Energy =       0.0000000000000000
    Empirical Dispersion Energy =           0.0000000000000000
    PCM Polarization Energy =               0.0000000000000000
    EFP Energy =                            0.0000000000000000
    Total Energy =                       -267.9503049303815487
    Molecular point group: c1
  Basis Set: 6-31G*
  Basis Set:

  -Total Gradient:
     Atom            X                  Y                   Z
    ------   -----------------  -----------------  -----------------
       1        0.000358573020    -0.000670021159    -0.001175546638
       2       -0.000604469313     0.001113749118     0.001606014700
       3        0.000850898473    -0.001378180295    -0.000976603650
       4       -0.000024469534    -0.000013604117    -0.000015014124
       5       -0.000590770732     0.000901386369     0.000569929773
       6        0.000002665377    -0.000014793690    -0.000004098462
       7        0.000041199587     0.000025136199    -0.000000982270
       8       -0.000015353470    -0.000008080168    -0.000008466446
       9       -0.000014208458     0.000034441114    -0.000005163094
      10       -0.000000886823     0.000013061494     0.000016449239
      11       -0.000011954471     0.000003871290    -0.000000440864
      12        0.000006636523    -0.000001913448    -0.000002855917
      13        0.000002139822    -0.000005052706    -0.000003222248

  **** Optimization is complete! (in 5 steps) ****
    Final optimized geometry and variables:
    Molecular point group: c1

    Geometry (in Angstrom), charge = 0, multiplicity = 1:

    H           -3.040793525426     0.056161480029    -0.353975495622
    O           -2.303039317822    -0.330522409212     0.092819496938
    C           -1.178422284684     0.503325153926    -0.022012810637
    C            0.053616419965    -0.375658929484     0.009895007016
    H           -1.195848298105     1.073775165385    -0.945914472721
    H           -1.136970164585     1.211615493439     0.800159380511
    O            1.172446660530     0.454579325733    -0.047572774545
    H            0.035024617348    -1.065190853473    -0.831970325663
    H            0.053482113036    -0.967770819268     0.923080895321
    C            2.389635901955    -0.220480879046    -0.012813206272
    H            2.491756741120    -0.899918765102    -0.856792714105
    H            3.175920086154     0.520201882948    -0.061969156646
    H            2.500639785200    -0.792618683337     0.906132833515

  Mulliken Charges: (a.u.)
   Center  Symbol    Alpha    Beta     Spin     Total
       1     H     0.27768  0.27768  0.00000  0.44463
       2     O     4.37502  4.37502  0.00000 -0.75003
       3     C     3.00363  3.00363  0.00000 -0.00726
       4     C     2.99147  2.99147  0.00000  0.01707
       5     H     0.42452  0.42452  0.00000  0.15096
       6     H     0.42046  0.42046  0.00000  0.15908
       7     O     4.30951  4.30951  0.00000 -0.61902
       8     H     0.42630  0.42630  0.00000  0.14741
       9     H     0.42316  0.42316  0.00000  0.15369
      10     C     3.07954  3.07954  0.00000 -0.15907
      11     H     0.42884  0.42884  0.00000  0.14232
      12     H     0.41171  0.41171  0.00000  0.17657
      13     H     0.42817  0.42817  0.00000  0.14366

   Total alpha = 21.00000, Total beta = 21.00000, Total charge = -0.00000
