  ==> Input File <==

--------------------------------------------------------------------------
set {
	reference rhf
	basis cc-pvtz
}

set_num_threads( 4 )
memory 2 gb

molecule MOL {
0 1

H	 -2.062750	 0.490520	 -2.546605
N	 -1.103146	 0.386100	 -2.294955
C	 -0.836603	 -0.952360	 -1.801374
H	 -0.902396	 1.058251	 -1.585089
C	 0.617516	 -1.094653	 -1.414155
H	 -1.449027	 -1.227900	 -0.943727
H	 -1.047457	 -1.662746	 -2.593171
O	 0.881195	 -0.248324	 -0.336237
H	 0.827324	 -2.127324	 -1.138940
H	 1.248408	 -0.832461	 -2.260417
C	 2.208068	 -0.234417	 0.074171
H	 2.725499	 -1.027054	 -0.446768
H	 2.688377	 0.712084	 -0.164856
H	 2.295137	 -0.403407	 1.144883

	symmetry c1
}
set optking {
	frozen_dihedral = ("
		5 8 11 13
	")
}

ee = optimize('scf')
oeprop('DIPOLE', 'QUADRUPOLE', 'MULLIKEN_CHARGES')
f=open( 'psi4out.xyz', 'w' )
f.write( "14  " )
f.write( str(ee) + "\n" )
f.write( MOL.save_string_xyz() )
f.close()
--------------------------------------------------------------------------

    Molecular point group: c1
  Charge       = 0
  Multiplicity = 1
  Basis Set: CC-PVTZ
  Basis Set:
  @DF-RHF Final Energy:  -248.22178531867849
    Total Energy =                       -248.2217853186784851
    Molecular point group: c1
  Basis Set: CC-PVTZ
  Basis Set:
  Basis Set: CC-PVTZ
  Basis Set:
  @DF-RHF Final Energy:  -248.22261097352393
    Total Energy =                       -248.2226109735239561
  Basis Set: CC-PVTZ
  Basis Set:
  Basis Set: CC-PVTZ
  Basis Set:
  @DF-RHF Final Energy:  -248.22285299829414
    Total Energy =                       -248.2228529982940586
  Basis Set: CC-PVTZ
  Basis Set:
  Charge       = 0
  Multiplicity = 1
  Basis Set: CC-PVTZ
  Basis Set:

    Orbital Energies (a.u.)
    -----------------------

    Doubly Occupied:

       1A    -20.547429     2A    -15.523134     3A    -11.264372
       4A    -11.263213     5A    -11.239373     6A     -1.380047
       7A     -1.175559     8A     -1.000422     9A     -0.907850
      10A     -0.815301    11A     -0.684148    12A     -0.673576
      13A     -0.644868    14A     -0.611758    15A     -0.607329
      16A     -0.540583    17A     -0.535782    18A     -0.497346
      19A     -0.473677    20A     -0.414749    21A     -0.383527

  @DF-RHF Final Energy:  -248.22285485647919

   => Energetics <=

    Nuclear Repulsion Energy =            194.4174472327945580
    One-Electron Energy =                -722.9125230645154261
    Two-Electron Energy =                 280.2722209752416802
    DFT Exchange-Correlation Energy =       0.0000000000000000
    Empirical Dispersion Energy =           0.0000000000000000
    PCM Polarization Energy =               0.0000000000000000
    EFP Energy =                            0.0000000000000000
    Total Energy =                       -248.2228548564792163
    Molecular point group: c1
  Basis Set: CC-PVTZ
  Basis Set:

  -Total Gradient:
     Atom            X                  Y                   Z
    ------   -----------------  -----------------  -----------------
       1        0.000002210992    -0.000010023102     0.000002586133
       2        0.000005548159    -0.000009660771    -0.000000275216
       3       -0.000018205253     0.000015599323     0.000011557848
       4        0.000004981653    -0.000008834332     0.000001240122
       5       -0.000232162802    -0.000911199872     0.000746922679
       6        0.000000649137     0.000004460698    -0.000005819853
       7       -0.000008058439    -0.000004429647    -0.000009974415
       8        0.000371950738     0.001560157635    -0.000718643575
       9        0.000006057214     0.000019944237     0.000016830437
      10        0.000001835807     0.000000513970     0.000017263637
      11        0.000349974011    -0.001248538303    -0.001404731580
      12        0.000042699718    -0.000010767208    -0.000007966442
      13       -0.000530718346     0.000573190058     0.001332229128
      14        0.000003237413     0.000029587314     0.000018781096

  **** Optimization is complete! (in 4 steps) ****
    Final optimized geometry and variables:
    Molecular point group: c1

    Geometry (in Angstrom), charge = 0, multiplicity = 1:

    H           -2.427919744502     0.921472076032    -1.377193773929
    N           -1.466314771558     0.809020342584    -1.136970463380
    C           -1.203532987129    -0.534032785483    -0.654162474380
    H           -1.253343180696     1.475096724313    -0.424979525056
    C            0.254098289779    -0.689564573883    -0.285920626110
    H           -1.807008035336    -0.809573577407     0.209823680158
    H           -1.429472265909    -1.238815824619    -1.446960042032
    O            0.533361098417     0.151948767903     0.793472169866
    H            0.457129840154    -1.724555236717    -0.017007828450
    H            0.873730340735    -0.429550172443    -1.140529781964
    C            1.860080089260     0.180126614088     1.221746909737
    H            2.449529590385    -0.611268310245     0.771112472194
    H            2.315097490422     1.134668599846     0.979081224551
    H            1.888020648841     0.054603894513     2.297417570055

  Mulliken Charges: (a.u.)
   Center  Symbol    Alpha    Beta     Spin     Total
       1     H     0.43034  0.43034  0.00000  0.13931
       2     N     3.69426  3.69426  0.00000 -0.38851
       3     C     3.02422  3.02422  0.00000 -0.04845
       4     H     0.42222  0.42222  0.00000  0.15557
       5     C     2.96740  2.96740  0.00000  0.06519
       6     H     0.46486  0.46486  0.00000  0.07027
       7     H     0.45877  0.45877  0.00000  0.08246
       8     O     4.18426  4.18426  0.00000 -0.36852
       9     H     0.46962  0.46962  0.00000  0.06076
      10     H     0.46926  0.46926  0.00000  0.06148
      11     C     3.02763  3.02763  0.00000 -0.05526
      12     H     0.47142  0.47142  0.00000  0.05716
      13     H     0.45939  0.45939  0.00000  0.08121
      14     H     0.45635  0.45635  0.00000  0.08731

   Total alpha = 21.00000, Total beta = 21.00000, Total charge =  0.00000
