  ==> Input File <==

--------------------------------------------------------------------------
set {
	reference rhf
	basis 6-31G*
}

set_num_threads( 1 )
memory 2 gb

molecule MOL {
0 1

O	 2.905137	 1.287170	 -0.398957
C	 2.843464	 0.164689	 -0.000222
C	 1.546494	 -0.624492	 -0.000609
C	 4.066530	 -0.550286	 0.536506
C	 0.291004	 0.242674	 0.000989
H	 1.557904	 -1.283758	 -0.867573
H	 1.558622	 -1.285963	 0.864672
C	 -0.994322	 -0.586602	 0.000262
H	 0.309117	 0.896430	 -0.865270
H	 0.309661	 0.894078	 0.869017
C	 -2.259874	 0.272531	 0.000494
H	 -1.004862	 -1.240012	 -0.870939
H	 -1.005220	 -1.241071	 0.870675
C	 -3.549786	 -0.549746	 -0.000374
H	 -2.250389	 0.926680	 -0.869574
H	 -2.250838	 0.925513	 0.871430
C	 -4.809590	 0.315458	 -0.000369
H	 -3.560515	 -1.202009	 -0.871156
H	 -3.561123	 -1.202955	 0.869711
H	 -4.844746	 0.956611	 -0.876632
H	 -5.706986	 -0.295590	 -0.001609
H	 -4.845960	 0.954827	 0.877144
H	 4.263117	 -1.449671	 -0.039757
H	 4.924319	 0.105785	 0.485506
H	 3.904923	 -0.856229	 1.566028

	symmetry c1
}
set optking {
	frozen_dihedral = ("
		9 5 8 12,
		15 11 8 12,
		15 11 14 18,
		9 5 3 6
	")
}

ee = energy('scf')
oeprop('DIPOLE', 'QUADRUPOLE', 'MULLIKEN_CHARGES')
f=open( 'psi4out.xyz', 'w' )
f.write( "25  " )
f.write( str(ee) + "\n" )
f.write( MOL.save_string_xyz() )
f.close()
--------------------------------------------------------------------------

    Molecular point group: c1

    Geometry (in Angstrom), charge = 0, multiplicity = 1:

       Center              X                  Y                   Z               Mass
    ------------   -----------------  -----------------  -----------------  -----------------
           O          2.906885409336     1.284304384629    -0.415240588660    15.994914619560
           C          2.845212409336     0.161823384629    -0.016505588660    12.000000000000
           C          1.548242409336    -0.627357615371    -0.016892588660    12.000000000000
           C          4.068278409336    -0.553151615371     0.520222411340    12.000000000000
           C          0.292752409336     0.239808384629    -0.015294588660    12.000000000000
           H          1.559652409336    -1.286623615371    -0.883856588660     1.007825032070
           H          1.560370409336    -1.288828615371     0.848388411340     1.007825032070
           C         -0.992573590664    -0.589467615371    -0.016021588660    12.000000000000
           H          0.310865409336     0.893564384629    -0.881553588660     1.007825032070
           H          0.311409409336     0.891212384629     0.852733411340     1.007825032070
           C         -2.258125590664     0.269665384629    -0.015789588660    12.000000000000
           H         -1.003113590664    -1.242877615371    -0.887222588660     1.007825032070
           H         -1.003471590664    -1.243936615371     0.854391411340     1.007825032070
           C         -3.548037590664    -0.552611615371    -0.016657588660    12.000000000000
           H         -2.248640590664     0.923814384629    -0.885857588660     1.007825032070
           H         -2.249089590664     0.922647384629     0.855146411340     1.007825032070
           C         -4.807841590664     0.312592384629    -0.016652588660    12.000000000000
           H         -3.558766590664    -1.204874615371    -0.887439588660     1.007825032070
           H         -3.559374590664    -1.205820615371     0.853427411340     1.007825032070
           H         -4.842997590664     0.953745384629    -0.892915588660     1.007825032070
           H         -5.705237590664    -0.298455615371    -0.017892588660     1.007825032070
           H         -4.844211590664     0.951961384629     0.860860411340     1.007825032070
           H          4.264865409336    -1.452536615371    -0.056040588660     1.007825032070
           H          4.926067409336     0.102919384629     0.469222411340     1.007825032070
           H          3.906671409336    -0.859094615371     1.549744411340     1.007825032070

  Charge       = 0
  Multiplicity = 1
  Basis Set: 6-31G*
  Basis Set:

    Orbital Energies (a.u.)
    -----------------------

    Doubly Occupied:

       1A    -20.549876     2A    -11.326153     3A    -11.231522
       4A    -11.228235     5A    -11.218593     6A    -11.217519
       7A    -11.215829     8A    -11.214136     9A    -11.208680
      10A     -1.395317    11A     -1.094378    12A     -1.056753
      13A     -1.014453    14A     -0.969432    15A     -0.891170
      16A     -0.814786    17A     -0.791484    18A     -0.730264
      19A     -0.662256    20A     -0.650984    21A     -0.633368
      22A     -0.621294    23A     -0.596751    24A     -0.584734
      25A     -0.567143    26A     -0.559802    27A     -0.540657
      28A     -0.528501    29A     -0.512007    30A     -0.491000
      31A     -0.487698    32A     -0.473337    33A     -0.464421
      34A     -0.463001    35A     -0.451226    36A     -0.398401

  @DF-RHF Final Energy:  -387.13580793855482

   => Energetics <=

    Nuclear Repulsion Energy =            438.2578894513590626
    One-Electron Energy =               -1393.0771220402282324
    Two-Electron Energy =                 567.6834246503163968
    DFT Exchange-Correlation Energy =       0.0000000000000000
    Empirical Dispersion Energy =           0.0000000000000000
    PCM Polarization Energy =               0.0000000000000000
    EFP Energy =                            0.0000000000000000
    Total Energy =                       -387.1358079385528299

  Mulliken Charges: (a.u.)
   Center  Symbol    Alpha    Beta     Spin     Total
       1     O     4.26175  4.26175  0.00000 -0.52350
       2     C     2.73487  2.73487  0.00000  0.53027
       3     C     3.20979  3.20979  0.00000 -0.41959
       4     C     3.28773  3.28773  0.00000 -0.57546
       5     C     3.15023  3.15023  0.00000 -0.30045
       6     H     0.40513  0.40513  0.00000  0.18974
       7     H     0.41465  0.41465  0.00000  0.17071
       8     C     3.15374  3.15374  0.00000 -0.30748
       9     H     0.40685  0.40685  0.00000  0.18629
      10     H     0.41684  0.41684  0.00000  0.16632
      11     C     3.15089  3.15089  0.00000 -0.30179
      12     H     0.42396  0.42396  0.00000  0.15207
      13     H     0.42489  0.42489  0.00000  0.15023
      14     C     3.15157  3.15157  0.00000 -0.30314
      15     H     0.42191  0.42191  0.00000  0.15617
      16     H     0.42295  0.42295  0.00000  0.15410
      17     C     3.23936  3.23936  0.00000 -0.47872
      18     H     0.42326  0.42326  0.00000  0.15347
      19     H     0.42359  0.42359  0.00000  0.15281
      20     H     0.42119  0.42119  0.00000  0.15763
      21     H     0.41943  0.41943  0.00000  0.16114
      22     H     0.42151  0.42151  0.00000  0.15698
      23     H     0.40862  0.40862  0.00000  0.18276
      24     H     0.39687  0.39687  0.00000  0.20626
      25     H     0.40842  0.40842  0.00000  0.18317

   Total alpha = 36.00000, Total beta = 36.00000, Total charge = -0.00000
