  ==> Input File <==

--------------------------------------------------------------------------
set {
	reference rhf
	basis cc-pvtz
}

set_num_threads( 4 )
memory 2 gb

molecule MOL {
0 1

H	 -3.162190	 0.493205	 -0.000107
C	 -2.363908	 -0.234727	 0.000005
O	 -1.158738	 0.454634	 -0.000087
H	 -2.464314	 -0.863616	 -0.882153
H	 -2.464327	 -0.863359	 0.882345
C	 -0.028611	 -0.359694	 0.000037
C	 1.212847	 0.509314	 -0.000053
H	 -0.034155	 -1.007047	 -0.877198
H	 -0.034195	 -1.006836	 0.877430
C	 1.137344	 1.632716	 1.027866
H	 2.074467	 -0.119224	 0.196101
H	 1.346094	 0.921153	 -0.994329
H	 1.028152	 1.241443	 2.033882
H	 2.035916	 2.236973	 1.006378
H	 0.295102	 2.288936	 0.835327

	symmetry c1
}
set optking {
	frozen_dihedral = ("
		11 7 6 8
	")
}

ee = optimize('scf')
oeprop('DIPOLE', 'QUADRUPOLE', 'MULLIKEN_CHARGES')
f=open( 'psi4out.xyz', 'w' )
f.write( "15  " )
f.write( str(ee) + "\n" )
f.write( MOL.save_string_xyz() )
f.close()
--------------------------------------------------------------------------

    Molecular point group: c1
  Charge       = 0
  Multiplicity = 1
  Basis Set: CC-PVTZ
  Basis Set:
  @DF-RHF Final Energy:  -232.22656802599656
    Total Energy =                       -232.2265680259965848
    Molecular point group: c1
  Basis Set: CC-PVTZ
  Basis Set:
  Basis Set: CC-PVTZ
  Basis Set:
  @DF-RHF Final Energy:  -232.22691511708024
    Total Energy =                       -232.2269151170802388
  Basis Set: CC-PVTZ
  Basis Set:
  Basis Set: CC-PVTZ
  Basis Set:
  @DF-RHF Final Energy:  -232.22708822395276
    Total Energy =                       -232.2270882239528191
  Basis Set: CC-PVTZ
  Basis Set:
  Basis Set: CC-PVTZ
  Basis Set:
  @DF-RHF Final Energy:  -232.22709163233276
    Total Energy =                       -232.2270916323329288
  Basis Set: CC-PVTZ
  Basis Set:
  Charge       = 0
  Multiplicity = 1
  Basis Set: CC-PVTZ
  Basis Set:

    Orbital Energies (a.u.)
    -----------------------

    Doubly Occupied:

       1A    -20.547537     2A    -11.265148     3A    -11.262196
       4A    -11.213994     5A    -11.200675     6A     -1.381965
       7A     -1.054283     8A     -0.950359     9A     -0.888012
      10A     -0.796989    11A     -0.674286    12A     -0.661044
      13A     -0.635050    14A     -0.597385    15A     -0.560668
      16A     -0.546052    17A     -0.502908    18A     -0.483881
      19A     -0.477096    20A     -0.460019    21A     -0.416297

  @DF-RHF Final Energy:  -232.22709195562805

   => Energetics <=

    Nuclear Repulsion Energy =            193.4323340350271678
    One-Electron Energy =                -698.1671649366452357
    Two-Electron Energy =                 272.5077389459897859
    DFT Exchange-Correlation Energy =       0.0000000000000000
    Empirical Dispersion Energy =           0.0000000000000000
    PCM Polarization Energy =               0.0000000000000000
    EFP Energy =                            0.0000000000000000
    Total Energy =                       -232.2270919556282820
    Molecular point group: c1
  Basis Set: CC-PVTZ
  Basis Set:

  -Total Gradient:
     Atom            X                  Y                   Z
    ------   -----------------  -----------------  -----------------
       1        0.000008168270     0.000002585864     0.000000018661
       2       -0.000017553647    -0.000017060220     0.000000683111
       3        0.000067291582    -0.000024005226     0.000001107665
       4        0.000001069511     0.000002991690     0.000001456110
       5       -0.000000306172     0.000000524365    -0.000000034972
       6        0.002270074152    -0.003159293789     0.003298416628
       7        0.000001382878    -0.000115475722    -0.005056512714
       8       -0.001948183930     0.002688060926    -0.001999399959
       9       -0.000000637144    -0.000005283302    -0.000005167504
      10        0.000013265650    -0.000027215008    -0.000006789774
      11       -0.000373367300     0.000647580650     0.003757978187
      12       -0.000000661578    -0.000006732253     0.000001971500
      13       -0.000002615340     0.000005277947     0.000014215323
      14       -0.000007978379    -0.000000876583     0.000000400595
      15       -0.000009948555     0.000008920660    -0.000008342858

  **** Optimization is complete! (in 5 steps) ****
    Final optimized geometry and variables:
    Molecular point group: c1

    Geometry (in Angstrom), charge = 0, multiplicity = 1:

    H           -2.909329333205     0.055545367266    -0.245820784119
    C           -2.097480080019    -0.657099708374    -0.223405315223
    O           -0.905388186946     0.053422883718    -0.219411858812
    H           -2.175132079836    -1.302570295807    -1.096018057513
    H           -2.198081185680    -1.273140163577     0.667882960483
    C            0.240075298473    -0.743252437467    -0.188698096669
    C            1.479264210035     0.135523403012    -0.214374479121
    H            0.235247160979    -1.396727123922    -1.059860465404
    H            0.234529755664    -1.366010911985     0.705325983351
    C            1.459168419043     1.247553016709     0.831293663437
    H            2.336399273925    -0.502538170341    -0.019729756066
    H            1.600540558689     0.561349824774    -1.203987006210
    H            1.341032687670     0.840269734583     1.830459958461
    H            2.387970988809     1.806062878088     0.809453622685
    H            0.644376340973     1.935598039576     0.655812652981

  Mulliken Charges: (a.u.)
   Center  Symbol    Alpha    Beta     Spin     Total
       1     H     0.44742  0.44742  0.00000  0.10517
       2     C     3.03052  3.03052  0.00000 -0.06103
       3     O     4.17451  4.17451  0.00000 -0.34902
       4     H     0.47183  0.47183  0.00000  0.05633
       5     H     0.47245  0.47245  0.00000  0.05509
       6     C     2.97311  2.97311  0.00000  0.05379
       7     C     3.08232  3.08232  0.00000 -0.16463
       8     H     0.46593  0.46593  0.00000  0.06814
       9     H     0.47141  0.47141  0.00000  0.05718
      10     C     3.14618  3.14618  0.00000 -0.29237
      11     H     0.45637  0.45637  0.00000  0.08725
      12     H     0.45253  0.45253  0.00000  0.09494
      13     H     0.45875  0.45875  0.00000  0.08251
      14     H     0.45186  0.45186  0.00000  0.09628
      15     H     0.44481  0.44481  0.00000  0.11038

   Total alpha = 21.00000, Total beta = 21.00000, Total charge =  0.00000
