                              Psi4 1.0.54 Driver

  ==> Input File <==

--------------------------------------------------------------------------
set {
	reference rhf
	basis cc-pvtz
}

set_num_threads( 4 )
memory 2 gb

molecule MOL {
0 1

H	 -1.088256	 -1.364742	 0.152233
O	 -1.432053	 -0.565244	 -0.200812
C	 -0.727158	 0.534527	 0.310686
C	 0.680222	 0.664433	 -0.252229
H	 -1.306802	 1.408001	 0.044211
H	 -0.690821	 0.490158	 1.397609
C	 1.594324	 1.567825	 0.570174
H	 1.115732	 -0.326440	 -0.327945
H	 0.601876	 1.054290	 -1.263427
H	 1.745017	 1.177267	 1.570614
H	 2.571450	 1.653282	 0.110309
H	 1.183020	 2.568881	 0.657764

	symmetry c1
}
set optking {
	frozen_dihedral = ("
		8 4 3 2
	")
}

ee,wfn = optimize('scf', return_wfn=True)
oeprop( wfn, 'DIPOLE', 'QUADRUPOLE', 'MULLIKEN_CHARGES')
f=open( 'psi4out.xyz', 'w' )
f.write( "12  " )
f.write( str(ee) + "\n" )
f.write( MOL.save_string_xyz() )
f.close()
--------------------------------------------------------------------------

    Molecular point group: c1
  Charge       = 0
  Multiplicity = 1
  Basis Set: CC-PVTZ
  Basis Set:
  @DF-RHF Final Energy:  -193.18926834928129
    Total Energy =                       -193.1892683492812353
    Molecular point group: c1
  Basis Set: CC-PVTZ
  Basis Set:
  Basis Set: CC-PVTZ
  Basis Set:
  @DF-RHF Final Energy:  -193.18957759659449
    Total Energy =                       -193.1895775965944608
  Basis Set: CC-PVTZ
  Basis Set:
  Basis Set: CC-PVTZ
  Basis Set:
  @DF-RHF Final Energy:  -193.18963526762317
    Total Energy =                       -193.1896352676232880
  Basis Set: CC-PVTZ
  Basis Set:
  Basis Set: CC-PVTZ
  Basis Set:
  @DF-RHF Final Energy:  -193.18964130709304
    Total Energy =                       -193.1896413070930976
  Basis Set: CC-PVTZ
  Basis Set:
  Charge       = 0
  Multiplicity = 1
  Basis Set: CC-PVTZ
  Basis Set:

    Orbital Energies (a.u.)
    -----------------------

    Doubly Occupied:

       1A    -20.545852     2A    -11.265936     3A    -11.218131
       4A    -11.214797     5A     -1.364444     6A     -1.054058
       7A     -0.919899     8A     -0.820421     9A     -0.695459
      10A     -0.637467    11A     -0.599503    12A     -0.583021
      13A     -0.554155    14A     -0.506120    15A     -0.495755
      16A     -0.467650    17A     -0.432220

  @DF-RHF Final Energy:  -193.18964175556880

   => Energetics <=

    Nuclear Repulsion Energy =            131.1378443694109137
    One-Electron Energy =                -521.9051994919698245
    Two-Electron Energy =                 197.5777133669901104
    DFT Exchange-Correlation Energy =       0.0000000000000000
    Empirical Dispersion Energy =           0.0000000000000000
    PCM Polarization Energy =               0.0000000000000000
    EFP Energy =                            0.0000000000000000
    Total Energy =                       -193.1896417555688004
    Molecular point group: c1
  Basis Set: CC-PVTZ
  Basis Set:

  -Total Gradient:
     Atom            X                  Y                   Z
    ------   -----------------  -----------------  -----------------
       1       -0.000002676978     0.000016537038     0.000000008609
       2        0.001159367325    -0.001868262203     0.002474243371
       3       -0.001870713660     0.002513133846    -0.004214787389
       4        0.002326639867    -0.000214501255     0.005645863822
       5       -0.000018184496    -0.000030157836    -0.000017600291
       6       -0.000019990743    -0.000014372106     0.000011020520
       7       -0.000018530125    -0.000045444206    -0.000021908908
       8       -0.001530927144    -0.000390474683    -0.003861201608
       9       -0.000000405821     0.000008043057    -0.000019453269
      10        0.000001464590     0.000001589975    -0.000010258187
      11       -0.000017393281    -0.000001302011     0.000017829709
      12       -0.000008649537     0.000025210381    -0.000003756378

  **** Optimization is complete! (in 5 steps) ****
    Final optimized geometry and variables:
    Molecular point group: c1

    Geometry (in Angstrom), charge = 0, multiplicity = 1:

    H           -1.005463463101    -1.868507626787    -0.059534102076
    O           -1.435385177178    -1.068515820152    -0.300624145810
    C           -0.720809195849     0.024786639729     0.206712644282
    C            0.687786992089     0.135037046663    -0.365355493220
    H           -1.298405331868     0.906311528583    -0.037489929168
    H           -0.671711162872    -0.034935330122     1.292663868723
    C            1.591087777565     1.053619927053     0.447354105254
    H            1.115192616304    -0.861574687918    -0.441648255349
    H            0.621674968867     0.493799301287    -1.387915927652
    H            1.728708231767     0.679841451151     1.456259898153
    H            2.569052772930     1.143834979518    -0.009394187996
    H            1.169935897903     2.051086630316     0.520546518932

  Mulliken Charges: (a.u.)
   Center  Symbol    Alpha    Beta     Spin     Total
       1     H     0.39461  0.39461  0.00000  0.21077
       2     O     4.20244  4.20244  0.00000 -0.40489
       3     C     2.96633  2.96633  0.00000  0.06733
       4     C     3.08594  3.08594  0.00000 -0.17187
       5     H     0.45325  0.45325  0.00000  0.09349
       6     H     0.47509  0.47509  0.00000  0.04982
       7     C     3.15264  3.15264  0.00000 -0.30529
       8     H     0.46139  0.46139  0.00000  0.07722
       9     H     0.45189  0.45189  0.00000  0.09622
      10     H     0.45569  0.45569  0.00000  0.08861
      11     H     0.44701  0.44701  0.00000  0.10598
      12     H     0.45371  0.45371  0.00000  0.09259

   Total alpha = 17.00000, Total beta = 17.00000, Total charge = -0.00000

*** Psi4 exiting successfully. Buy a developer a beer!
