  ==> Input File <==

--------------------------------------------------------------------------
set {
	reference rhf
	basis 6-31G*
}

set_num_threads( 1 )
memory 2 gb

molecule MOL {
0 1

H	 1.084169	 1.339281	 -3.431568
O	 1.949449	 0.990654	 -3.589111
C	 2.608759	 0.788732	 -2.364941
C	 2.067835	 -0.401199	 -1.579962
H	 3.648271	 0.619610	 -2.614914
H	 2.565586	 1.690715	 -1.755561
C	 0.612139	 -0.242829	 -1.134164
H	 2.166642	 -1.292813	 -2.193663
H	 2.700102	 -0.546216	 -0.705562
C	 0.115918	 -1.429151	 -0.302766
H	 -0.018900	 -0.124807	 -2.010649
H	 0.510112	 0.671093	 -0.548778
C	 -1.309753	 -1.282496	 0.241564
H	 0.181570	 -2.337022	 -0.899681
H	 0.792444	 -1.569893	 0.537594
C	 -2.037799	 -0.007733	 -0.193645
H	 -1.890610	 -2.142323	 -0.085726
H	 -1.285946	 -1.330893	 1.329189
C	 -3.489788	 0.042957	 0.286558
H	 -2.017067	 0.064384	 -1.280144
H	 -1.513726	 0.868678	 0.179924
C	 -4.216917	 1.317354	 -0.141063
H	 -4.025645	 -0.823308	 -0.095450
H	 -3.513059	 -0.038752	 1.371301
H	 -4.239342	 1.411634	 -1.223113
H	 -5.243387	 1.322503	 0.212445
H	 -3.726170	 2.201406	 0.256408

	symmetry c1
}
set optking {
	frozen_dihedral = ("
		14 10 7 4,
		10 7 4 8,
		8 4 3 2,
		10 13 16 20,
		20 16 19 22,
		4 3 2 1
	")
}

ee = energy('scf')
oeprop('DIPOLE', 'QUADRUPOLE', 'MULLIKEN_CHARGES')
f=open( 'psi4out.xyz', 'w' )
f.write( "27  " )
f.write( str(ee) + "\n" )
f.write( MOL.save_string_xyz() )
f.close()
--------------------------------------------------------------------------

    Molecular point group: c1

    Geometry (in Angstrom), charge = 0, multiplicity = 1:

       Center              X                  Y                   Z               Mass
    ------------   -----------------  -----------------  -----------------  -----------------
           H          1.472587497693     1.329628063410    -2.411649331500     1.007825032070
           O          2.337867497693     0.981001063410    -2.569192331500    15.994914619560
           C          2.997177497693     0.779079063410    -1.345022331500    12.000000000000
           C          2.456253497693    -0.410851936590    -0.560043331500    12.000000000000
           H          4.036689497693     0.609957063410    -1.594995331500     1.007825032070
           H          2.954004497693     1.681062063410    -0.735642331500     1.007825032070
           C          1.000557497693    -0.252481936590    -0.114245331500    12.000000000000
           H          2.555060497693    -1.302465936590    -1.173744331500     1.007825032070
           H          3.088520497693    -0.555868936590     0.314356668500     1.007825032070
           C          0.504336497693    -1.438803936590     0.717152668500    12.000000000000
           H          0.369518497693    -0.134459936590    -0.990730331500     1.007825032070
           H          0.898530497693     0.661440063410     0.471140668500     1.007825032070
           C         -0.921334502307    -1.292148936590     1.261482668500    12.000000000000
           H          0.569988497693    -2.346674936590     0.120237668500     1.007825032070
           H          1.180862497693    -1.579545936590     1.557512668500     1.007825032070
           C         -1.649380502307    -0.017385936590     0.826273668500    12.000000000000
           H         -1.502191502307    -2.151975936590     0.934192668500     1.007825032070
           H         -0.897527502307    -1.340545936590     2.349107668500     1.007825032070
           C         -3.101369502307     0.033304063410     1.306476668500    12.000000000000
           H         -1.628648502307     0.054731063410    -0.260225331500     1.007825032070
           H         -1.125307502307     0.859025063410     1.199842668500     1.007825032070
           C         -3.828498502307     1.307701063410     0.878855668500    12.000000000000
           H         -3.637226502307    -0.832960936590     0.924468668500     1.007825032070
           H         -3.124640502307    -0.048404936590     2.391219668500     1.007825032070
           H         -3.850923502307     1.401981063410    -0.203194331500     1.007825032070
           H         -4.854968502307     1.312850063410     1.232363668500     1.007825032070
           H         -3.337751502307     2.191753063410     1.276326668500     1.007825032070

  Charge       = 0
  Multiplicity = 1
  Basis Set: 6-31G*
  Basis Set:

    Orbital Energies (a.u.)
    -----------------------

    Doubly Occupied:

       1A    -20.551979     2A    -11.266592     3A    -11.218849
       4A    -11.215931     5A    -11.215850     6A    -11.214832
       7A    -11.214197     8A    -11.214150     9A    -11.210008
      10A     -1.358704    11A     -1.097139    12A     -1.059861
      13A     -1.011352    14A     -0.946092    15A     -0.892455
      16A     -0.819538    17A     -0.810398    18A     -0.764752
      19A     -0.693473    20A     -0.661554    21A     -0.631337
      22A     -0.613407    23A     -0.604945    24A     -0.585072
      25A     -0.575484    26A     -0.552908    27A     -0.542982
      28A     -0.531728    29A     -0.506914    30A     -0.497897
      31A     -0.489913    32A     -0.476289    33A     -0.464445
      34A     -0.454574    35A     -0.444375    36A     -0.442137
      37A     -0.422922

  @DF-RHF Final Energy:  -388.27114060880990

   => Energetics <=

    Nuclear Repulsion Energy =            465.2720214921130264
    One-Electron Energy =               -1448.5363788708252741
    Two-Electron Energy =                 594.9932167699035972
    DFT Exchange-Correlation Energy =       0.0000000000000000
    Empirical Dispersion Energy =           0.0000000000000000
    PCM Polarization Energy =               0.0000000000000000
    EFP Energy =                            0.0000000000000000
    Total Energy =                       -388.2711406088086505

  Mulliken Charges: (a.u.)
   Center  Symbol    Alpha    Beta     Spin     Total
       1     H     0.27990  0.27990  0.00000  0.44020
       2     O     4.37106  4.37106  0.00000 -0.74212
       3     C     2.99729  2.99729  0.00000  0.00541
       4     C     3.15917  3.15917  0.00000 -0.31834
       5     H     0.41450  0.41450  0.00000  0.17099
       6     H     0.43229  0.43229  0.00000  0.13543
       7     C     3.16692  3.16692  0.00000 -0.33384
       8     H     0.41552  0.41552  0.00000  0.16897
       9     H     0.42472  0.42472  0.00000  0.15055
      10     C     3.15412  3.15412  0.00000 -0.30824
      11     H     0.42319  0.42319  0.00000  0.15362
      12     H     0.42314  0.42314  0.00000  0.15372
      13     C     3.15576  3.15576  0.00000 -0.31152
      14     H     0.41883  0.41883  0.00000  0.16234
      15     H     0.42090  0.42090  0.00000  0.15821
      16     C     3.15605  3.15605  0.00000 -0.31211
      17     H     0.42057  0.42057  0.00000  0.15887
      18     H     0.42059  0.42059  0.00000  0.15882
      19     C     3.14962  3.14962  0.00000 -0.29923
      20     H     0.42371  0.42371  0.00000  0.15258
      21     H     0.42306  0.42306  0.00000  0.15388
      22     C     3.23925  3.23925  0.00000 -0.47850
      23     H     0.42292  0.42292  0.00000  0.15415
      24     H     0.42320  0.42320  0.00000  0.15359
      25     H     0.42236  0.42236  0.00000  0.15527
      26     H     0.41887  0.41887  0.00000  0.16227
      27     H     0.42248  0.42248  0.00000  0.15504

   Total alpha = 37.00000, Total beta = 37.00000, Total charge = -0.00000
