  ==> Input File <==

--------------------------------------------------------------------------
set {
	reference rhf
	basis 6-31G*
}

set_num_threads( 4 )
memory 2 gb

molecule MOL {
0 1

H	 2.515268	 -0.686768	 -1.020293
O	 1.725400	 -0.168798	 -1.079501
C	 1.311346	 0.211255	 0.208631
C	 0.031547	 1.023609	 0.088541
H	 2.076316	 0.816918	 0.691210
H	 1.152071	 -0.665463	 0.832409
C	 -1.134819	 0.293262	 -0.585751
H	 0.258177	 1.923880	 -0.475764
H	 -0.260992	 1.342544	 1.087500
C	 -1.917817	 -0.639439	 0.339494
H	 -0.758119	 -0.268455	 -1.433105
H	 -1.813832	 1.041889	 -0.986690
H	 -2.777680	 -1.057197	 -0.174994
H	 -1.310268	 -1.471279	 0.680599
H	 -2.283753	 -0.111424	 1.216626

	symmetry c1
}
set optking {
	frozen_dihedral = ("
		8 4 7 11
	")
}

ee = optimize('scf')
oeprop('DIPOLE', 'QUADRUPOLE', 'MULLIKEN_CHARGES')
f=open( 'psi4out.xyz', 'w' )
f.write( "15  " )
f.write( str(ee) + "\n" )
f.write( MOL.save_string_xyz() )
f.close()
--------------------------------------------------------------------------

    Molecular point group: c1
  Charge       = 0
  Multiplicity = 1
  Basis Set: 6-31G*
  Basis Set:
  @DF-RHF Final Energy:  -232.14280207486451
    Total Energy =                       -232.1428020748647896
    Molecular point group: c1
  Basis Set: 6-31G*
  Basis Set:
  Basis Set: 6-31G*
  Basis Set:
  @DF-RHF Final Energy:  -232.14306283148025
    Total Energy =                       -232.1430628314803357
  Basis Set: 6-31G*
  Basis Set:
  Basis Set: 6-31G*
  Basis Set:
  @DF-RHF Final Energy:  -232.14315695335918
    Total Energy =                       -232.1431569533593233
  Basis Set: 6-31G*
  Basis Set:
  Basis Set: 6-31G*
  Basis Set:
  @DF-RHF Final Energy:  -232.14316005093977
    Total Energy =                       -232.1431600509396276
  Basis Set: 6-31G*
  Basis Set:
  Charge       = 0
  Multiplicity = 1
  Basis Set: 6-31G*
  Basis Set:

    Orbital Energies (a.u.)
    -----------------------

    Doubly Occupied:

       1A    -20.553308     2A    -11.268182     3A    -11.212196
       4A    -11.208643     5A    -11.205700     6A     -1.360021
       7A     -1.063859     8A     -0.970892     9A     -0.865313
      10A     -0.778468    11A     -0.703721    12A     -0.648881
      13A     -0.605282    14A     -0.575255    15A     -0.562490
      16A     -0.533745    17A     -0.506386    18A     -0.474293
      19A     -0.468282    20A     -0.453417    21A     -0.429857

  @DF-RHF Final Energy:  -232.14316036815120

   => Energetics <=

    Nuclear Repulsion Energy =            190.6706460670923207
    One-Electron Energy =                -692.7312354671652201
    Two-Electron Energy =                 269.9174290319214151
    DFT Exchange-Correlation Energy =       0.0000000000000000
    Empirical Dispersion Energy =           0.0000000000000000
    PCM Polarization Energy =               0.0000000000000000
    EFP Energy =                            0.0000000000000000
    Total Energy =                       -232.1431603681514844
    Molecular point group: c1
  Basis Set: 6-31G*
  Basis Set:

  -Total Gradient:
     Atom            X                  Y                   Z
    ------   -----------------  -----------------  -----------------
       1        0.000005228509     0.000000991734    -0.000008068930
       2       -0.000010410308    -0.000008348278     0.000012501799
       3        0.000003817807     0.000014775024    -0.000016231851
       4        0.001870388488    -0.001900222880    -0.001268329987
       5        0.000009342242    -0.000009639436     0.000006252957
       6        0.000006086245     0.000000616370     0.000006205500
       7       -0.000760147584     0.002506385343    -0.001335450501
       8       -0.001439244569     0.001200405797     0.001265701502
       9       -0.000015833292    -0.000010964035    -0.000008400093
      10       -0.000001131064    -0.000019307440    -0.000003363151
      11        0.000334769120    -0.001774591610     0.001361977927
      12       -0.000005521184    -0.000002454625    -0.000009071363
      13        0.000001198912    -0.000005141624     0.000002619424
      14       -0.000000930904    -0.000003939926     0.000000385154
      15        0.000002387584     0.000011435585    -0.000006728385

  **** Optimization is complete! (in 5 steps) ****
    Final optimized geometry and variables:
    Molecular point group: c1

    Geometry (in Angstrom), charge = 0, multiplicity = 1:

    H            2.468682069855    -0.801763358266    -0.803118158921
    O            1.704269416735    -0.247092672187    -0.864855342044
    C            1.235627765982     0.057782453391     0.424733338753
    C           -0.024290594184     0.898337751632     0.296469864115
    H            1.987928440894     0.615111639906     0.979820736345
    H            1.030895690954    -0.854904265389     0.981355671656
    C           -1.203411332399     0.175604571279    -0.369247144844
    H            0.220786302265     1.796294145248    -0.262895454280
    H           -0.314238724196     1.230733493255     1.291949496532
    C           -1.959537364670    -0.760416559397     0.576773422834
    H           -0.835821055981    -0.394224278026    -1.215583778229
    H           -1.896993117793     0.914269693046    -0.760713822668
    H           -2.777822213560    -1.254639611110     0.061942188640
    H           -1.313983478988    -1.536277821796     0.977968856404
    H           -2.379922226344    -0.214162946069     1.416933330755

  Mulliken Charges: (a.u.)
   Center  Symbol    Alpha    Beta     Spin     Total
       1     H     0.28065  0.28065  0.00000  0.43870
       2     O     4.36944  4.36944  0.00000 -0.73889
       3     C     2.99844  2.99844  0.00000  0.00311
       4     C     3.16099  3.16099  0.00000 -0.32198
       5     H     0.42905  0.42905  0.00000  0.14191
       6     H     0.43166  0.43166  0.00000  0.13668
       7     C     3.15798  3.15798  0.00000 -0.31596
       8     H     0.41283  0.41283  0.00000  0.17433
       9     H     0.42438  0.42438  0.00000  0.15125
      10     C     3.24136  3.24136  0.00000 -0.48273
      11     H     0.40625  0.40625  0.00000  0.18749
      12     H     0.42101  0.42101  0.00000  0.15798
      13     H     0.41915  0.41915  0.00000  0.16170
      14     H     0.42317  0.42317  0.00000  0.15365
      15     H     0.42363  0.42363  0.00000  0.15274

   Total alpha = 21.00000, Total beta = 21.00000, Total charge =  0.00000
