  ==> Input File <==

--------------------------------------------------------------------------
set {
	reference rhf
	basis cc-pvtz
}

set_num_threads( 4 )
memory 2 gb

molecule MOL {
0 1

H	 -3.162190	 0.493205	 -0.000107
C	 -2.363908	 -0.234727	 0.000005
O	 -1.158738	 0.454634	 -0.000087
H	 -2.464314	 -0.863616	 -0.882153
H	 -2.464327	 -0.863359	 0.882345
C	 -0.028611	 -0.359694	 0.000037
C	 -0.355610	 -1.667290	 0.692611
H	 0.793217	 0.141394	 0.512039
H	 0.296852	 -0.547697	 -1.023374
C	 0.835527	 -2.617981	 0.734195
H	 -0.695098	 -1.449546	 1.699220
H	 -1.187473	 -2.133174	 0.175982
H	 1.672193	 -2.180388	 1.268600
H	 0.574384	 -3.542754	 1.233815
H	 1.176335	 -2.868819	 -0.264804

	symmetry c1
}
set optking {
	frozen_dihedral = ("
		8 6 3 2
	")
}

ee = optimize('scf')
oeprop('DIPOLE', 'QUADRUPOLE', 'MULLIKEN_CHARGES')
f=open( 'psi4out.xyz', 'w' )
f.write( "15  " )
f.write( str(ee) + "\n" )
f.write( MOL.save_string_xyz() )
f.close()
--------------------------------------------------------------------------

    Molecular point group: c1
  Charge       = 0
  Multiplicity = 1
  Basis Set: CC-PVTZ
  Basis Set:
  @DF-RHF Final Energy:  -232.20879564198825
    Total Energy =                       -232.2087956419883312
    Molecular point group: c1
  Basis Set: CC-PVTZ
  Basis Set:
  Basis Set: CC-PVTZ
  Basis Set:
  @DF-RHF Final Energy:  -232.20807854890228
    Total Energy =                       -232.2080785489021082
  Basis Set: CC-PVTZ
  Basis Set:
  Basis Set: CC-PVTZ
  Basis Set:
  @DF-RHF Final Energy:  -232.21726387389262
    Total Energy =                       -232.2172638738926480
  Basis Set: CC-PVTZ
  Basis Set:
  Basis Set: CC-PVTZ
  Basis Set:
  @DF-RHF Final Energy:  -232.21946055798256
    Total Energy =                       -232.2194605579825293
  Basis Set: CC-PVTZ
  Basis Set:
  Basis Set: CC-PVTZ
  Basis Set:
  @DF-RHF Final Energy:  -232.21981633822060
    Total Energy =                       -232.2198163382206531
  Basis Set: CC-PVTZ
  Basis Set:
  Basis Set: CC-PVTZ
  Basis Set:
  @DF-RHF Final Energy:  -232.22007690470059
    Total Energy =                       -232.2200769047004769
  Basis Set: CC-PVTZ
  Basis Set:
  Basis Set: CC-PVTZ
  Basis Set:
  @DF-RHF Final Energy:  -232.22010569893754
    Total Energy =                       -232.2201056989375161
  Basis Set: CC-PVTZ
  Basis Set:
  Charge       = 0
  Multiplicity = 1
  Basis Set: CC-PVTZ
  Basis Set:

    Orbital Energies (a.u.)
    -----------------------

    Doubly Occupied:

       1A    -20.542353     2A    -11.264347     3A    -11.260070
       4A    -11.219330     5A    -11.214762     6A     -1.372543
       7A     -1.059737     8A     -0.962431     9A     -0.886242
      10A     -0.797827    11A     -0.673882    12A     -0.661040
      13A     -0.628889    14A     -0.606848    15A     -0.560490
      16A     -0.539839    17A     -0.523742    18A     -0.499918
      19A     -0.491101    20A     -0.445246    21A     -0.407626

  @DF-RHF Final Energy:  -232.22010763487137

   => Energetics <=

    Nuclear Repulsion Energy =            192.4258654548860079
    One-Electron Energy =                -696.0554187286965089
    Two-Electron Energy =                 271.4094456389391326
    DFT Exchange-Correlation Energy =       0.0000000000000000
    Empirical Dispersion Energy =           0.0000000000000000
    PCM Polarization Energy =               0.0000000000000000
    EFP Energy =                            0.0000000000000000
    Total Energy =                       -232.2201076348713968
    Molecular point group: c1
  Basis Set: CC-PVTZ
  Basis Set:

  -Total Gradient:
     Atom            X                  Y                   Z
    ------   -----------------  -----------------  -----------------
       1       -0.000050794632    -0.000015304298     0.000012696732
       2       -0.000130114453     0.000069936454     0.004419210016
       3       -0.000298191317    -0.000458613627    -0.005617201217
       4        0.000023155649    -0.000029893530    -0.000011534972
       5        0.000025224419     0.000010907647    -0.000026684027
       6        0.002078938361     0.002428873209    -0.003149657792
       7        0.000007535592    -0.000005374466     0.000017700865
       8       -0.001650289801    -0.002042092447     0.004382277161
       9        0.000028134625    -0.000035460891     0.000005925414
      10       -0.000003519889     0.000035758119    -0.000027416418
      11       -0.000004061582     0.000006918728     0.000010494746
      12       -0.000013512510     0.000017977600    -0.000018039278
      13        0.000007267277     0.000000391415     0.000006455850
      14       -0.000020030716     0.000013337987    -0.000003798278
      15        0.000000258977     0.000002638102    -0.000000428801

  **** Optimization is complete! (in 8 steps) ****
    Final optimized geometry and variables:
    Molecular point group: c1

    Geometry (in Angstrom), charge = 0, multiplicity = 1:

    H           -2.499751922218     1.664818696612    -0.393177002624
    C           -1.834915507679     0.816814445125    -0.311152124421
    O           -0.540112519964     1.321794546262    -0.287189950974
    H           -2.006918117184     0.165872505973    -1.165923787707
    H           -2.084931761489     0.272737904543     0.592864728833
    C            0.544012705030     0.433650363561    -0.271287297432
    C            0.320507706349    -0.901812969322     0.429854401310
    H            1.332070234254     0.947093502024     0.265759886301
    H            0.879992408301     0.254794133676    -1.290826241155
    C            1.609433794794    -1.717551417514     0.467370899459
    H           -0.026512621636    -0.724067339882     1.442692767907
    H           -0.448978650351    -1.476274920680    -0.073044696577
    H            2.392602655762    -1.192601420151     1.003415150456
    H            1.451337385266    -2.668318834602     0.961502662308
    H            1.974143725894    -1.922640117144    -0.533452069464

  Mulliken Charges: (a.u.)
   Center  Symbol    Alpha    Beta     Spin     Total
       1     H     0.44298  0.44298  0.00000  0.11403
       2     C     3.03618  3.03618  0.00000 -0.07235
       3     O     4.17903  4.17903  0.00000 -0.35806
       4     H     0.47284  0.47284  0.00000  0.05433
       5     H     0.46856  0.46856  0.00000  0.06287
       6     C     2.96265  2.96265  0.00000  0.07470
       7     C     3.10235  3.10235  0.00000 -0.20470
       8     H     0.45849  0.45849  0.00000  0.08302
       9     H     0.46857  0.46857  0.00000  0.06287
      10     C     3.15268  3.15268  0.00000 -0.30537
      11     H     0.44971  0.44971  0.00000  0.10058
      12     H     0.45161  0.45161  0.00000  0.09677
      13     H     0.45346  0.45346  0.00000  0.09309
      14     H     0.44640  0.44640  0.00000  0.10719
      15     H     0.45448  0.45448  0.00000  0.09104

   Total alpha = 21.00000, Total beta = 21.00000, Total charge = -0.00000
