                              Psi4 1.0.54 Driver

  ==> Input File <==

--------------------------------------------------------------------------
set {
	reference rhf
	basis cc-pvtz
}

set_num_threads( 4 )
memory 2 gb

molecule MOL {
0 1

H	 -0.000105	 1.988529	 0.748933
O	 -0.000098	 1.879786	 -0.188206
C	 -0.000014	 0.545691	 -0.532416
C	 -0.575019	 -0.294363	 0.609274
C	 1.395233	 0.118790	 -0.991563
H	 -0.660704	 0.420984	 -1.377756
F	 -1.801580	 0.093920	 0.857559
F	 -0.608177	 -1.570715	 0.320243
F	 0.123122	 -0.142315	 1.714196
F	 1.749379	 0.838527	 -2.027621
F	 1.439495	 -1.141333	 -1.343480
F	 2.290226	 0.312131	 -0.046585

	symmetry c1
}
set optking {
	frozen_dihedral = ("
		6 3 2 1
	")
}

ee,wfn = optimize('scf', return_wfn=True)
oeprop( wfn, 'DIPOLE', 'QUADRUPOLE', 'MULLIKEN_CHARGES')
f=open( 'psi4out.xyz', 'w' )
f.write( "12  " )
f.write( str(ee) + "\n" )
f.write( MOL.save_string_xyz() )
f.close()
--------------------------------------------------------------------------

    Molecular point group: c1
  Charge       = 0
  Multiplicity = 1
  Basis Set: CC-PVTZ
  Basis Set:
  @DF-RHF Final Energy:  -786.58651614234054
    Total Energy =                       -786.5865161423397467
    Molecular point group: c1
  Basis Set: CC-PVTZ
  Basis Set:
  Basis Set: CC-PVTZ
  Basis Set:
  @DF-RHF Final Energy:  -786.58684857638116
    Total Energy =                       -786.5868485763808167
  Basis Set: CC-PVTZ
  Basis Set:
  Basis Set: CC-PVTZ
  Basis Set:
  @DF-RHF Final Energy:  -786.58696521882746
    Total Energy =                       -786.5869652188279133
  Basis Set: CC-PVTZ
  Basis Set:
  Basis Set: CC-PVTZ
  Basis Set:
  @DF-RHF Final Energy:  -786.58697464435147
    Total Energy =                       -786.5869746443518125
  Basis Set: CC-PVTZ
  Basis Set:
  Charge       = 0
  Multiplicity = 1
  Basis Set: CC-PVTZ
  Basis Set:

    Orbital Energies (a.u.)
    -----------------------

    Doubly Occupied:

       1A    -26.364493     2A    -26.363211     3A    -26.360418
       4A    -26.352181     5A    -26.351855     6A    -26.348783
       7A    -20.608167     8A    -11.526397     9A    -11.514687
      10A    -11.351739    11A     -1.776216    12A     -1.763254
      13A     -1.672394    14A     -1.668176    15A     -1.659127
      16A     -1.657078    17A     -1.437694    18A     -1.104347
      19A     -1.002866    20A     -0.944987    21A     -0.874698
      22A     -0.869491    23A     -0.862331    24A     -0.850268
      25A     -0.839293    26A     -0.815434    27A     -0.751329
      28A     -0.738762    29A     -0.728084    30A     -0.725272
      31A     -0.701053    32A     -0.696727    33A     -0.691630
      34A     -0.679074    35A     -0.674291    36A     -0.673389
      37A     -0.660460    38A     -0.657871    39A     -0.623030
      40A     -0.551818    41A     -0.508594

  @DF-RHF Final Energy:  -786.58697581959939

   => Energetics <=

    Nuclear Repulsion Energy =            670.9859461485294787
    One-Electron Energy =               -2429.1439013424778750
    Two-Electron Energy =                 971.5709793743487808
    DFT Exchange-Correlation Energy =       0.0000000000000000
    Empirical Dispersion Energy =           0.0000000000000000
    PCM Polarization Energy =               0.0000000000000000
    EFP Energy =                            0.0000000000000000
    Total Energy =                       -786.5869758195997292
    Molecular point group: c1
  Basis Set: CC-PVTZ
  Basis Set:

  -Total Gradient:
     Atom            X                  Y                   Z
    ------   -----------------  -----------------  -----------------
       1       -0.003283556874    -0.000016884288     0.000012463261
       2        0.003542552677    -0.000058117592     0.000458684241
       3        0.001846878126     0.000588404418    -0.002207401840
       4        0.000005903151     0.000036610328     0.000231655619
       5        0.000221538538    -0.000256204554    -0.000122881927
       6       -0.002124987486    -0.000441303193     0.001767581767
       7        0.000023833091    -0.000005986511    -0.000087897460
       8       -0.000017938338    -0.000059109351    -0.000099651858
       9        0.000030673306     0.000046145291    -0.000049783093
      10       -0.000068648414     0.000063581095     0.000031565872
      11       -0.000063794831     0.000042505626     0.000044160478
      12       -0.000112452947     0.000060358727     0.000021504940

  **** Optimization is complete! (in 5 steps) ****
    Final optimized geometry and variables:
    Molecular point group: c1

    Geometry (in Angstrom), charge = 0, multiplicity = 1:

    H           -0.419992981521     1.973874170421     0.876700180760
    O           -0.425893122649     1.841706740757    -0.055544925016
    C           -0.420928932033     0.502317220360    -0.390747460425
    C           -0.988854679700    -0.346310558124     0.746736410035
    C            0.985097197035     0.095483301440    -0.832750246292
    H           -1.083363345327     0.347130453259    -1.231464346492
    F           -2.249909256508    -0.028535867694     0.931414033506
    F           -0.927156158171    -1.626227466395     0.494698208065
    F           -0.359672513511    -0.116592496600     1.879910071992
    F            1.383060148635     0.891045349115    -1.793660565451
    F            1.008839728259    -1.132377807874    -1.294515172184
    F            1.851396444138     0.180166482978     0.148874354138

  Mulliken Charges: (a.u.)
   Center  Symbol    Alpha    Beta     Spin     Total
       1     H     0.38170  0.38170  0.00000  0.23659
       2     O     4.19019  4.19019  0.00000 -0.38038
       3     C     3.00077  3.00077  0.00000 -0.00153
       4     C     2.68705  2.68705  0.00000  0.62589
       5     C     2.68096  2.68096  0.00000  0.63807
       6     H     0.43160  0.43160  0.00000  0.13679
       7     F     4.60476  4.60476  0.00000 -0.20953
       8     F     4.59843  4.59843  0.00000 -0.19686
       9     F     4.61014  4.61014  0.00000 -0.22029
      10     F     4.60161  4.60161  0.00000 -0.20321
      11     F     4.60557  4.60557  0.00000 -0.21114
      12     F     4.60720  4.60720  0.00000 -0.21440

   Total alpha = 41.00000, Total beta = 41.00000, Total charge = -0.00000

*** Psi4 exiting successfully. Buy a developer a beer!
