  ==> Input File <==

--------------------------------------------------------------------------
set {
	reference rhf
	basis 6-31G*
}

set_num_threads( 1 )
memory 2 gb

molecule MOL {
0 1

O	 0.050696	 0.712161	 -0.963162
C	 0.486307	 0.169203	 0.000779
C	 1.608116	 -0.841643	 0.000302
O	 0.032299	 0.384047	 1.227696
C	 2.990107	 -0.200498	 -0.000684
H	 1.468623	 -1.481519	 -0.865924
H	 1.469683	 -1.481289	 0.866878
H	 3.129736	 0.423364	 -0.875135
H	 3.757882	 -0.966877	 -0.001197
H	 3.130964	 0.423383	 0.873533
C	 -1.031949	 1.317422	 1.381278
C	 -1.367745	 1.384168	 2.856099
H	 -1.877614	 0.987682	 0.793309
H	 -0.715909	 2.278554	 0.999262
H	 -1.677127	 0.412749	 3.224591
H	 -2.178077	 2.087351	 3.019019
H	 -0.509133	 1.710740	 3.431767

	symmetry c1
}
set optking {
	frozen_dihedral = ("
		2 4 11 13,
		11 4 2 3
	")
}

ee = energy('scf')
oeprop('DIPOLE', 'QUADRUPOLE', 'MULLIKEN_CHARGES')
f=open( 'psi4out.xyz', 'w' )
f.write( "17  " )
f.write( str(ee) + "\n" )
f.write( MOL.save_string_xyz() )
f.close()
--------------------------------------------------------------------------

    Molecular point group: c1

    Geometry (in Angstrom), charge = 0, multiplicity = 1:

       Center              X                  Y                   Z               Mass
    ------------   -----------------  -----------------  -----------------  -----------------
           O         -0.337197068000     0.281996154875    -1.616062619420    15.994914619560
           C          0.098413932000    -0.260961845125    -0.652121619420    12.000000000000
           C          1.220222932000    -1.271807845125    -0.652598619420    12.000000000000
           O         -0.355594068000    -0.046117845125     0.574795380580    15.994914619560
           C          2.602213932000    -0.630662845125    -0.653584619420    12.000000000000
           H          1.080729932000    -1.911683845125    -1.518824619420     1.007825032070
           H          1.081789932000    -1.911453845125     0.213977380580     1.007825032070
           H          2.741842932000    -0.006800845125    -1.528035619420     1.007825032070
           H          3.369988932000    -1.397041845125    -0.654097619420     1.007825032070
           H          2.743070932000    -0.006781845125     0.220632380580     1.007825032070
           C         -1.419842068000     0.887257154875     0.728377380580    12.000000000000
           C         -1.755638068000     0.954003154875     2.203198380580    12.000000000000
           H         -2.265507068000     0.557517154875     0.140408380580     1.007825032070
           H         -1.103802068000     1.848389154875     0.346361380580     1.007825032070
           H         -2.065020068000    -0.017415845125     2.571690380580     1.007825032070
           H         -2.565970068000     1.657186154875     2.366118380580     1.007825032070
           H         -0.897026068000     1.280575154875     2.778866380580     1.007825032070

  Charge       = 0
  Multiplicity = 1
  Basis Set: 6-31G*
  Basis Set:

    Orbital Energies (a.u.)
    -----------------------

    Doubly Occupied:

       1A    -20.601848     2A    -20.542283     3A    -11.370354
       4A    -11.284337     5A    -11.235616     6A    -11.226522
       7A    -11.222282     8A     -1.467170     9A     -1.360694
      10A     -1.072797    11A     -1.031951    12A     -0.910577
      13A     -0.853065    14A     -0.776647    15A     -0.693203
      16A     -0.682844    17A     -0.667669    18A     -0.612674
      19A     -0.600236    20A     -0.575619    21A     -0.554582
      22A     -0.538686    23A     -0.529174    24A     -0.507797
      25A     -0.500118    26A     -0.497323    27A     -0.451085
      28A     -0.431371

  @DF-RHF Final Energy:  -344.90935536125579

   => Energetics <=

    Nuclear Repulsion Energy =            315.7018114362762731
    One-Electron Energy =               -1095.6252607224848816
    Two-Electron Energy =                 435.0140939249529879
    DFT Exchange-Correlation Energy =       0.0000000000000000
    Empirical Dispersion Energy =           0.0000000000000000
    PCM Polarization Energy =               0.0000000000000000
    EFP Energy =                            0.0000000000000000
    Total Energy =                       -344.9093553612555638

  Mulliken Charges: (a.u.)
   Center  Symbol    Alpha    Beta     Spin     Total
       1     O     4.28542  4.28542  0.00000 -0.57083
       2     C     2.61401  2.61401  0.00000  0.77198
       3     C     3.19652  3.19652  0.00000 -0.39305
       4     O     4.30912  4.30912  0.00000 -0.61824
       5     C     3.24837  3.24837  0.00000 -0.49674
       6     H     0.40110  0.40110  0.00000  0.19780
       7     H     0.40323  0.40323  0.00000  0.19354
       8     H     0.40659  0.40659  0.00000  0.18682
       9     H     0.41177  0.41177  0.00000  0.17645
      10     H     0.41205  0.41205  0.00000  0.17589
      11     C     3.00289  3.00289  0.00000 -0.00578
      12     C     3.24845  3.24845  0.00000 -0.49690
      13     H     0.40989  0.40989  0.00000  0.18021
      14     H     0.41033  0.41033  0.00000  0.17933
      15     H     0.41187  0.41187  0.00000  0.17626
      16     H     0.41628  0.41628  0.00000  0.16744
      17     H     0.41209  0.41209  0.00000  0.17581

   Total alpha = 28.00000, Total beta = 28.00000, Total charge = -0.00000
