  ==> Input File <==

--------------------------------------------------------------------------
set {
	reference rhf
	basis 6-31G*
}

set_num_threads( 1 )
memory 2 gb

molecule MOL {
0 1

O	 -3.670572	 -0.414367	 0.338081
C	 -2.668563	 0.129746	 -0.000350
C	 -2.608463	 1.558265	 -0.476784
O	 -1.481751	 -0.454642	 0.000584
H	 -2.994324	 2.202126	 0.304508
H	 -1.602455	 1.855269	 -0.734027
H	 -3.255915	 1.664998	 -1.338928
C	 -0.334255	 0.388708	 0.000906
C	 0.891947	 -0.504646	 0.000751
H	 -0.365390	 1.025305	 -0.873475
H	 -0.365484	 1.024911	 0.875569
C	 2.191998	 0.301789	 0.000897
H	 0.855148	 -1.151283	 -0.871571
H	 0.855132	 -1.151660	 0.872805
C	 3.441114	 -0.581407	 0.000108
H	 2.215074	 0.954890	 -0.869742
H	 2.215465	 0.953923	 0.872248
C	 4.739576	 0.224112	 -0.001102
H	 3.419457	 -1.233487	 -0.870178
H	 3.420834	 -1.233096	 0.870717
H	 4.804918	 0.861552	 -0.878265
H	 5.606527	 -0.429058	 -0.001824
H	 4.806469	 0.861674	 0.875853

	symmetry c1
}
set optking {
	frozen_dihedral = ("
		13 9 8 10,
		2 4 8 10,
		16 12 9 13,
		19 15 12 16
	")
}

ee = energy('scf')
oeprop('DIPOLE', 'QUADRUPOLE', 'MULLIKEN_CHARGES')
f=open( 'psi4out.xyz', 'w' )
f.write( "23  " )
f.write( str(ee) + "\n" )
f.write( MOL.save_string_xyz() )
f.close()
--------------------------------------------------------------------------

    Molecular point group: c1

    Geometry (in Angstrom), charge = 0, multiplicity = 1:

       Center              X                  Y                   Z               Mass
    ------------   -----------------  -----------------  -----------------  -----------------
           O         -3.710527833051    -0.495487339824     0.353992695180    15.994914619560
           C         -2.708518833051     0.048625660176     0.015561695180    12.000000000000
           C         -2.648418833051     1.477144660176    -0.460872304820    12.000000000000
           O         -1.521706833051    -0.535762339824     0.016495695180    15.994914619560
           H         -3.034279833051     2.121005660176     0.320419695180     1.007825032070
           H         -1.642410833051     1.774148660176    -0.718115304820     1.007825032070
           H         -3.295870833051     1.583877660176    -1.323016304820     1.007825032070
           C         -0.374210833051     0.307587660176     0.016817695180    12.000000000000
           C          0.851991166949    -0.585766339824     0.016662695180    12.000000000000
           H         -0.405345833051     0.944184660176    -0.857563304820     1.007825032070
           H         -0.405439833051     0.943790660176     0.891480695180     1.007825032070
           C          2.152042166949     0.220668660176     0.016808695180    12.000000000000
           H          0.815192166949    -1.232403339824    -0.855659304820     1.007825032070
           H          0.815176166949    -1.232780339824     0.888716695180     1.007825032070
           C          3.401158166949    -0.662527339824     0.016019695180    12.000000000000
           H          2.175118166949     0.873769660176    -0.853830304820     1.007825032070
           H          2.175509166949     0.872802660176     0.888159695180     1.007825032070
           C          4.699620166949     0.142991660176     0.014809695180    12.000000000000
           H          3.379501166949    -1.314607339824    -0.854266304820     1.007825032070
           H          3.380878166949    -1.314216339824     0.886628695180     1.007825032070
           H          4.764962166949     0.780431660176    -0.862353304820     1.007825032070
           H          5.566571166949    -0.510178339824     0.014087695180     1.007825032070
           H          4.766513166949     0.780553660176     0.891764695180     1.007825032070

  Charge       = 0
  Multiplicity = 1
  Basis Set: 6-31G*
  Basis Set:

    Orbital Energies (a.u.)
    -----------------------

    Doubly Occupied:

       1A    -20.604316     2A    -20.539744     3A    -11.375556
       4A    -11.299197     5A    -11.232599     6A    -11.231970
       7A    -11.231333     8A    -11.226916     9A    -11.217534
      10A     -1.466710    11A     -1.366482    12A     -1.100368
      13A     -1.037813    14A     -1.020034    15A     -0.947576
      16A     -0.852296    17A     -0.811215    18A     -0.781330
      19A     -0.709065    20A     -0.697494    21A     -0.664033
      22A     -0.652369    23A     -0.616434    24A     -0.600403
      25A     -0.586121    26A     -0.572623    27A     -0.559180
      28A     -0.539756    29A     -0.529454    30A     -0.511539
      31A     -0.499057    32A     -0.483269    33A     -0.477451
      34A     -0.475894    35A     -0.447146    36A     -0.427628

  @DF-RHF Final Energy:  -422.94502010300278

   => Energetics <=

    Nuclear Repulsion Energy =            452.8857189049814451
    One-Electron Energy =               -1472.8775730762049534
    Two-Electron Energy =                 597.0468340682195958
    DFT Exchange-Correlation Energy =       0.0000000000000000
    Empirical Dispersion Energy =           0.0000000000000000
    PCM Polarization Energy =               0.0000000000000000
    EFP Energy =                            0.0000000000000000
    Total Energy =                       -422.9450201030039125

  Mulliken Charges: (a.u.)
   Center  Symbol    Alpha    Beta     Spin     Total
       1     O     4.27351  4.27351  0.00000 -0.54703
       2     C     2.60220  2.60220  0.00000  0.79560
       3     C     3.31179  3.31179  0.00000 -0.62358
       4     O     4.30488  4.30488  0.00000 -0.60977
       5     H     0.39404  0.39404  0.00000  0.21192
       6     H     0.40746  0.40746  0.00000  0.18508
       7     H     0.39281  0.39281  0.00000  0.21438
       8     C     3.01355  3.01355  0.00000 -0.02710
       9     C     3.16044  3.16044  0.00000 -0.32089
      10     H     0.41321  0.41321  0.00000  0.17357
      11     H     0.41215  0.41215  0.00000  0.17570
      12     C     3.16123  3.16123  0.00000 -0.32247
      13     H     0.40985  0.40985  0.00000  0.18029
      14     H     0.40828  0.40828  0.00000  0.18343
      15     C     3.15197  3.15197  0.00000 -0.30393
      16     H     0.42259  0.42259  0.00000  0.15482
      17     H     0.42167  0.42167  0.00000  0.15667
      18     C     3.24012  3.24012  0.00000 -0.48024
      19     H     0.42007  0.42007  0.00000  0.15987
      20     H     0.41953  0.41953  0.00000  0.16094
      21     H     0.42117  0.42117  0.00000  0.15767
      22     H     0.41661  0.41661  0.00000  0.16678
      23     H     0.42087  0.42087  0.00000  0.15827

   Total alpha = 36.00000, Total beta = 36.00000, Total charge = -0.00000
