  ==> Input File <==

--------------------------------------------------------------------------
set {
	reference rhf
	basis 6-31G*
}

set_num_threads( 1 )
memory 2 gb

molecule MOL {
0 1

O	 0.625848	 1.349995	 -0.000749
C	 0.486307	 0.169203	 0.000779
C	 1.608116	 -0.841643	 0.000302
O	 -0.698257	 -0.426125	 0.001050
C	 2.990107	 -0.200498	 -0.000684
H	 1.468623	 -1.481519	 -0.865924
H	 1.469683	 -1.481289	 0.866878
H	 3.129736	 0.423364	 -0.875135
H	 3.757882	 -0.966877	 -0.001197
H	 3.130964	 0.423383	 0.873533
C	 -1.384887	 -0.525428	 -1.242364
C	 -2.695248	 -1.237641	 -0.981562
H	 -0.767020	 -1.069330	 -1.943788
H	 -1.541983	 0.468437	 -1.638778
H	 -2.520851	 -2.229267	 -0.579788
H	 -3.253232	 -1.335310	 -1.907176
H	 -3.300170	 -0.683127	 -0.273155

	symmetry c1
}
set optking {
	frozen_dihedral = ("
		2 4 11 13,
		4 2 3 6
	")
}

ee = energy('scf')
oeprop('DIPOLE', 'QUADRUPOLE', 'MULLIKEN_CHARGES')
f=open( 'psi4out.xyz', 'w' )
f.write( "17  " )
f.write( str(ee) + "\n" )
f.write( MOL.save_string_xyz() )
f.close()
--------------------------------------------------------------------------

    Molecular point group: c1

    Geometry (in Angstrom), charge = 0, multiplicity = 1:

       Center              X                  Y                   Z               Mass
    ------------   -----------------  -----------------  -----------------  -----------------
           O          0.503571672259     1.593444880250     0.323267184335    15.994914619560
           C          0.364030672259     0.412652880250     0.324795184335    12.000000000000
           C          1.485839672259    -0.598193119750     0.324318184335    12.000000000000
           O         -0.820533327741    -0.182675119750     0.325066184335    15.994914619560
           C          2.867830672259     0.042951880250     0.323332184335    12.000000000000
           H          1.346346672259    -1.238069119750    -0.541907815665     1.007825032070
           H          1.347406672259    -1.237839119750     1.190894184335     1.007825032070
           H          3.007459672259     0.666813880250    -0.551118815665     1.007825032070
           H          3.635605672259    -0.723427119750     0.322819184335     1.007825032070
           H          3.008687672259     0.666832880250     1.197549184335     1.007825032070
           C         -1.507163327741    -0.281978119750    -0.918347815665    12.000000000000
           C         -2.817524327741    -0.994191119750    -0.657545815665    12.000000000000
           H         -0.889296327741    -0.825880119750    -1.619771815665     1.007825032070
           H         -1.664259327741     0.711886880250    -1.314761815665     1.007825032070
           H         -2.643127327741    -1.985817119750    -0.255771815665     1.007825032070
           H         -3.375508327741    -1.091860119750    -1.583159815665     1.007825032070
           H         -3.422446327741    -0.439677119750     0.050861184335     1.007825032070

  Charge       = 0
  Multiplicity = 1
  Basis Set: 6-31G*
  Basis Set:

    Orbital Energies (a.u.)
    -----------------------

    Doubly Occupied:

       1A    -20.584240     2A    -20.553155     3A    -11.372228
       4A    -11.297702     5A    -11.238430     6A    -11.226798
       7A    -11.215959     8A     -1.462309     9A     -1.365366
      10A     -1.066538    11A     -1.038086    12A     -0.905639
      13A     -0.864704    14A     -0.773381    15A     -0.699976
      16A     -0.685422    17A     -0.658893    18A     -0.633808
      19A     -0.603425    20A     -0.564179    21A     -0.556585
      22A     -0.530785    23A     -0.525411    24A     -0.519437
      25A     -0.505239    26A     -0.486393    27A     -0.451852
      28A     -0.433272

  @DF-RHF Final Energy:  -344.89266927813122

   => Energetics <=

    Nuclear Repulsion Energy =            315.2895122382325894
    One-Electron Energy =               -1094.7258860080810337
    Two-Electron Energy =                 434.5437044917180174
    DFT Exchange-Correlation Energy =       0.0000000000000000
    Empirical Dispersion Energy =           0.0000000000000000
    PCM Polarization Energy =               0.0000000000000000
    EFP Energy =                            0.0000000000000000
    Total Energy =                       -344.8926692781303700

  Mulliken Charges: (a.u.)
   Center  Symbol    Alpha    Beta     Spin     Total
       1     O     4.26191  4.26191  0.00000 -0.52381
       2     C     2.61289  2.61289  0.00000  0.77422
       3     C     3.20808  3.20808  0.00000 -0.41617
       4     O     4.31701  4.31701  0.00000 -0.63403
       5     C     3.23973  3.23973  0.00000 -0.47946
       6     H     0.40764  0.40764  0.00000  0.18472
       7     H     0.39901  0.39901  0.00000  0.20198
       8     H     0.41131  0.41131  0.00000  0.17738
       9     H     0.41899  0.41899  0.00000  0.16203
      10     H     0.40882  0.40882  0.00000  0.18237
      11     C     3.00386  3.00386  0.00000 -0.00772
      12     C     3.24732  3.24732  0.00000 -0.49464
      13     H     0.42241  0.42241  0.00000  0.15519
      14     H     0.40738  0.40738  0.00000  0.18524
      15     H     0.41078  0.41078  0.00000  0.17844
      16     H     0.41695  0.41695  0.00000  0.16611
      17     H     0.40592  0.40592  0.00000  0.18816

   Total alpha = 28.00000, Total beta = 28.00000, Total charge =  0.00000
