                              Psi4 1.0.54 Driver

  ==> Input File <==

--------------------------------------------------------------------------
set {
	reference rhf
	basis cc-pvtz
}

set_num_threads( 4 )
memory 2 gb

molecule MOL {
0 1

H	 -2.812148	 -0.417374	 0.908315
C	 -2.689450	 0.091277	 -0.045154
O	 -1.349126	 0.222153	 -0.382710
H	 -3.168865	 -0.494510	 -0.815805
H	 -3.183053	 1.059543	 0.015697
C	 -0.600223	 0.967237	 0.520413
C	 0.851415	 0.955430	 0.111815
H	 -0.952314	 1.998510	 0.542267
H	 -0.692225	 0.560084	 1.524999
O	 1.401606	 -0.295166	 0.366636
H	 0.927356	 1.201262	 -0.945177
H	 1.382631	 1.723110	 0.674353
C	 2.714315	 -0.441627	 -0.061017
H	 2.765292	 -0.641548	 -1.128869
H	 3.305661	 0.447341	 0.150952
H	 3.143725	 -1.278506	 0.470147

	symmetry c1
}
set optking {
	frozen_dihedral = ("
		7 10 13 14
	")
}

ee,wfn = optimize('scf', return_wfn=True)
oeprop( wfn, 'DIPOLE', 'QUADRUPOLE', 'MULLIKEN_CHARGES')
f=open( 'psi4out.xyz', 'w' )
f.write( "16  " )
f.write( str(ee) + "\n" )
f.write( MOL.save_string_xyz() )
f.close()
--------------------------------------------------------------------------

    Molecular point group: c1
  Charge       = 0
  Multiplicity = 1
  Basis Set: CC-PVTZ
  Basis Set:
  @DF-RHF Final Energy:  -307.09710240726139
    Total Energy =                       -307.0971024072612181
    Molecular point group: c1
  Basis Set: CC-PVTZ
  Basis Set:
  Basis Set: CC-PVTZ
  Basis Set:
  @DF-RHF Final Energy:  -307.09713779513862
    Total Energy =                       -307.0971377951386785
  Basis Set: CC-PVTZ
  Basis Set:
  Charge       = 0
  Multiplicity = 1
  Basis Set: CC-PVTZ
  Basis Set:

    Orbital Energies (a.u.)
    -----------------------

    Doubly Occupied:

       1A    -20.547774     2A    -20.547006     3A    -11.267562
       4A    -11.266845     5A    -11.261566     6A    -11.261404
       7A     -1.391207     8A     -1.373932     9A     -1.032032
      10A     -0.937236    11A     -0.892173    12A     -0.824220
      13A     -0.686172    14A     -0.682532    15A     -0.659196
      16A     -0.637304    17A     -0.632152    18A     -0.598187
      19A     -0.551167    20A     -0.537759    21A     -0.509225
      22A     -0.479550    23A     -0.464667    24A     -0.422410
      25A     -0.413260

  @DF-RHF Final Energy:  -307.09714114268030

   => Energetics <=

    Nuclear Repulsion Energy =            258.8397729671102638
    One-Electron Energy =                -932.1207557205723333
    Two-Electron Energy =                 366.1838416107817693
    DFT Exchange-Correlation Energy =       0.0000000000000000
    Empirical Dispersion Energy =           0.0000000000000000
    PCM Polarization Energy =               0.0000000000000000
    EFP Energy =                            0.0000000000000000
    Total Energy =                       -307.0971411426802433
    Molecular point group: c1
  Basis Set: CC-PVTZ
  Basis Set:

  -Total Gradient:
     Atom            X                  Y                   Z
    ------   -----------------  -----------------  -----------------
       1        0.000000832732    -0.000000076443     0.000000522294
       2       -0.000000695201     0.000000551458    -0.000000951501
       3       -0.000015635047    -0.000000772319     0.000000251197
       4        0.000001772347     0.000000722320     0.000000019087
       5        0.000000071200     0.000000776861    -0.000000118245
       6        0.000029373724    -0.000054761207    -0.000017685289
       7        0.000631035257     0.000692227840     0.001752785335
       8        0.000027342768    -0.000004545245    -0.000012167493
       9       -0.000002117551     0.000000132425     0.000011881882
      10       -0.000879953382    -0.001532152346    -0.002295825363
      11       -0.000009464270    -0.000012479733    -0.000006601774
      12       -0.000012207390     0.000012687162    -0.000006655754
      13        0.000356095784     0.003246231475     0.000113515425
      14       -0.000103928365    -0.002374360130     0.000433172078
      15       -0.000014456235     0.000008863415     0.000037794062
      16       -0.000008066366     0.000016954469    -0.000009935940

  **** Optimization is complete! (in 3 steps) ****
    Final optimized geometry and variables:
    Molecular point group: c1

    Geometry (in Angstrom), charge = 0, multiplicity = 1:

    H           -2.864389349041    -0.667355325942     0.822018451941
    C           -2.742560043884    -0.158832577685    -0.131615153639
    O           -1.402376259975    -0.023548353265    -0.467990534983
    H           -3.219254426076    -0.746651136444    -0.902399817271
    H           -3.239493788485     0.807800228783    -0.071769532431
    C           -0.656846392786     0.724540754022     0.435425168995
    C            0.795217961204     0.717346270480     0.028767744083
    H           -1.012201132034     1.754752718749     0.456166590617
    H           -0.748497263665     0.317677087831     1.440171037307
    O            1.348878675018    -0.531161311583     0.288752047366
    H            0.869861187957     0.962627299450    -1.028593742581
    H            1.323523623173     1.486737432598     0.590850594359
    C            2.661595601379    -0.685253953139    -0.140777036235
    H            2.707344918158    -0.893282352539    -1.206916447432
    H            3.264086444996     0.193366874552     0.076359854865
    H            3.084528467058    -1.529935968270     0.385019526679

  Mulliken Charges: (a.u.)
   Center  Symbol    Alpha    Beta     Spin     Total
       1     H     0.47015  0.47015  0.00000  0.05969
       2     C     3.03200  3.03200  0.00000 -0.06399
       3     O     4.17055  4.17055  0.00000 -0.34110
       4     H     0.44637  0.44637  0.00000  0.10727
       5     H     0.47368  0.47368  0.00000  0.05264
       6     C     2.96112  2.96112  0.00000  0.07777
       7     C     2.96022  2.96022  0.00000  0.07956
       8     H     0.47606  0.47606  0.00000  0.04788
       9     H     0.47088  0.47088  0.00000  0.05824
      10     O     4.17169  4.17169  0.00000 -0.34338
      11     H     0.47148  0.47148  0.00000  0.05703
      12     H     0.47514  0.47514  0.00000  0.04973
      13     C     3.03128  3.03128  0.00000 -0.06256
      14     H     0.46549  0.46549  0.00000  0.06902
      15     H     0.47500  0.47500  0.00000  0.05001
      16     H     0.44889  0.44889  0.00000  0.10221

   Total alpha = 25.00000, Total beta = 25.00000, Total charge = -0.00000

*** Psi4 exiting successfully. Buy a developer a beer!
