  ==> Input File <==

--------------------------------------------------------------------------
set {
	reference rhf
	basis 6-31G*
}

set_num_threads( 4 )
memory 2 gb

molecule MOL {
0 1

O	 -0.910023	 1.776904	 2.190022
C	 -0.676925	 1.942170	 1.031236
C	 0.570319	 1.352662	 0.396279
C	 -1.619244	 2.713055	 0.133936
C	 0.379448	 -0.143569	 0.099626
H	 1.388171	 1.481168	 1.096928
H	 0.821288	 1.883370	 -0.517717
C	 1.631333	 -0.777471	 -0.511575
H	 0.113078	 -0.640564	 1.025600
H	 -0.459195	 -0.277919	 -0.581824
C	 2.915987	 -0.544314	 0.291766
H	 1.766672	 -0.399098	 -1.523130
H	 1.471257	 -1.849544	 -0.605828
C	 3.373361	 0.914346	 0.347591
H	 3.708709	 -1.142521	 -0.150311
H	 2.780642	 -0.921148	 1.303579
H	 3.506512	 1.320010	 -0.651625
H	 4.322697	 0.999599	 0.867103
H	 2.660624	 1.545032	 0.868198
H	 -1.136880	 3.626751	 -0.203328
H	 -2.522867	 2.962012	 0.672704
H	 -1.865220	 2.135128	 -0.752236

	symmetry c1
}
set optking {
	frozen_dihedral = ("
		3 5 8 12
	")
}

ee = optimize('scf')
oeprop('DIPOLE', 'QUADRUPOLE', 'MULLIKEN_CHARGES')
f=open( 'psi4out.xyz', 'w' )
f.write( "22  " )
f.write( str(ee) + "\n" )
f.write( MOL.save_string_xyz() )
f.close()
--------------------------------------------------------------------------

    Molecular point group: c1
  Charge       = 0
  Multiplicity = 1
  Basis Set: 6-31G*
  Basis Set:
  @DF-RHF Final Energy:  -348.06618515383974
    Total Energy =                       -348.0661851538397968
    Molecular point group: c1
  Basis Set: 6-31G*
  Basis Set:
  Basis Set: 6-31G*
  Basis Set:
  @DF-RHF Final Energy:  -348.08565716247097
    Total Energy =                       -348.0856571624709659
  Basis Set: 6-31G*
  Basis Set:
  Basis Set: 6-31G*
  Basis Set:
  @DF-RHF Final Energy:  -348.09073711238074
    Total Energy =                       -348.0907371123808502
  Basis Set: 6-31G*
  Basis Set:
  Basis Set: 6-31G*
  Basis Set:
  @DF-RHF Final Energy:  -348.09201078098585
    Total Energy =                       -348.0920107809859019
  Basis Set: 6-31G*
  Basis Set:
  @DF-RHF Final Energy:  -348.09165994408750
    Total Energy =                       -348.0916599440874961
  @DF-RHF Final Energy:  -348.09323091373392
    Total Energy =                       -348.0932309137343736
  @DF-RHF Final Energy:  -348.09322220077343
    Total Energy =                       -348.0932222007735959
  @DF-RHF Final Energy:  -348.09324640026142
    Total Energy =                       -348.0932464002609095
  @DF-RHF Final Energy:  -348.09343414477786
    Total Energy =                       -348.0934341447781435
  Basis Set: 6-31G*
  Basis Set:
  @DF-RHF Final Energy:  -348.09337142870544
    Total Energy =                       -348.0933714287056091
  Basis Set: 6-31G*
  Basis Set:
  Basis Set: 6-31G*
  Basis Set:
  @DF-RHF Final Energy:  -348.09344330665726
    Total Energy =                       -348.0934433066569227
  Basis Set: 6-31G*
  Basis Set:
  Basis Set: 6-31G*
  Basis Set:
  @DF-RHF Final Energy:  -348.09344518110311
    Total Energy =                       -348.0934451811029362
  Basis Set: 6-31G*
  Basis Set:
  Charge       = 0
  Multiplicity = 1
  Basis Set: 6-31G*
  Basis Set:

    Orbital Energies (a.u.)
    -----------------------

    Doubly Occupied:

       1A    -20.547397     2A    -11.324394     3A    -11.230867
       4A    -11.228706     5A    -11.228192     6A    -11.222958
       7A    -11.221039     8A    -11.213024     9A     -1.393156
      10A     -1.094672    11A     -1.041761    12A     -0.999074
      13A     -0.944894    14A     -0.855389    15A     -0.785739
      16A     -0.735100    17A     -0.655778    18A     -0.654488
      19A     -0.620418    20A     -0.609409    21A     -0.598289
      22A     -0.592905    23A     -0.557321    24A     -0.550714
      25A     -0.534590    26A     -0.523329    27A     -0.499568
      28A     -0.486844    29A     -0.469167    30A     -0.463682
      31A     -0.455357    32A     -0.396210

  @DF-RHF Final Energy:  -348.09344525790073

   => Energetics <=

    Nuclear Repulsion Energy =            378.7334933079204120
    One-Electron Energy =               -1222.1850224027293734
    Two-Electron Energy =                 495.3580838369080084
    DFT Exchange-Correlation Energy =       0.0000000000000000
    Empirical Dispersion Energy =           0.0000000000000000
    PCM Polarization Energy =               0.0000000000000000
    EFP Energy =                            0.0000000000000000
    Total Energy =                       -348.0934452579009530
    Molecular point group: c1
  Basis Set: 6-31G*
  Basis Set:

  -Total Gradient:
     Atom            X                  Y                   Z
    ------   -----------------  -----------------  -----------------
       1        0.000004801400    -0.000000921770    -0.000004168335
       2       -0.000011511200    -0.000010346645    -0.000001042767
       3        0.000474251491    -0.000477721897     0.001440893654
       4        0.000006318555     0.000014918378     0.000007796730
       5       -0.000947987936     0.000317546627    -0.002306087041
       6        0.000003010161    -0.000001160167     0.000002034039
       7       -0.000000250636     0.000000218402     0.000001847835
       8        0.001614094812     0.001723380950     0.001814192275
       9        0.000002599369    -0.000000503418    -0.000002105151
      10       -0.000002358362     0.000001197232     0.000001797957
      11        0.000000133535     0.000008022269     0.000005638475
      12       -0.001142986987    -0.001559920559    -0.000960204849
      13       -0.000004618997     0.000000537699    -0.000001760799
      14       -0.000003916568    -0.000006385336     0.000002639722
      15        0.000006200838     0.000008310863     0.000000424589
      16        0.000003482560     0.000000761075     0.000003840180
      17       -0.000001443307    -0.000001617579    -0.000000968424
      18        0.000001537575     0.000000200683     0.000001538533
      19       -0.000000004055    -0.000007689996    -0.000001447768
      20       -0.000001156140    -0.000002176419    -0.000004352155
      21       -0.000000585188    -0.000001793069    -0.000000716859
      22        0.000000389082    -0.000004857325     0.000000210154

  **** Optimization is complete! (in 13 steps) ****
    Final optimized geometry and variables:
    Molecular point group: c1

    Geometry (in Angstrom), charge = 0, multiplicity = 1:

    O           -1.908599060222     0.717142914499     1.688557218160
    C           -1.567502618709     0.976234752354     0.574628406265
    C           -0.215032085547     0.527629602002     0.049503158181
    C           -2.465790610517     1.739584178889    -0.373442133663
    C           -0.283555315282    -0.937287945705    -0.413218676378
    H            0.495247257139     0.629231345659     0.860139851447
    H            0.104664641297     1.165821693294    -0.769674319119
    C            1.006899253359    -1.504323046706    -1.021055489385
    H           -0.569569383903    -1.541493462401     0.442745078588
    H           -1.079533622056    -1.047777671910    -1.146634954655
    C            2.270992324389    -1.418313014469    -0.146198610357
    H            1.189639484601    -1.042097977737    -1.989485936942
    H            0.807768948650    -2.550907369675    -1.237138729443
    C            3.135308354121    -0.176382988373    -0.379834711792
    H            2.886075833319    -2.291847983587    -0.343028931101
    H            1.993094424373    -1.482247469808     0.903489796138
    H            3.474412538914    -0.133658398581    -1.411058105999
    H            4.015915950058    -0.196639426696     0.254936069348
    H            2.603606056918     0.745006966964    -0.171623549151
    H           -2.032137049700     2.714759122374    -0.579038355300
    H           -3.444249698376     1.868838111753     0.067787044092
    H           -2.554629885305     1.221863927027    -1.323914045104

  Mulliken Charges: (a.u.)
   Center  Symbol    Alpha    Beta     Spin     Total
       1     O     4.26225  4.26225  0.00000 -0.52449
       2     C     2.73681  2.73681  0.00000  0.52639
       3     C     3.20256  3.20256  0.00000 -0.40512
       4     C     3.28946  3.28946  0.00000 -0.57891
       5     C     3.16272  3.16272  0.00000 -0.32545
       6     H     0.39908  0.39908  0.00000  0.20184
       7     H     0.41711  0.41711  0.00000  0.16578
       8     C     3.15451  3.15451  0.00000 -0.30902
       9     H     0.40696  0.40696  0.00000  0.18607
      10     H     0.41974  0.41974  0.00000  0.16052
      11     C     3.15900  3.15900  0.00000 -0.31799
      12     H     0.42223  0.42223  0.00000  0.15554
      13     H     0.41689  0.41689  0.00000  0.16623
      14     C     3.24106  3.24106  0.00000 -0.48212
      15     H     0.41802  0.41802  0.00000  0.16396
      16     H     0.41801  0.41801  0.00000  0.16398
      17     H     0.42147  0.42147  0.00000  0.15706
      18     H     0.41828  0.41828  0.00000  0.16344
      19     H     0.42027  0.42027  0.00000  0.15945
      20     H     0.40669  0.40669  0.00000  0.18662
      21     H     0.39702  0.39702  0.00000  0.20597
      22     H     0.40987  0.40987  0.00000  0.18025

   Total alpha = 32.00000, Total beta = 32.00000, Total charge = -0.00000
