  ==> Input File <==

--------------------------------------------------------------------------
set {
	reference rhf
	basis 6-31G*
}

set_num_threads( 4 )
memory 2 gb

molecule MOL {
0 1

H	 3.463771	 0.168298	 -0.756243
C	 2.752674	 -0.045734	 0.033351
C	 1.322923	 0.120767	 -0.479465
H	 2.934561	 -1.059086	 0.377456
H	 2.958358	 0.631174	 0.856809
C	 0.306652	 -0.176050	 0.621399
H	 1.144658	 -0.551717	 -1.312180
H	 1.166477	 1.131798	 -0.836680
N	 -1.068537	 -0.011044	 0.085269
H	 0.372515	 -1.192590	 0.973735
H	 0.391664	 0.520566	 1.441230
O	 -1.452557	 -0.817785	 -0.704079
O	 -1.684554	 0.940030	 0.459443

	symmetry c1
}
set optking {
	frozen_dihedral = ("
		12 9 6 3
	")
}

ee = optimize('scf')
oeprop('DIPOLE', 'QUADRUPOLE', 'MULLIKEN_CHARGES')
f=open( 'psi4out.xyz', 'w' )
f.write( "13  " )
f.write( str(ee) + "\n" )
f.write( MOL.save_string_xyz() )
f.close()
--------------------------------------------------------------------------

    Molecular point group: c1
  Charge       = 0
  Multiplicity = 1
  Basis Set: 6-31G*
  Basis Set:
  @DF-RHF Final Energy:  -321.73545111360124
    Total Energy =                       -321.7354511136012434
    Molecular point group: c1
  Basis Set: 6-31G*
  Basis Set:
  Basis Set: 6-31G*
  Basis Set:
  @DF-RHF Final Energy:  -321.73031499912145
    Total Energy =                       -321.7303149991213900
  Basis Set: 6-31G*
  Basis Set:
  Basis Set: 6-31G*
  Basis Set:
  @DF-RHF Final Energy:  -321.73529610126775
    Total Energy =                       -321.7352961012678065
  Basis Set: 6-31G*
  Basis Set:
  Basis Set: 6-31G*
  Basis Set:
  @DF-RHF Final Energy:  -321.73555160501581
    Total Energy =                       -321.7355516050160418
  Basis Set: 6-31G*
  Basis Set:
  Basis Set: 6-31G*
  Basis Set:
  @DF-RHF Final Energy:  -321.73555751991410
    Total Energy =                       -321.7355575199142095
  Basis Set: 6-31G*
  Basis Set:
  Basis Set: 6-31G*
  Basis Set:
  @DF-RHF Final Energy:  -321.73557416071196
    Total Energy =                       -321.7355741607119057
  Basis Set: 6-31G*
  Basis Set:
  Charge       = 0
  Multiplicity = 1
  Basis Set: 6-31G*
  Basis Set:

    Orbital Energies (a.u.)
    -----------------------

    Doubly Occupied:

       1A    -20.602513     2A    -20.598916     3A    -15.847080
       4A    -11.299354     5A    -11.256340     6A    -11.239763
       7A     -1.630680     8A     -1.416129     9A     -1.135122
      10A     -1.028413    11A     -0.884245    12A     -0.832506
      13A     -0.758734    14A     -0.735533    15A     -0.723268
      16A     -0.671180    17A     -0.604726    18A     -0.587838
      19A     -0.550830    20A     -0.522031    21A     -0.513975
      22A     -0.483904    23A     -0.473604    24A     -0.448019

  @DF-RHF Final Energy:  -321.73557418500121

   => Energetics <=

    Nuclear Repulsion Energy =            247.3535059441072121
    One-Electron Energy =                -928.4887595889390468
    Two-Electron Energy =                 359.3996794598306224
    DFT Exchange-Correlation Energy =       0.0000000000000000
    Empirical Dispersion Energy =           0.0000000000000000
    PCM Polarization Energy =               0.0000000000000000
    EFP Energy =                            0.0000000000000000
    Total Energy =                       -321.7355741850012691
    Molecular point group: c1
  Basis Set: 6-31G*
  Basis Set:

  -Total Gradient:
     Atom            X                  Y                   Z
    ------   -----------------  -----------------  -----------------
       1       -0.000000888027    -0.000010052804    -0.000003095690
       2       -0.000004872316    -0.000008220873    -0.000000603003
       3       -0.000011008845    -0.000133926499    -0.000030241145
       4       -0.000009980532     0.000006281460     0.000011310800
       5        0.000011847471     0.000010904788    -0.000005972147
       6        0.000030504057     0.000162263013     0.000017984415
       7        0.000007192375     0.000032453232    -0.000021365995
       8       -0.000005425233     0.000012187163     0.000022974066
       9       -0.000005845171    -0.000081857194     0.000030069489
      10        0.000004691868    -0.000018778631    -0.000002824947
      11       -0.000011583159    -0.000023019312    -0.000000415026
      12        0.000041432682     0.000049370639    -0.000021485041
      13       -0.000046065171     0.000002395021     0.000003664223

  **** Optimization is complete! (in 7 steps) ****
    Final optimized geometry and variables:
    Molecular point group: c1

    Geometry (in Angstrom), charge = 0, multiplicity = 1:

    H            3.469529728880     0.157417914026    -0.758477144803
    C            2.756047706306    -0.047312525482     0.031429084036
    C            1.327795753684     0.111613047354    -0.488166640781
    H            2.936686658003    -1.057060615495     0.387117006458
    H            2.960102703348     0.638177137109     0.848062803891
    C            0.309712536506    -0.177881121659     0.611920864099
    H            1.150249609246    -0.562677950372    -1.316695747895
    H            1.175443393823     1.122937110243    -0.851881081076
    N           -1.069388462750    -0.006388455006     0.085864630039
    H            0.369554334683    -1.202897380649     0.947103573593
    H            0.399374288991     0.499276748557     1.445342315088
    O           -1.451251129476    -0.819008870478    -0.700574312580
    O           -1.693898147556     0.935322090714     0.464835500074

  Mulliken Charges: (a.u.)
   Center  Symbol    Alpha    Beta     Spin     Total
       1     H     0.40732  0.40732  0.00000  0.18536
       2     C     3.24832  3.24832  0.00000 -0.49664
       3     C     3.17287  3.17287  0.00000 -0.34573
       4     H     0.41483  0.41483  0.00000  0.17034
       5     H     0.41480  0.41480  0.00000  0.17040
       6     C     3.08393  3.08393  0.00000 -0.16787
       7     H     0.39519  0.39519  0.00000  0.20961
       8     H     0.40294  0.40294  0.00000  0.19412
       9     N     3.22334  3.22334  0.00000  0.55331
      10     H     0.38900  0.38900  0.00000  0.22200
      11     H     0.38703  0.38703  0.00000  0.22594
      12     O     4.23162  4.23162  0.00000 -0.46324
      13     O     4.22881  4.22881  0.00000 -0.45761

   Total alpha = 24.00000, Total beta = 24.00000, Total charge = -0.00000
