                              Psi4 1.0.54 Driver

  ==> Input File <==

--------------------------------------------------------------------------
set {
	reference rhf
	basis cc-pvtz
}

set_num_threads( 4 )
memory 2 gb

molecule MOL {
0 1

H	 0.009708	 -1.557515	 -1.156991
C	 -0.039965	 -1.229631	 -0.122533
H	 0.331645	 -2.037090	 0.492165
C	 0.847038	 0.000031	 0.000067
C	 -1.443594	 -0.733012	 0.230625
O	 2.029941	 0.000050	 0.000189
C	 -0.040063	 1.229622	 0.122633
H	 -2.228836	 -1.317271	 -0.229152
H	 -1.592856	 -0.778117	 1.304707
C	 -1.443532	 0.732943	 -0.231001
H	 0.009262	 1.557342	 1.157183
H	 0.331662	 2.037201	 -0.491816
H	 -2.228944	 1.317157	 0.228532
H	 -1.592428	 0.778066	 -1.305140

	symmetry c1
}
ee,wfn = energy('scf', return_wfn=True)
oeprop( wfn, 'DIPOLE', 'QUADRUPOLE', 'MULLIKEN_CHARGES')
oeprop( wfn, 'GRID_ESP')
f=open( 'psi4out.xyz', 'w' )
f.write( "14  " )
f.write( str(ee) + "\n" )
f.write( MOL.save_string_xyz() )
f.close()
--------------------------------------------------------------------------

    Molecular point group: c1

    Geometry (in Angstrom), charge = 0, multiplicity = 1:

       Center              X                  Y                   Z               Mass
    ------------   -----------------  -----------------  -----------------  -----------------
           H          0.009564222299    -1.557515082913    -1.156990988489     1.007825032070
           C         -0.040108777701    -1.229631082913    -0.122532988489    12.000000000000
           H          0.331501222299    -2.037090082913     0.492165011511     1.007825032070
           C          0.846894222299     0.000030917087     0.000067011511    12.000000000000
           C         -1.443737777701    -0.733012082913     0.230625011511    12.000000000000
           O          2.029797222299     0.000049917087     0.000189011511    15.994914619560
           C         -0.040206777701     1.229621917087     0.122633011511    12.000000000000
           H         -2.228979777701    -1.317271082913    -0.229151988489     1.007825032070
           H         -1.592999777701    -0.778117082913     1.304707011511     1.007825032070
           C         -1.443675777701     0.732942917087    -0.231000988489    12.000000000000
           H          0.009118222299     1.557341917087     1.157183011511     1.007825032070
           H          0.331518222299     2.037200917087    -0.491815988489     1.007825032070
           H         -2.229087777701     1.317156917087     0.228532011511     1.007825032070
           H         -1.592571777701     0.778065917087    -1.305139988489     1.007825032070

  Charge       = 0
  Multiplicity = 1
  Basis Set: CC-PVTZ
  Basis Set:

    Orbital Energies (a.u.)
    -----------------------

    Doubly Occupied:

       1A    -20.538429     2A    -11.318822     3A    -11.232190
       4A    -11.231610     5A    -11.229596     6A    -11.229585
       7A     -1.398482     8A     -1.131806     9A     -0.992484
      10A     -0.939388    11A     -0.812017    12A     -0.733584
      13A     -0.673905    14A     -0.666503    15A     -0.600774
      16A     -0.594905    17A     -0.571020    18A     -0.558571
      19A     -0.505559    20A     -0.491632    21A     -0.482414
      22A     -0.481207    23A     -0.391273

  @DF-RHF Final Energy:  -268.96049530944305

   => Energetics <=

    Nuclear Repulsion Energy =            237.1654397507377894
    One-Electron Energy =                -834.6404258133768508
    Two-Electron Energy =                 328.5144907531960143
    DFT Exchange-Correlation Energy =       0.0000000000000000
    Empirical Dispersion Energy =           0.0000000000000000
    PCM Polarization Energy =               0.0000000000000000
    EFP Energy =                            0.0000000000000000
    Total Energy =                       -268.9604953094431039

  Mulliken Charges: (a.u.)
   Center  Symbol    Alpha    Beta     Spin     Total
       1     H     0.44177  0.44177  0.00000  0.11646
       2     C     3.11048  3.11048  0.00000 -0.22097
       3     H     0.43474  0.43474  0.00000  0.13053
       4     C     2.86544  2.86544  0.00000  0.26913
       5     C     3.10182  3.10182  0.00000 -0.20365
       6     O     4.17340  4.17340  0.00000 -0.34681
       7     C     3.11048  3.11048  0.00000 -0.22095
       8     H     0.44183  0.44183  0.00000  0.11633
       9     H     0.44993  0.44993  0.00000  0.10013
      10     C     3.10182  3.10182  0.00000 -0.20364
      11     H     0.44178  0.44178  0.00000  0.11645
      12     H     0.43473  0.43473  0.00000  0.13053
      13     H     0.44184  0.44184  0.00000  0.11633
      14     H     0.44993  0.44993  0.00000  0.10013

   Total alpha = 23.00000, Total beta = 23.00000, Total charge =  0.00000

*** Psi4 exiting successfully. Buy a developer a beer!
