                              Psi4 1.0.54 Driver

  ==> Input File <==

--------------------------------------------------------------------------
set {
	reference rhf
	basis cc-pvtz
}

set_num_threads( 4 )
memory 2 gb

molecule MOL {
0 1

O	 3.154647	 0.878118	 -0.897536
C	 2.841259	 0.166180	 -0.000295
C	 1.542794	 -0.614730	 -0.000853
C	 3.726638	 -0.008924	 1.212828
C	 0.288398	 0.247429	 0.000314
H	 1.557171	 -1.273139	 -0.866508
H	 1.557484	 -1.274998	 0.863344
C	 -0.993089	 -0.581367	 -0.000217
H	 0.305153	 0.900562	 -0.864701
H	 0.305567	 0.898805	 0.866656
C	 -2.258482	 0.271340	 0.000669
H	 -1.002280	 -1.233920	 -0.870484
H	 -1.002061	 -1.235367	 0.868958
C	 -3.544441	 -0.550271	 -0.000253
H	 -2.250545	 0.925250	 -0.867923
H	 -2.250598	 0.923423	 0.870642
C	 -4.804551	 0.308747	 0.000556
H	 -3.553737	 -1.201524	 -0.870151
H	 -3.553831	 -1.203282	 0.868313
H	 -4.842050	 0.949078	 -0.874436
H	 -5.698404	 -0.304480	 -0.000254
H	 -4.842277	 0.947103	 0.876982
H	 3.998574	 -1.052169	 1.330037
H	 4.618303	 0.589108	 1.104743
H	 3.194531	 0.287909	 2.109931

	symmetry c1
}
set optking {
	frozen_dihedral = ("
		1 2 3 6
	")
}

ee,wfn = optimize('scf', return_wfn=True)
oeprop( wfn, 'DIPOLE', 'QUADRUPOLE', 'MULLIKEN_CHARGES')
f=open( 'psi4out.xyz', 'w' )
f.write( "25  " )
f.write( str(ee) + "\n" )
f.write( MOL.save_string_xyz() )
f.close()
--------------------------------------------------------------------------

    Molecular point group: c1
  Charge       = 0
  Multiplicity = 1
  Basis Set: CC-PVTZ
  Basis Set:
  @DF-RHF Final Energy:  -387.27201595436350
    Total Energy =                       -387.2720159543638374
    Molecular point group: c1
  Basis Set: CC-PVTZ
  Basis Set:
  Basis Set: CC-PVTZ
  Basis Set:
  @DF-RHF Final Energy:  -387.27281672740520
    Total Energy =                       -387.2728167274050293
  Basis Set: CC-PVTZ
  Basis Set:
  Basis Set: CC-PVTZ
  Basis Set:
  @DF-RHF Final Energy:  -387.27248680917035
    Total Energy =                       -387.2724868091706867
  Basis Set: CC-PVTZ
  Basis Set:
  Basis Set: CC-PVTZ
  Basis Set:
  @DF-RHF Final Energy:  -387.27284117740288
    Total Energy =                       -387.2728411774027109
  Basis Set: CC-PVTZ
  Basis Set:
  Basis Set: CC-PVTZ
  Basis Set:
  @DF-RHF Final Energy:  -387.27286209668745
    Total Energy =                       -387.2728620966875042
  Basis Set: CC-PVTZ
  Basis Set:
  Charge       = 0
  Multiplicity = 1
  Basis Set: CC-PVTZ
  Basis Set:

    Orbital Energies (a.u.)
    -----------------------

    Doubly Occupied:

       1A    -20.536772     2A    -11.319987     3A    -11.228043
       4A    -11.227331     5A    -11.222887     6A    -11.217576
       7A    -11.215230     8A    -11.213986     9A    -11.207855
      10A     -1.397436    11A     -1.097663    12A     -1.058471
      13A     -1.014901    14A     -0.971428    15A     -0.892888
      16A     -0.816247    17A     -0.793884    18A     -0.732885
      19A     -0.667049    20A     -0.650357    21A     -0.638335
      22A     -0.614535    23A     -0.602703    24A     -0.587001
      25A     -0.569697    26A     -0.560010    27A     -0.541725
      28A     -0.537002    29A     -0.511355    30A     -0.495984
      31A     -0.490305    32A     -0.474934    33A     -0.466159
      34A     -0.465523    35A     -0.453336    36A     -0.398387

  @DF-RHF Final Energy:  -387.27286233254227

   => Energetics <=

    Nuclear Repulsion Energy =            439.4612690039672884
    One-Electron Energy =               -1395.6885312423351024
    Two-Electron Energy =                 568.9543999058259942
    DFT Exchange-Correlation Energy =       0.0000000000000000
    Empirical Dispersion Energy =           0.0000000000000000
    PCM Polarization Energy =               0.0000000000000000
    EFP Energy =                            0.0000000000000000
    Total Energy =                       -387.2728623325417630
    Molecular point group: c1
  Basis Set: CC-PVTZ
  Basis Set:

  -Total Gradient:
     Atom            X                  Y                   Z
    ------   -----------------  -----------------  -----------------
       1        0.000093408206    -0.000167926829    -0.000078295737
       2       -0.000150368531     0.000295056720     0.000064289084
       3        0.000149804365    -0.000239749156     0.000119790997
       4        0.000033878810    -0.000056706261     0.000045210444
       5        0.000008255985    -0.000015293956    -0.000005641234
       6       -0.000104481094     0.000154054570    -0.000103498353
       7       -0.000003950197    -0.000004354254    -0.000004960028
       8       -0.000005019685    -0.000000975605    -0.000013399635
       9       -0.000007376458    -0.000006355132    -0.000003713404
      10        0.000000719786    -0.000001256741    -0.000000267117
      11        0.000002093446     0.000002708483     0.000004198277
      12        0.000005131246     0.000003812202    -0.000001173073
      13        0.000006849259     0.000000698477    -0.000004912402
      14       -0.000000804254     0.000000996007     0.000003727074
      15       -0.000001060370    -0.000005481881     0.000000142162
      16       -0.000002851390     0.000005544599    -0.000002105705
      17       -0.000003716682     0.000000375231     0.000004049738
      18        0.000001452325     0.000003441926     0.000001023213
      19       -0.000000652501    -0.000001380777    -0.000000836997
      20        0.000000977836    -0.000001376181     0.000000562862
      21       -0.000000115330     0.000000875079     0.000000627622
      22       -0.000000545357    -0.000000374294    -0.000001221207
      23       -0.000010131540     0.000026970046     0.000007163709
      24       -0.000016037787     0.000004273186    -0.000005717686
      25        0.000004539922     0.000002424541    -0.000025042607

  **** Optimization is complete! (in 6 steps) ****
    Final optimized geometry and variables:
    Molecular point group: c1

    Geometry (in Angstrom), charge = 0, multiplicity = 1:

    O            3.059243191865     0.885646062088    -0.930802739603
    C            2.838650877145     0.148238127545    -0.026087494157
    C            1.566847785228    -0.681321166221     0.011100569243
    C            3.802404590805    -0.004829680898     1.124665628546
    C            0.312945822094     0.196398479918     0.001030259000
    H            1.575156762630    -1.311020973964    -0.872731311456
    H            1.564067473035    -1.333520487186     0.876993537992
    C           -0.977043713321    -0.617665487141    -0.025321114932
    H            0.356396216758     0.850755636034    -0.860829290765
    H            0.315818920585     0.838584243351     0.878358634458
    C           -2.232960199040     0.248990416371    -0.031133326510
    H           -0.977456835067    -1.256854613575    -0.904782965377
    H           -1.003917208668    -1.282761905085     0.834677393999
    C           -3.526942197745    -0.559346187879    -0.063483460765
    H           -2.204773574870     0.914803489296    -0.890078989570
    H           -2.232590646166     0.888382846493     0.848539680728
    C           -4.778089259415     0.312588898880    -0.068480579781
    H           -3.529385638340    -1.197042079418    -0.943237997912
    H           -3.555868714969    -1.225261076123     0.794795749641
    H           -4.795879696550     0.966231731350    -0.934163436783
    H           -5.677811977365    -0.291450257584    -0.092049832947
    H           -4.822874518257     0.938010348924     0.816957600031
    H            4.132656711809    -1.036253811625     1.191501548733
    H            4.653243540605     0.644830616427     0.988729055701
    H            3.302072944523     0.230919808627     2.058280818294

  Mulliken Charges: (a.u.)
   Center  Symbol    Alpha    Beta     Spin     Total
       1     O     4.17700  4.17700  0.00000 -0.35399
       2     C     2.85841  2.85841  0.00000  0.28318
       3     C     3.10287  3.10287  0.00000 -0.20575
       4     C     3.15345  3.15345  0.00000 -0.30691
       5     C     3.09510  3.09510  0.00000 -0.19019
       6     H     0.44211  0.44211  0.00000  0.11578
       7     H     0.44795  0.44795  0.00000  0.10411
       8     C     3.09032  3.09032  0.00000 -0.18063
       9     H     0.43831  0.43831  0.00000  0.12338
      10     H     0.45394  0.45394  0.00000  0.09213
      11     C     3.08671  3.08671  0.00000 -0.17341
      12     H     0.45304  0.45304  0.00000  0.09393
      13     H     0.45501  0.45501  0.00000  0.08998
      14     C     3.08448  3.08448  0.00000 -0.16895
      15     H     0.45272  0.45272  0.00000  0.09456
      16     H     0.45499  0.45499  0.00000  0.09002
      17     C     3.15034  3.15034  0.00000 -0.30069
      18     H     0.45426  0.45426  0.00000  0.09148
      19     H     0.45512  0.45512  0.00000  0.08976
      20     H     0.45441  0.45441  0.00000  0.09118
      21     H     0.44832  0.44832  0.00000  0.10335
      22     H     0.45520  0.45520  0.00000  0.08960
      23     H     0.44900  0.44900  0.00000  0.10201
      24     H     0.43639  0.43639  0.00000  0.12722
      25     H     0.45057  0.45057  0.00000  0.09886

   Total alpha = 36.00000, Total beta = 36.00000, Total charge = -0.00000

*** Psi4 exiting successfully. Buy a developer a beer!
