  ==> Input File <==

--------------------------------------------------------------------------
set {
	reference rhf
	basis 6-31G*
}

set_num_threads( 4 )
memory 2 gb

molecule MOL {
0 1

H	 2.157954	 -2.639345	 4.301560
C	 1.938524	 -2.513278	 3.246237
C	 0.684802	 -1.663749	 3.042658
H	 2.805402	 -2.051099	 2.782404
H	 1.820583	 -3.502705	 2.813374
C	 0.339895	 -1.462777	 1.570568
H	 0.813243	 -0.689448	 3.503775
H	 -0.156270	 -2.136809	 3.546843
N	 -0.835782	 -0.628774	 1.416689
H	 1.168896	 -0.967006	 1.072639
H	 0.225782	 -2.437614	 1.084720
C	 -1.217365	 -0.386708	 0.039277
H	 -1.605127	 -1.044229	 1.907145
C	 -2.452633	 0.504241	 -0.042481
H	 -0.385765	 0.107301	 -0.456055
H	 -1.398334	 -1.315300	 -0.512402
C	 -3.758029	 -0.289423	 -0.010781
H	 -2.394220	 1.093569	 -0.952170
H	 -2.440793	 1.210787	 0.785871
H	 -3.816659	 -0.981993	 -0.845726
H	 -4.617837	 0.370165	 -0.069296
H	 -3.847478	 -0.867502	 0.904682

	symmetry c1
}
set optking {
	frozen_dihedral = ("
		15 12 14 18
	")
}

ee = optimize('scf')
oeprop('DIPOLE', 'QUADRUPOLE', 'MULLIKEN_CHARGES')
f=open( 'psi4out.xyz', 'w' )
f.write( "22  " )
f.write( str(ee) + "\n" )
f.write( MOL.save_string_xyz() )
f.close()
--------------------------------------------------------------------------

    Molecular point group: c1
  Charge       = 0
  Multiplicity = 1
  Basis Set: 6-31G*
  Basis Set:
  @DF-RHF Final Energy:  -290.37993459226061
    Total Energy =                       -290.3799345922605539
    Molecular point group: c1
  Basis Set: 6-31G*
  Basis Set:
  Basis Set: 6-31G*
  Basis Set:
  @DF-RHF Final Energy:  -290.38024617727581
    Total Energy =                       -290.3802461772760353
  Basis Set: 6-31G*
  Basis Set:
  Basis Set: 6-31G*
  Basis Set:
  @DF-RHF Final Energy:  -290.38032366654596
    Total Energy =                       -290.3803236665462464
  Basis Set: 6-31G*
  Basis Set:
  Basis Set: 6-31G*
  Basis Set:
  @DF-RHF Final Energy:  -290.38032468238794
    Total Energy =                       -290.3803246823879931
  Basis Set: 6-31G*
  Basis Set:
  Charge       = 0
  Multiplicity = 1
  Basis Set: 6-31G*
  Basis Set:

    Orbital Energies (a.u.)
    -----------------------

    Doubly Occupied:

       1A    -15.533899     2A    -11.237924     3A    -11.237860
       4A    -11.213528     5A    -11.213356     6A    -11.211516
       7A    -11.209692     8A     -1.205569     9A     -1.058496
      10A     -1.024295    11A     -0.928610    12A     -0.875859
      13A     -0.806919    14A     -0.792363    15A     -0.666568
      16A     -0.634688    17A     -0.619837    18A     -0.589001
      19A     -0.575456    20A     -0.569045    21A     -0.549438
      22A     -0.527227    23A     -0.506639    24A     -0.488075
      25A     -0.479202    26A     -0.470057    27A     -0.467694
      28A     -0.451142    29A     -0.358364

  @DF-RHF Final Energy:  -290.38032490140927

   => Energetics <=

    Nuclear Repulsion Energy =            316.0412190241206645
    One-Electron Energy =               -1017.8384490828783555
    Two-Electron Energy =                 411.4169051573484239
    DFT Exchange-Correlation Energy =       0.0000000000000000
    Empirical Dispersion Energy =           0.0000000000000000
    PCM Polarization Energy =               0.0000000000000000
    EFP Energy =                            0.0000000000000000
    Total Energy =                       -290.3803249014092671
    Molecular point group: c1
  Basis Set: 6-31G*
  Basis Set:

  -Total Gradient:
     Atom            X                  Y                   Z
    ------   -----------------  -----------------  -----------------
       1       -0.000001631406    -0.000002905265    -0.000000041383
       2       -0.000003667849    -0.000006067545     0.000003999406
       3        0.000015221887    -0.000007262892     0.000004795199
       4       -0.000000017553     0.000002660529     0.000002492134
       5        0.000001915187    -0.000000466195    -0.000002548410
       6        0.000021581993    -0.000019884834     0.000025075875
       7        0.000003077621     0.000003037707    -0.000007786911
       8       -0.000000007294     0.000000132502     0.000002625444
       9       -0.000010192666     0.000006320983    -0.000039128928
      10       -0.000009315794     0.000006370079     0.000002943882
      11        0.000000950352     0.000003648413     0.000001939094
      12        0.001464609382     0.002773184889     0.004396189869
      13       -0.000002311867    -0.000006581346     0.000001402582
      14       -0.002322280225    -0.003834182550    -0.003026581338
      15       -0.000868459729    -0.001684585186    -0.003215281847
      16       -0.000004499220    -0.000017759312     0.000016640308
      17        0.000010875675     0.000017413845    -0.000001733334
      18        0.001702640734     0.002757771671     0.001820248468
      19       -0.000005892888    -0.000001389528     0.000013262889
      20        0.000011471369     0.000005928785     0.000008688681
      21       -0.000006767596     0.000000993985    -0.000003363992
      22        0.000002699894     0.000003621267    -0.000003837692

  **** Optimization is complete! (in 5 steps) ****
    Final optimized geometry and variables:
    Molecular point group: c1

    Geometry (in Angstrom), charge = 0, multiplicity = 1:

    H            2.912275508643    -1.723864711906     2.974666848087
    C            2.691812037669    -1.595172755198     1.919858203804
    C            1.448127389770    -0.730312072612     1.719411296383
    H            3.563098164367    -1.143673825303     1.453831940358
    H            2.560646251477    -2.583093555005     1.487345725849
    C            1.102320782319    -0.524980309635     0.248167319356
    H            1.589601103909     0.242240145052     2.180301935050
    H            0.602453789615    -1.193137076669     2.225561402897
    N           -0.064166665458     0.322305669939     0.096860844833
    H            1.935368342734    -0.037870149610    -0.251640921556
    H            0.976427230037    -1.498086282303    -0.238162644430
    C           -0.436642304574     0.573709756143    -1.282089258712
    H           -0.837251436016    -0.089510120781     0.584073925161
    C           -1.703547626811     1.428983829788    -1.386395277964
    H            0.387339632687     1.080543352312    -1.774919001563
    H           -0.583271909864    -0.355611583624    -1.844037540477
    C           -3.004769178324     0.628443109797    -1.329745485190
    H           -1.666645974732     2.013667679659    -2.301476705130
    H           -1.682087401537     2.152604341776    -0.576363648444
    H           -3.070701857780    -0.072089816627    -2.157156308041
    H           -3.868724148179     1.283619841423    -1.380239013183
    H           -3.085520698943     0.057540070990    -0.408408820610

  Mulliken Charges: (a.u.)
   Center  Symbol    Alpha    Beta     Spin     Total
       1     H     0.41774  0.41774  0.00000  0.16452
       2     C     3.24329  3.24329  0.00000 -0.48658
       3     C     3.15535  3.15535  0.00000 -0.31069
       4     H     0.42068  0.42068  0.00000  0.15865
       5     H     0.42167  0.42167  0.00000  0.15667
       6     C     3.04747  3.04747  0.00000 -0.09495
       7     H     0.41297  0.41297  0.00000  0.17406
       8     H     0.42679  0.42679  0.00000  0.14642
       9     N     3.85673  3.85673  0.00000 -0.71346
      10     H     0.42171  0.42171  0.00000  0.15659
      11     H     0.43608  0.43608  0.00000  0.12784
      12     C     3.05115  3.05115  0.00000 -0.10231
      13     H     0.33375  0.33375  0.00000  0.33251
      14     C     3.16276  3.16276  0.00000 -0.32552
      15     H     0.41941  0.41941  0.00000  0.16119
      16     H     0.43652  0.43652  0.00000  0.12696
      17     C     3.24111  3.24111  0.00000 -0.48222
      18     H     0.41970  0.41970  0.00000  0.16060
      19     H     0.41157  0.41157  0.00000  0.17687
      20     H     0.42067  0.42067  0.00000  0.15866
      21     H     0.41754  0.41754  0.00000  0.16492
      22     H     0.42536  0.42536  0.00000  0.14928

   Total alpha = 29.00000, Total beta = 29.00000, Total charge =  0.00000
