  ==> Input File <==

--------------------------------------------------------------------------
set {
	reference rhf
	basis 6-31G*
}

set_num_threads( 4 )
memory 2 gb

molecule MOL {
0 1

O	 3.225979	 0.970355	 -0.599647
C	 2.701189	 0.057885	 -0.047330
C	 1.245376	 -0.013843	 0.345420
O	 3.347903	 -1.046386	 0.304773
C	 0.455112	 1.231400	 -0.050772
H	 0.838542	 -0.913825	 -0.103701
H	 1.208210	 -0.175333	 1.419774
C	 -0.998893	 1.219485	 0.433193
H	 0.482531	 1.345121	 -1.130325
H	 0.957290	 2.103070	 0.354729
C	 -1.883438	 0.145884	 -0.207175
H	 -1.431207	 2.195402	 0.224832
H	 -1.019646	 1.105716	 1.516076
C	 -2.238923	 -0.986087	 0.758885
H	 -2.799458	 0.608043	 -0.572052
H	 -1.387532	 -0.278064	 -1.077415
C	 -3.118285	 -2.067378	 0.128279
H	 -2.747969	 -0.571366	 1.627282
H	 -1.323139	 -1.441646	 1.132389
C	 -3.471890	 -3.192138	 1.100688
H	 -4.033405	 -1.613699	 -0.246384
H	 -2.609269	 -2.486153	 -0.737348
H	 -4.095386	 -3.942674	 0.624710
H	 -4.013194	 -2.810233	 1.961696
H	 -2.578008	 -3.688931	 1.467355
C	 4.728119	 -1.109107	 -0.004993
H	 4.882018	 -1.033965	 -1.071845
H	 5.068212	 -2.067527	 0.355250
H	 5.265056	 -0.311663	 0.488280

	symmetry c1
}
set optking {
	frozen_dihedral = ("
		15 11 8 5
	")
}

ee = optimize('scf')
oeprop('DIPOLE', 'QUADRUPOLE', 'MULLIKEN_CHARGES')
f=open( 'psi4out.xyz', 'w' )
f.write( "29  " )
f.write( str(ee) + "\n" )
f.write( MOL.save_string_xyz() )
f.close()
--------------------------------------------------------------------------

    Molecular point group: c1
  Charge       = 0
  Multiplicity = 1
  Basis Set: 6-31G*
  Basis Set:
  @DF-RHF Final Energy:  -501.03889456433467
    Total Energy =                       -501.0388945643346688
    Molecular point group: c1
  Basis Set: 6-31G*
  Basis Set:
  Basis Set: 6-31G*
  Basis Set:
  @DF-RHF Final Energy:  -501.03918214151270
    Total Energy =                       -501.0391821415116738
  Basis Set: 6-31G*
  Basis Set:
  Basis Set: 6-31G*
  Basis Set:
  @DF-RHF Final Energy:  -501.03926315956733
    Total Energy =                       -501.0392631595670991
  Basis Set: 6-31G*
  Basis Set:
  Basis Set: 6-31G*
  Basis Set:
  @DF-RHF Final Energy:  -501.03902182695117
    Total Energy =                       -501.0390218269521938
  Basis Set: 6-31G*
  Basis Set:
  Basis Set: 6-31G*
  Basis Set:
  @DF-RHF Final Energy:  -501.03927308959953
    Total Energy =                       -501.0392730895988507
  Basis Set: 6-31G*
  Basis Set:
  Basis Set: 6-31G*
  Basis Set:
  @DF-RHF Final Energy:  -501.03926197491455
    Total Energy =                       -501.0392619749146661
  Basis Set: 6-31G*
  Basis Set:
  Basis Set: 6-31G*
  Basis Set:
  @DF-RHF Final Energy:  -501.03927925693870
    Total Energy =                       -501.0392792569391531
  Basis Set: 6-31G*
  Basis Set:
  Charge       = 0
  Multiplicity = 1
  Basis Set: 6-31G*
  Basis Set:

    Orbital Energies (a.u.)
    -----------------------

    Doubly Occupied:

       1A    -20.603527     2A    -20.545347     3A    -11.372120
       4A    -11.280783     5A    -11.234891     6A    -11.219184
       7A    -11.217401     8A    -11.216527     9A    -11.216130
      10A    -11.215507    11A    -11.209779    12A     -1.469210
      13A     -1.362667    14A     -1.097478    15A     -1.066222
      16A     -1.018489    17A     -0.976678    18A     -0.930608
      19A     -0.861819    20A     -0.802117    21A     -0.788482
      22A     -0.764156    23A     -0.701526    24A     -0.682653
      25A     -0.671789    26A     -0.647920    27A     -0.628482
      28A     -0.605841    29A     -0.595686    30A     -0.574970
      31A     -0.564697    32A     -0.562182    33A     -0.535577
      34A     -0.526469    35A     -0.514057    36A     -0.506368
      37A     -0.501602    38A     -0.476771    39A     -0.473339
      40A     -0.462919    41A     -0.457618    42A     -0.454918
      43A     -0.438273    44A     -0.435731

  @DF-RHF Final Energy:  -501.03927880733647

   => Energetics <=

    Nuclear Repulsion Energy =            623.2792067276012631
    One-Electron Energy =               -1917.6599473339908855
    Two-Electron Energy =                 793.3414617990540592
    DFT Exchange-Correlation Energy =       0.0000000000000000
    Empirical Dispersion Energy =           0.0000000000000000
    PCM Polarization Energy =               0.0000000000000000
    EFP Energy =                            0.0000000000000000
    Total Energy =                       -501.0392788073356769
    Molecular point group: c1
  Basis Set: 6-31G*
  Basis Set:

  -Total Gradient:
     Atom            X                  Y                   Z
    ------   -----------------  -----------------  -----------------
       1       -0.000009146821    -0.000010023706    -0.000009391449
       2        0.000015114273     0.000019660195     0.000043917166
       3        0.000019684943    -0.000004997169    -0.000027302688
       4       -0.000004040578    -0.000006147396    -0.000016134614
       5       -0.000169936667     0.000405985737    -0.000559748567
       6       -0.000016675900     0.000000641794     0.000003956980
       7        0.000011685518     0.000002451586     0.000001611160
       8        0.000317902766    -0.000514127237     0.000569844444
       9        0.000005214768     0.000027124852    -0.000010025054
      10       -0.000012922966    -0.000020914012     0.000021002157
      11       -0.000631645027    -0.000048275212     0.000838712779
      12       -0.000002775803    -0.000024865672    -0.000011039832
      13       -0.000018177328     0.000017614241     0.000015811707
      14        0.000033535722    -0.000039593453    -0.000005148454
      15        0.000441311789     0.000135361490    -0.000862305570
      16        0.000024859671     0.000024717929    -0.000009621751
      17       -0.000019390484     0.000028829969    -0.000003574790
      18        0.000023834937     0.000003093402     0.000016415924
      19       -0.000000341833    -0.000016913635     0.000002522473
      20       -0.000009276549     0.000017458215     0.000010944782
      21       -0.000006622949    -0.000002523078    -0.000017751029
      22        0.000006749904     0.000000371424     0.000010569047
      23        0.000000574281     0.000006780088    -0.000003257268
      24       -0.000001903178    -0.000003362406     0.000003861019
      25        0.000001205955     0.000003342722    -0.000003048473
      26       -0.000000824041    -0.000001996482    -0.000000774699
      27        0.000001210198    -0.000000102860     0.000000027489
      28        0.000001238175    -0.000000026981    -0.000000360239
      29       -0.000000442793     0.000000435660     0.000000287349

  **** Optimization is complete! (in 8 steps) ****
    Final optimized geometry and variables:
    Molecular point group: c1

    Geometry (in Angstrom), charge = 0, multiplicity = 1:

    O            2.807500979682     1.406633358130    -0.839937578557
    C            2.289285624329     0.514910336232    -0.248925462669
    C            0.843155611668     0.468051314974     0.181640252146
    O            2.935337032938    -0.584776320608     0.118336115056
    C            0.054647667936     1.710084958961    -0.225997417536
    H            0.414934896670    -0.437988780872    -0.235443777262
    H            0.831102773080     0.332843666706     1.259944447621
    C           -1.404961381462     1.696364413700     0.242952676202
    H            0.089330094657     1.817832923785    -1.305654044606
    H            0.551265483509     2.585378225497     0.179270795643
    C           -2.283751160940     0.591066173370    -0.385173803688
    H           -1.829615832720     2.667638264001     0.007551567610
    H           -1.434371729192     1.617028576446     1.327964677442
    C           -2.654835347304    -0.542063317767     0.575726418547
    H           -3.199132734900     1.032586262787    -0.770069471998
    H           -1.779182978123     0.172547420454    -1.254117324372
    C           -3.508094983269    -1.631046639737    -0.076341771263
    H           -3.193331308055    -0.124737895400     1.424922790071
    H           -1.751406540349    -0.991501915219     0.984015968754
    C           -3.893639577075    -2.748754238054     0.892131177301
    H           -4.410179222971    -1.182869650296    -0.487547796119
    H           -2.967661219241    -2.055438625238    -0.919987442294
    H           -4.497384730004    -3.505021998059     0.400116728435
    H           -4.466919328342    -2.361352302266     1.729665186732
    H           -3.012419639764    -3.240005496122     1.295161453436
    C            4.306889061867    -0.668636437720    -0.223416948179
    H            4.434838494998    -0.625092201796    -1.295447388808
    H            4.647882432754    -1.619480095679     0.155537909698
    H            4.862455896437     0.137610574829     0.233570000440

  Mulliken Charges: (a.u.)
   Center  Symbol    Alpha    Beta     Spin     Total
       1     O     4.28587  4.28587  0.00000 -0.57174
       2     C     2.60474  2.60474  0.00000  0.79052
       3     C     3.20952  3.20952  0.00000 -0.41905
       4     O     4.30748  4.30748  0.00000 -0.61496
       5     C     3.15392  3.15392  0.00000 -0.30785
       6     H     0.39925  0.39925  0.00000  0.20150
       7     H     0.40106  0.40106  0.00000  0.19787
       8     C     3.15995  3.15995  0.00000 -0.31991
       9     H     0.41237  0.41237  0.00000  0.17526
      10     H     0.41049  0.41049  0.00000  0.17903
      11     C     3.15866  3.15866  0.00000 -0.31732
      12     H     0.41574  0.41574  0.00000  0.16852
      13     H     0.42130  0.42130  0.00000  0.15740
      14     C     3.15324  3.15324  0.00000 -0.30648
      15     H     0.41872  0.41872  0.00000  0.16256
      16     H     0.42215  0.42215  0.00000  0.15571
      17     C     3.15204  3.15204  0.00000 -0.30409
      18     H     0.42274  0.42274  0.00000  0.15451
      19     H     0.42402  0.42402  0.00000  0.15196
      20     C     3.23933  3.23933  0.00000 -0.47867
      21     H     0.42249  0.42249  0.00000  0.15502
      22     H     0.42335  0.42335  0.00000  0.15330
      23     H     0.41902  0.41902  0.00000  0.16195
      24     H     0.42159  0.42159  0.00000  0.15682
      25     H     0.42184  0.42184  0.00000  0.15632
      26     C     3.09242  3.09242  0.00000 -0.18484
      27     H     0.40909  0.40909  0.00000  0.18183
      28     H     0.40850  0.40850  0.00000  0.18300
      29     H     0.40908  0.40908  0.00000  0.18184

   Total alpha = 44.00000, Total beta = 44.00000, Total charge = -0.00000
