                              Psi4 1.0.54 Driver

  ==> Input File <==

--------------------------------------------------------------------------
set {
	reference rhf
	basis cc-pvtz
}

set_num_threads( 4 )
memory 2 gb

molecule MOL {
0 1

H	 -2.149496	 -2.244167	 0.000000
O	 -2.454378	 -1.354528	 0.000000
C	 -1.430628	 -0.482077	 0.000000
C	 -1.082639	 0.095381	 1.212484
C	 -0.734530	 -0.153911	 -1.144105
H	 -1.636028	 -0.172819	 2.090470
C	 -0.043022	 0.995096	 1.271798
H	 -0.993117	 -0.593108	 -2.088662
C	 0.311703	 0.755538	 -1.067113
H	 0.219612	 1.436992	 2.213120
C	 0.666861	 1.336396	 0.133681
C	 1.034603	 1.093137	 -2.269091
H	 1.476351	 2.036274	 0.176936
N	 1.597757	 1.354869	 -3.210918

	symmetry c1
}
set optking {
	frozen_dihedral = ("
		5 3 2 1
	")
}

ee,wfn = optimize('scf', return_wfn=True)
oeprop( wfn, 'DIPOLE', 'QUADRUPOLE', 'MULLIKEN_CHARGES')
f=open( 'psi4out.xyz', 'w' )
f.write( "14  " )
f.write( str(ee) + "\n" )
f.write( MOL.save_string_xyz() )
f.close()
--------------------------------------------------------------------------

    Molecular point group: c1
  Charge       = 0
  Multiplicity = 1
  Basis Set: CC-PVTZ
  Basis Set:
  @DF-RHF Final Energy:  -397.42794298518123
    Total Energy =                       -397.4279429851815166
    Molecular point group: c1
  Basis Set: CC-PVTZ
  Basis Set:
  Basis Set: CC-PVTZ
  Basis Set:
  @DF-RHF Final Energy:  -397.42869422127836
    Total Energy =                       -397.4286942212781923
  Basis Set: CC-PVTZ
  Basis Set:
  Basis Set: CC-PVTZ
  Basis Set:
  @DF-RHF Final Energy:  -397.42881494630558
    Total Energy =                       -397.4288149463055788
  Basis Set: CC-PVTZ
  Basis Set:
  Basis Set: CC-PVTZ
  Basis Set:
  @DF-RHF Final Energy:  -397.42882533029291
    Total Energy =                       -397.4288253302925114
  Basis Set: CC-PVTZ
  Basis Set:
  Charge       = 0
  Multiplicity = 1
  Basis Set: CC-PVTZ
  Basis Set:

    Orbital Energies (a.u.)
    -----------------------

    Doubly Occupied:

       1A    -20.593209     2A    -15.564977     3A    -11.316403
       4A    -11.291487     5A    -11.268591     6A    -11.262174
       7A    -11.261883     8A    -11.259863     9A    -11.256043
      10A     -1.421875    11A     -1.238094    12A     -1.187617
      13A     -1.066708    14A     -1.042963    15A     -0.895955
      16A     -0.865860    17A     -0.784927    18A     -0.715957
      19A     -0.701615    20A     -0.684132    21A     -0.636982
      22A     -0.624507    23A     -0.570387    24A     -0.558396
      25A     -0.556580    26A     -0.549037    27A     -0.502965
      28A     -0.485543    29A     -0.478651    30A     -0.367144
      31A     -0.356106

  @DF-RHF Final Energy:  -397.42882753283556

   => Energetics <=

    Nuclear Repulsion Energy =            379.9354972340531162
    One-Electron Energy =               -1291.9953938370476862
    Two-Electron Energy =                 514.6310690701589010
    DFT Exchange-Correlation Energy =       0.0000000000000000
    Empirical Dispersion Energy =           0.0000000000000000
    PCM Polarization Energy =               0.0000000000000000
    EFP Energy =                            0.0000000000000000
    Total Energy =                       -397.4288275328356121
    Molecular point group: c1
  Basis Set: CC-PVTZ
  Basis Set:

  -Total Gradient:
     Atom            X                  Y                   Z
    ------   -----------------  -----------------  -----------------
       1       -0.000023369125     0.000046384509     0.000961713572
       2       -0.000369243781     0.000123216697    -0.001215093485
       3        0.000990398601    -0.000664753617     0.000228466021
       4       -0.000027149522     0.000014779560     0.000088910959
       5       -0.000639713858     0.000459646170    -0.000074328299
       6        0.000000519783     0.000015235477    -0.000017310838
       7       -0.000088135385    -0.000096410921     0.000057918464
       8       -0.000024613637    -0.000005672438     0.000006322524
       9        0.000215264674     0.000088990920     0.000096653848
      10        0.000024942319     0.000014826183    -0.000021009992
      11       -0.000043126238    -0.000013163149    -0.000198412054
      12        0.000031828403     0.000022902263     0.000051266184
      13       -0.000000023347     0.000015305379     0.000035725917
      14       -0.000047578890    -0.000021287036    -0.000000822813

  **** Optimization is complete! (in 5 steps) ****
    Final optimized geometry and variables:
    Molecular point group: c1

    Geometry (in Angstrom), charge = 0, multiplicity = 1:

    H           -1.875390621388    -2.595280709403     0.478901101431
    O           -2.171139171772    -1.702127630421     0.514279238017
    C           -1.116451306494    -0.840483062859     0.564783634780
    C           -0.776284858028    -0.250411509865     1.767520317371
    C           -0.433678781412    -0.510274962960    -0.586990034646
    H           -1.331667642973    -0.508285398493     2.647738866933
    C            0.258452288298     0.663002651572     1.821251444766
    H           -0.715759022561    -0.952967550452    -1.521417562058
    C            0.607728280350     0.401914966361    -0.521870643387
    H            0.518534644742     1.118770582836     2.756478545211
    C            0.959845556451     0.993202794736     0.679621084147
    C            1.326581013207     0.741945616249    -1.724963905648
    H            1.764153889766     1.700234458416     0.714448625860
    N            1.890002307684     1.005910596114    -2.666125014348

  Mulliken Charges: (a.u.)
   Center  Symbol    Alpha    Beta     Spin     Total
       1     H     0.38548  0.38548  0.00000  0.22905
       2     O     4.18610  4.18610  0.00000 -0.37220
       3     C     2.86183  2.86183  0.00000  0.27633
       4     C     3.10493  3.10493  0.00000 -0.20987
       5     C     3.12755  3.12755  0.00000 -0.25511
       6     H     0.41140  0.41140  0.00000  0.17720
       7     C     3.06016  3.06016  0.00000 -0.12033
       8     H     0.40843  0.40843  0.00000  0.18315
       9     C     2.93051  2.93051  0.00000  0.13897
      10     H     0.41600  0.41600  0.00000  0.16799
      11     C     3.09460  3.09460  0.00000 -0.18919
      12     C     3.02425  3.02425  0.00000 -0.04850
      13     H     0.41363  0.41363  0.00000  0.17274
      14     N     3.57512  3.57512  0.00000 -0.15025

   Total alpha = 31.00000, Total beta = 31.00000, Total charge = -0.00000

*** Psi4 exiting successfully. Buy a developer a beer!
