  ==> Input File <==

--------------------------------------------------------------------------
set {
	reference rhf
	basis 6-31G*
}

set_num_threads( 1 )
memory 2 gb

molecule MOL {
0 1

H	 -3.420663	 1.227371	 -1.044276
O	 -3.452007	 0.283848	 -0.965577
C	 -3.181085	 -0.079926	 0.364119
C	 -1.765924	 0.277073	 0.805136
H	 -3.327791	 -1.152017	 0.410903
H	 -3.905698	 0.375695	 1.036898
C	 -0.863971	 0.728738	 -0.344210
H	 -1.817212	 1.060597	 1.561722
H	 -1.331586	 -0.591315	 1.297553
C	 0.546815	 1.106061	 0.112398
H	 -1.324304	 1.573139	 -0.847986
H	 -0.802918	 -0.070029	 -1.081528
C	 1.445508	 1.551443	 -1.044352
H	 0.478297	 1.897017	 0.855441
H	 1.004897	 0.254625	 0.614216
C	 2.895457	 1.855308	 -0.650055
H	 1.011590	 2.430092	 -1.519101
H	 1.450619	 0.770138	 -1.801552
C	 3.063229	 3.061586	 0.275769
H	 3.469317	 2.030183	 -1.556914
H	 3.332189	 0.976155	 -0.180418
H	 2.624187	 3.953807	 -0.162777
H	 4.114223	 3.266089	 0.455844
H	 2.593694	 2.901837	 1.240746

	symmetry c1
}
set optking {
	frozen_dihedral = ("
		20 16 13 17,
		17 13 10 7,
		13 10 7 11,
		11 7 4 3,
		1 2 3 5
	")
}

ee = energy('scf')
oeprop('DIPOLE', 'QUADRUPOLE', 'MULLIKEN_CHARGES')
f=open( 'psi4out.xyz', 'w' )
f.write( "24  " )
f.write( str(ee) + "\n" )
f.write( MOL.save_string_xyz() )
f.close()
--------------------------------------------------------------------------

    Molecular point group: c1

    Geometry (in Angstrom), charge = 0, multiplicity = 1:

       Center              X                  Y                   Z               Mass
    ------------   -----------------  -----------------  -----------------  -----------------
           H         -3.202329566656     0.128418643388    -0.855286053783     1.007825032070
           O         -3.233673566656    -0.815104356612    -0.776587053783    15.994914619560
           C         -2.962751566656    -1.178878356612     0.553108946217    12.000000000000
           C         -1.547590566656    -0.821879356612     0.994125946217    12.000000000000
           H         -3.109457566656    -2.250969356612     0.599892946217     1.007825032070
           H         -3.687364566656    -0.723257356612     1.225887946217     1.007825032070
           C         -0.645637566656    -0.370214356612    -0.155220053783    12.000000000000
           H         -1.598878566656    -0.038355356612     1.750711946217     1.007825032070
           H         -1.113252566656    -1.690267356612     1.486542946217     1.007825032070
           C          0.765148433344     0.007108643388     0.301387946217    12.000000000000
           H         -1.105970566656     0.474186643388    -0.658996053783     1.007825032070
           H         -0.584584566656    -1.168981356612    -0.892538053783     1.007825032070
           C          1.663841433344     0.452490643388    -0.855362053783    12.000000000000
           H          0.696630433344     0.798064643388     1.044430946217     1.007825032070
           H          1.223230433344    -0.844327356612     0.803205946217     1.007825032070
           C          3.113790433344     0.756355643388    -0.461065053783    12.000000000000
           H          1.229923433344     1.331139643388    -1.330111053783     1.007825032070
           H          1.668952433344    -0.328814356612    -1.612562053783     1.007825032070
           C          3.281562433344     1.962633643388     0.464758946217    12.000000000000
           H          3.687650433344     0.931230643388    -1.367924053783     1.007825032070
           H          3.550522433344    -0.122797356612     0.008571946217     1.007825032070
           H          2.842520433344     2.854854643388     0.026212946217     1.007825032070
           H          4.332556433344     2.167136643388     0.644833946217     1.007825032070
           H          2.812027433344     1.802884643388     1.429735946217     1.007825032070

  Charge       = 0
  Multiplicity = 1
  Basis Set: 6-31G*
  Basis Set:

    Orbital Energies (a.u.)
    -----------------------

    Doubly Occupied:

       1A    -20.552235     2A    -11.266304     3A    -11.215095
       4A    -11.214692     5A    -11.214449     6A    -11.212932
       7A    -11.212317     8A    -11.207984     9A     -1.360418
      10A     -1.088827    11A     -1.047706    12A     -0.986419
      13A     -0.918384    14A     -0.852630    15A     -0.792998
      16A     -0.777273    17A     -0.688512    18A     -0.648606
      19A     -0.628499    20A     -0.615904    21A     -0.600606
      22A     -0.587575    23A     -0.555957    24A     -0.544619
      25A     -0.513954    26A     -0.509704    27A     -0.498341
      28A     -0.478969    29A     -0.461922    30A     -0.456217
      31A     -0.452635    32A     -0.447567    33A     -0.423615

  @DF-RHF Final Energy:  -349.23850611158804

   => Energetics <=

    Nuclear Repulsion Energy =            387.1176422416568244
    One-Electron Energy =               -1240.6448780530629392
    Two-Electron Energy =                 504.2887296998177931
    DFT Exchange-Correlation Energy =       0.0000000000000000
    Empirical Dispersion Energy =           0.0000000000000000
    PCM Polarization Energy =               0.0000000000000000
    EFP Energy =                            0.0000000000000000
    Total Energy =                       -349.2385061115883786

  Mulliken Charges: (a.u.)
   Center  Symbol    Alpha    Beta     Spin     Total
       1     H     0.28155  0.28155  0.00000  0.43691
       2     O     4.36861  4.36861  0.00000 -0.73722
       3     C     2.99240  2.99240  0.00000  0.01520
       4     C     3.18478  3.18478  0.00000 -0.36956
       5     H     0.41476  0.41476  0.00000  0.17049
       6     H     0.42824  0.42824  0.00000  0.14352
       7     C     3.14250  3.14250  0.00000 -0.28499
       8     H     0.42273  0.42273  0.00000  0.15453
       9     H     0.41764  0.41764  0.00000  0.16471
      10     C     3.15434  3.15434  0.00000 -0.30869
      11     H     0.43325  0.43325  0.00000  0.13350
      12     H     0.41306  0.41306  0.00000  0.17388
      13     C     3.15228  3.15228  0.00000 -0.30456
      14     H     0.42332  0.42332  0.00000  0.15336
      15     H     0.42409  0.42409  0.00000  0.15183
      16     C     3.15230  3.15230  0.00000 -0.30460
      17     H     0.42513  0.42513  0.00000  0.14974
      18     H     0.42121  0.42121  0.00000  0.15758
      19     C     3.24107  3.24107  0.00000 -0.48214
      20     H     0.42099  0.42099  0.00000  0.15803
      21     H     0.42337  0.42337  0.00000  0.15326
      22     H     0.42274  0.42274  0.00000  0.15452
      23     H     0.41936  0.41936  0.00000  0.16128
      24     H     0.42029  0.42029  0.00000  0.15942

   Total alpha = 33.00000, Total beta = 33.00000, Total charge =  0.00000
