  ==> Input File <==

--------------------------------------------------------------------------
set {
	reference rhf
	basis cc-pvtz
}

set_num_threads( 4 )
memory 2 gb

molecule MOL {
0 1

O	 -2.071633	 -1.227563	 -0.223463
C	 -1.652164	 -0.152425	 0.058082
C	 -0.327811	 0.006324	 0.778296
C	 -2.402515	 1.108629	 -0.298924
C	 0.843231	 -0.001575	 -0.211665
H	 -0.319484	 0.928173	 1.350354
H	 -0.227804	 -0.823091	 1.466705
C	 2.197693	 0.138030	 0.476937
H	 0.722944	 0.805202	 -0.930230
H	 0.813976	 -0.926978	 -0.776588
C	 3.184855	 -0.950801	 0.070586
H	 2.619942	 1.112502	 0.247514
H	 2.054486	 0.112506	 1.553217
H	 3.375696	 -0.928309	 -0.997172
H	 2.803407	 -1.935799	 0.316849
H	 4.134117	 -0.826968	 0.578490
H	 -3.240910	 0.874416	 -0.936711
H	 -1.747554	 1.818823	 -0.790984
H	 -2.760419	 1.579708	 0.610998

	symmetry c1
}
set optking {
	frozen_dihedral = ("
		11 8 5 9
	")
}

ee = optimize('scf')
oeprop('DIPOLE', 'QUADRUPOLE', 'MULLIKEN_CHARGES')
f=open( 'psi4out.xyz', 'w' )
f.write( "19  " )
f.write( str(ee) + "\n" )
f.write( MOL.save_string_xyz() )
f.close()
--------------------------------------------------------------------------

    Molecular point group: c1
  Charge       = 0
  Multiplicity = 1
  Basis Set: CC-PVTZ
  Basis Set:
  @DF-RHF Final Energy:  -309.17163053918324
    Total Energy =                       -309.1716305391840365
    Molecular point group: c1
  Basis Set: CC-PVTZ
  Basis Set:
  Basis Set: CC-PVTZ
  Basis Set:
  @DF-RHF Final Energy:  -309.17188027630465
    Total Energy =                       -309.1718802763044778
  Basis Set: CC-PVTZ
  Basis Set:
  Basis Set: CC-PVTZ
  Basis Set:
  @DF-RHF Final Energy:  -309.17189881664393
    Total Energy =                       -309.1718988166440454
  Basis Set: CC-PVTZ
  Basis Set:
  Basis Set: CC-PVTZ
  Basis Set:
  @DF-RHF Final Energy:  -309.17188101308625
    Total Energy =                       -309.1718810130862494
  Basis Set: CC-PVTZ
  Basis Set:
  Basis Set: CC-PVTZ
  Basis Set:
  @DF-RHF Final Energy:  -309.17193973671027
    Total Energy =                       -309.1719397367106126
  Basis Set: CC-PVTZ
  Basis Set:
  Basis Set: CC-PVTZ
  Basis Set:
  @DF-RHF Final Energy:  -309.17194185795523
    Total Energy =                       -309.1719418579548346
  Basis Set: CC-PVTZ
  Basis Set:
  Basis Set: CC-PVTZ
  Basis Set:
  @DF-RHF Final Energy:  -309.17195123478052
    Total Energy =                       -309.1719512347804084
  Basis Set: CC-PVTZ
  Basis Set:
  Charge       = 0
  Multiplicity = 1
  Basis Set: CC-PVTZ
  Basis Set:

    Orbital Energies (a.u.)
    -----------------------

    Doubly Occupied:

       1A    -20.537020     2A    -11.319249     3A    -11.228744
       4A    -11.228131     5A    -11.227026     6A    -11.222802
       7A    -11.212546     8A     -1.397034     9A     -1.090490
      10A     -1.029582    11A     -0.984268    12A     -0.890845
      13A     -0.807221    14A     -0.735886    15A     -0.658562
      16A     -0.652518    17A     -0.618265    18A     -0.615037
      19A     -0.589423    20A     -0.578854    21A     -0.546468
      22A     -0.533836    23A     -0.524426    24A     -0.498261
      25A     -0.481316    26A     -0.475084    27A     -0.466268
      28A     -0.398859

  @DF-RHF Final Energy:  -309.17195141906643

   => Energetics <=

    Nuclear Repulsion Energy =            302.1414821042654921
    One-Electron Energy =               -1017.5308238529008804
    Two-Electron Energy =                 406.2173903295689570
    DFT Exchange-Correlation Energy =       0.0000000000000000
    Empirical Dispersion Energy =           0.0000000000000000
    PCM Polarization Energy =               0.0000000000000000
    EFP Energy =                            0.0000000000000000
    Total Energy =                       -309.1719514190664313
    Molecular point group: c1
  Basis Set: CC-PVTZ
  Basis Set:

  -Total Gradient:
     Atom            X                  Y                   Z
    ------   -----------------  -----------------  -----------------
       1       -0.000000091789     0.000001443802    -0.000003837966
       2       -0.000003702755    -0.000001557281     0.000007385712
       3        0.000006018124     0.000000334070    -0.000005043418
       4       -0.000003235678    -0.000001070418     0.000002737915
       5        0.000891087582    -0.001802041126    -0.001385901005
       6        0.000000131271     0.000000586162     0.000000269284
       7       -0.000000775193    -0.000000003675    -0.000000552432
       8        0.000467207326     0.001504168567    -0.001239998086
       9       -0.000876409329     0.001177972581     0.001485439004
      10        0.000000250185    -0.000000954322     0.000000358334
      11       -0.000482639709    -0.000878706814     0.001144513929
      12       -0.000000376997    -0.000001035052    -0.000000740521
      13       -0.000000435705     0.000000573658    -0.000000114564
      14        0.000001347222     0.000000696245    -0.000000111858
      15       -0.000001226796     0.000000547856    -0.000001459528
      16       -0.000000350998    -0.000000556777     0.000001538797
      17        0.000000376976    -0.000000064815    -0.000001123035
      18        0.000001139017    -0.000000588998    -0.000001562185
      19        0.000001687246     0.000000256333    -0.000001798375

  **** Optimization is complete! (in 8 steps) ****
    Final optimized geometry and variables:
    Molecular point group: c1

    Geometry (in Angstrom), charge = 0, multiplicity = 1:

    O           -2.060093993284    -1.060820943407    -0.307390807533
    C           -1.632878709190     0.011923276558    -0.027896621060
    C           -0.307006615811     0.161855113630     0.691120201089
    C           -2.374909078980     1.277505046293    -0.386286558099
    C            0.865099776322     0.142894015689    -0.300149781238
    H           -0.290240672529     1.085122703549     1.260910008389
    H           -0.211613219288    -0.666612890344     1.381478172098
    C            2.235354127085     0.293104823214     0.391039626664
    H            0.727607036171     0.944986486330    -1.018115512118
    H            0.824469349514    -0.785779217225    -0.855859474934
    C            3.236510705171    -0.784240453267    -0.014954495875
    H            2.650188310753     1.271978769903     0.177543126236
    H            2.104078752493     0.253238818121     1.467496000559
    H            3.420894020455    -0.766728262280    -1.083937323502
    H            2.866171851981    -1.771500094232     0.238907433097
    H            4.186860222003    -0.645103575255     0.487515993073
    H           -3.212713079538     1.048440131564    -1.026727702710
    H           -1.714897985751     1.984974762105    -0.875438217757
    H           -2.733252134847     1.749250551521     0.523151806680

  Mulliken Charges: (a.u.)
   Center  Symbol    Alpha    Beta     Spin     Total
       1     O     4.17686  4.17686  0.00000 -0.35373
       2     C     2.85895  2.85895  0.00000  0.28210
       3     C     3.10062  3.10062  0.00000 -0.20123
       4     C     3.15520  3.15520  0.00000 -0.31039
       5     C     3.10230  3.10230  0.00000 -0.20459
       6     H     0.44787  0.44787  0.00000  0.10426
       7     H     0.43903  0.43903  0.00000  0.12194
       8     C     3.08884  3.08884  0.00000 -0.17767
       9     H     0.44837  0.44837  0.00000  0.10327
      10     H     0.44104  0.44104  0.00000  0.11793
      11     C     3.14680  3.14680  0.00000 -0.29361
      12     H     0.44974  0.44974  0.00000  0.10052
      13     H     0.45371  0.45371  0.00000  0.09258
      14     H     0.45355  0.45355  0.00000  0.09290
      15     H     0.45260  0.45260  0.00000  0.09479
      16     H     0.44906  0.44906  0.00000  0.10188
      17     H     0.43610  0.43610  0.00000  0.12781
      18     H     0.45099  0.45099  0.00000  0.09802
      19     H     0.44838  0.44838  0.00000  0.10325

   Total alpha = 28.00000, Total beta = 28.00000, Total charge = -0.00000
