  ==> Input File <==

--------------------------------------------------------------------------
set {
	reference rhf
	basis cc-pvtz
}

set_num_threads( 4 )
memory 2 gb

molecule MOL {
0 1

H	 -3.162190	 0.493205	 -0.000107
C	 -2.363908	 -0.234727	 0.000005
O	 -1.158738	 0.454634	 -0.000087
H	 -2.464314	 -0.863616	 -0.882153
H	 -2.464327	 -0.863359	 0.882345
C	 -1.252224	 1.779421	 -0.420224
C	 0.122333	 2.415746	 -0.374655
H	 -1.941540	 2.327670	 0.222353
H	 -1.653046	 1.822999	 -1.433183
C	 0.104478	 3.873099	 -0.822040
H	 0.504515	 2.340306	 0.637358
H	 0.790689	 1.839680	 -1.005053
H	 -0.540389	 4.473232	 -0.188736
H	 1.097930	 4.302372	 -0.779630
H	 -0.252012	 3.969234	 -1.842207

	symmetry c1
}
set optking {
	frozen_dihedral = ("
		6 3 2 4
	")
}

ee = optimize('scf')
oeprop('DIPOLE', 'QUADRUPOLE', 'MULLIKEN_CHARGES')
f=open( 'psi4out.xyz', 'w' )
f.write( "15  " )
f.write( str(ee) + "\n" )
f.write( MOL.save_string_xyz() )
f.close()
--------------------------------------------------------------------------

    Molecular point group: c1
  Charge       = 0
  Multiplicity = 1
  Basis Set: CC-PVTZ
  Basis Set:
  @DF-RHF Final Energy:  -232.22437709080504
    Total Energy =                       -232.2243770908049214
    Molecular point group: c1
  Basis Set: CC-PVTZ
  Basis Set:
  Basis Set: CC-PVTZ
  Basis Set:
  @DF-RHF Final Energy:  -232.22530625972840
    Total Energy =                       -232.2253062597284270
  Basis Set: CC-PVTZ
  Basis Set:
  Basis Set: CC-PVTZ
  Basis Set:
  @DF-RHF Final Energy:  -232.22555430987381
    Total Energy =                       -232.2255543098738713
  Basis Set: CC-PVTZ
  Basis Set:
  Charge       = 0
  Multiplicity = 1
  Basis Set: CC-PVTZ
  Basis Set:

    Orbital Energies (a.u.)
    -----------------------

    Doubly Occupied:

       1A    -20.544937     2A    -11.264761     3A    -11.261316
       4A    -11.212347     5A    -11.210516     6A     -1.378180
       7A     -1.058153     8A     -0.956196     9A     -0.877279
      10A     -0.809259    11A     -0.674126    12A     -0.654313
      13A     -0.631975    14A     -0.608234    15A     -0.564095
      16A     -0.544368    17A     -0.503101    18A     -0.489855
      19A     -0.479014    20A     -0.462293    21A     -0.412307

  @DF-RHF Final Energy:  -232.22555601741004

   => Energetics <=

    Nuclear Repulsion Energy =            189.7474974407414834
    One-Electron Energy =                -690.7528583454470663
    Two-Electron Energy =                 268.7798048872953700
    DFT Exchange-Correlation Energy =       0.0000000000000000
    Empirical Dispersion Energy =           0.0000000000000000
    PCM Polarization Energy =               0.0000000000000000
    EFP Energy =                            0.0000000000000000
    Total Energy =                       -232.2255560174102129
    Molecular point group: c1
  Basis Set: CC-PVTZ
  Basis Set:

  -Total Gradient:
     Atom            X                  Y                   Z
    ------   -----------------  -----------------  -----------------
       1       -0.000049646735     0.000005424950    -0.000006980915
       2       -0.001590519834     0.002869283638    -0.000713126191
       3        0.000766636303    -0.001546223641    -0.002499612581
       4        0.001237826375    -0.001888631980     0.001287683810
       5        0.000013221848    -0.000026083711    -0.000005629427
       6       -0.000381673912     0.000621022477     0.001889398299
       7        0.000004561964    -0.000026657945     0.000014689498
       8       -0.000001468499    -0.000026922747     0.000012077537
       9        0.000000973665    -0.000001350688     0.000017061229
      10       -0.000001653668     0.000011746165    -0.000002539076
      11        0.000007590054     0.000001919797     0.000001378039
      12       -0.000005876901     0.000000200093     0.000003495746
      13        0.000000823106     0.000002836370     0.000000081332
      14       -0.000000543281     0.000003584156     0.000000165954
      15       -0.000000250486    -0.000000146929     0.000001856748

  **** Optimization is complete! (in 4 steps) ****
    Final optimized geometry and variables:
    Molecular point group: c1

    Geometry (in Angstrom), charge = 0, multiplicity = 1:

    H           -2.299813977992    -1.222419456629     0.361055130609
    C           -1.437011631233    -1.880005375012     0.323852844326
    O           -0.238204427758    -1.171416454680     0.322770638862
    H           -1.512269544008    -2.513927811071    -0.554968403864
    H           -1.457997638479    -2.518886165137     1.197673175881
    C           -0.317888066210     0.152139182642    -0.107010459448
    C            1.062665747468     0.774493741473    -0.052045965012
    H           -1.005809013328     0.709553272461     0.527935955762
    H           -0.707506474199     0.198541957473    -1.124182226264
    C            1.062185779315     2.232346808245    -0.498637407358
    H            1.437022524519     0.694480886637     0.962644797141
    H            1.729878549353     0.192292107999    -0.678048010444
    H            0.419264815641     2.838551276191     0.130953358462
    H            2.059581108816     2.651877176840    -0.449636623787
    H            0.713173725709     2.332637403214    -1.521043975450

  Mulliken Charges: (a.u.)
   Center  Symbol    Alpha    Beta     Spin     Total
       1     H     0.47346  0.47346  0.00000  0.05307
       2     C     3.03043  3.03043  0.00000 -0.06087
       3     O     4.17524  4.17524  0.00000 -0.35048
       4     H     0.46284  0.46284  0.00000  0.07432
       5     H     0.45308  0.45308  0.00000  0.09383
       6     C     2.95563  2.95563  0.00000  0.08874
       7     C     3.08163  3.08163  0.00000 -0.16326
       8     H     0.47504  0.47504  0.00000  0.04993
       9     H     0.47644  0.47644  0.00000  0.04712
      10     C     3.15586  3.15586  0.00000 -0.31172
      11     H     0.45125  0.45125  0.00000  0.09751
      12     H     0.45105  0.45105  0.00000  0.09790
      13     H     0.45593  0.45593  0.00000  0.08814
      14     H     0.44628  0.44628  0.00000  0.10743
      15     H     0.45584  0.45584  0.00000  0.08832

   Total alpha = 21.00000, Total beta = 21.00000, Total charge = -0.00000
