  ==> Input File <==

--------------------------------------------------------------------------
set {
	reference rhf
	basis 6-31G*
}

set_num_threads( 1 )
memory 2 gb

molecule MOL {
0 1

H	 3.463771	 0.168298	 -0.756243
C	 2.752674	 -0.045734	 0.033351
C	 1.322923	 0.120767	 -0.479465
H	 2.934561	 -1.059086	 0.377456
H	 2.958358	 0.631174	 0.856809
C	 0.306652	 -0.176050	 0.621399
H	 1.144658	 -0.551717	 -1.312180
H	 1.166477	 1.131798	 -0.836680
N	 -1.068537	 -0.011044	 0.085269
H	 0.372515	 -1.192590	 0.973735
H	 0.391664	 0.520566	 1.441230
O	 -1.957537	 -0.542097	 0.676059
O	 -1.184559	 0.617890	 -0.922206

	symmetry c1
}
set optking {
	frozen_dihedral = ("
		7 3 6 9
	")
}

ee = energy('scf')
oeprop('DIPOLE', 'QUADRUPOLE', 'MULLIKEN_CHARGES')
f=open( 'psi4out.xyz', 'w' )
f.write( "13  " )
f.write( str(ee) + "\n" )
f.write( MOL.save_string_xyz() )
f.close()
--------------------------------------------------------------------------

    Molecular point group: c1

    Geometry (in Angstrom), charge = 0, multiplicity = 1:

       Center              X                  Y                   Z               Mass
    ------------   -----------------  -----------------  -----------------  -----------------
           H          3.464939891835     0.174012459255    -0.757481636290     1.007825032070
           C          2.753842891835    -0.040019540745     0.032112363710    12.000000000000
           C          1.324091891835     0.126481459255    -0.480703636290    12.000000000000
           H          2.935729891835    -1.053371540745     0.376217363710     1.007825032070
           H          2.959526891835     0.636888459255     0.855570363710     1.007825032070
           C          0.307820891835    -0.170335540745     0.620160363710    12.000000000000
           H          1.145826891835    -0.546002540745    -1.313418636290     1.007825032070
           H          1.167645891835     1.137512459255    -0.837918636290     1.007825032070
           N         -1.067368108165    -0.005329540745     0.084030363710    14.003074004780
           H          0.373683891835    -1.186875540745     0.972496363710     1.007825032070
           H          0.392832891835     0.526280459255     1.439991363710     1.007825032070
           O         -1.956368108165    -0.536382540745     0.674820363710    15.994914619560
           O         -1.183390108165     0.623604459255    -0.923444636290    15.994914619560

  Charge       = 0
  Multiplicity = 1
  Basis Set: 6-31G*
  Basis Set:

    Orbital Energies (a.u.)
    -----------------------

    Doubly Occupied:

       1A    -20.602408     2A    -20.601115     3A    -15.848827
       4A    -11.300466     5A    -11.247308     6A    -11.234936
       7A     -1.632183     8A     -1.418031     9A     -1.133508
      10A     -1.025799    11A     -0.882763    12A     -0.823531
      13A     -0.762302    14A     -0.750013    15A     -0.726661
      16A     -0.657030    17A     -0.604617    18A     -0.580504
      19A     -0.550202    20A     -0.518537    21A     -0.510294
      22A     -0.483888    23A     -0.473231    24A     -0.449034

  @DF-RHF Final Energy:  -321.73319075535824

   => Energetics <=

    Nuclear Repulsion Energy =            248.2565153397229096
    One-Electron Energy =                -930.3450929069235826
    Two-Electron Energy =                 360.3553868118418109
    DFT Exchange-Correlation Energy =       0.0000000000000000
    Empirical Dispersion Energy =           0.0000000000000000
    PCM Polarization Energy =               0.0000000000000000
    EFP Energy =                            0.0000000000000000
    Total Energy =                       -321.7331907553588621

  Mulliken Charges: (a.u.)
   Center  Symbol    Alpha    Beta     Spin     Total
       1     H     0.40823  0.40823  0.00000  0.18353
       2     C     3.24879  3.24879  0.00000 -0.49758
       3     C     3.16626  3.16626  0.00000 -0.33253
       4     H     0.41756  0.41756  0.00000  0.16489
       5     H     0.41754  0.41754  0.00000  0.16491
       6     C     3.09163  3.09163  0.00000 -0.18325
       7     H     0.40492  0.40492  0.00000  0.19017
       8     H     0.39629  0.39629  0.00000  0.20742
       9     N     3.22187  3.22187  0.00000  0.55626
      10     H     0.38530  0.38530  0.00000  0.22939
      11     H     0.38495  0.38495  0.00000  0.23009
      12     O     4.22930  4.22930  0.00000 -0.45860
      13     O     4.22735  4.22735  0.00000 -0.45470

   Total alpha = 24.00000, Total beta = 24.00000, Total charge = -0.00000
