                              Psi4 1.0.54 Driver

  ==> Input File <==

--------------------------------------------------------------------------
set {
	reference rhf
	basis cc-pvtz
}

set_num_threads( 4 )
memory 2 gb

molecule MOL {
0 1

H	 -0.121011	 -0.556895	 -2.618599
C	 -0.702248	 0.207382	 -2.112944
O	 -0.775228	 0.000056	 -0.739966
H	 -1.714632	 0.163415	 -2.488838
H	 -0.290416	 1.179145	 -2.365342
C	 0.406133	 -0.000384	 0.036994
C	 1.526415	 -0.003194	 -0.997339
C	 0.498772	 1.259027	 0.900673
C	 0.495883	 -1.257378	 0.904465
H	 1.452279	 0.872071	 -1.630204
H	 1.451276	 -0.881020	 -1.626529
H	 2.497919	 -0.002741	 -0.517601
H	 0.368981	 2.144239	 0.289753
H	 1.470064	 1.313479	 1.377660
H	 -0.248448	 1.271586	 1.684297
H	 0.363971	 -2.144195	 0.296316
H	 1.467114	 -1.312636	 1.381470
H	 -0.251246	 -1.265768	 1.688235

	symmetry c1
}
set optking {
	frozen_dihedral = ("
		2 3 6 7
	")
}

ee,wfn = optimize('scf', return_wfn=True)
oeprop( wfn, 'DIPOLE', 'QUADRUPOLE', 'MULLIKEN_CHARGES')
f=open( 'psi4out.xyz', 'w' )
f.write( "18  " )
f.write( str(ee) + "\n" )
f.write( MOL.save_string_xyz() )
f.close()
--------------------------------------------------------------------------

    Molecular point group: c1
  Charge       = 0
  Multiplicity = 1
  Basis Set: CC-PVTZ
  Basis Set:
  @DF-RHF Final Energy:  -271.25768947051301
    Total Energy =                       -271.2576894705129007
    Molecular point group: c1
  Basis Set: CC-PVTZ
  Basis Set:
  Basis Set: CC-PVTZ
  Basis Set:
  @DF-RHF Final Energy:  -271.12697974541783
    Total Energy =                       -271.1269797454176569
  Basis Set: CC-PVTZ
  Basis Set:
  Basis Set: CC-PVTZ
  Basis Set:
  @DF-RHF Final Energy:  -271.22991951209900
    Total Energy =                       -271.2299195120991726
  Basis Set: CC-PVTZ
  Basis Set:
  Basis Set: CC-PVTZ
  Basis Set:
  @DF-RHF Final Energy:  -271.26811986667508
    Total Energy =                       -271.2681198666751357
  Basis Set: CC-PVTZ
  Basis Set:
  @DF-RHF Final Energy:  -271.27232009214367
    Total Energy =                       -271.2723200921434454
  @DF-RHF Final Energy:  -271.27248327940924
    Total Energy =                       -271.2724832794094141
  Basis Set: CC-PVTZ
  Basis Set:
  @DF-RHF Final Energy:  -271.27267025344707
    Total Energy =                       -271.2726702534471315
  Basis Set: CC-PVTZ
  Basis Set:
  Basis Set: CC-PVTZ
  Basis Set:
  @DF-RHF Final Energy:  -271.27266947983571
    Total Energy =                       -271.2726694798355993
  Basis Set: CC-PVTZ
  Basis Set:
  Basis Set: CC-PVTZ
  Basis Set:
  @DF-RHF Final Energy:  -271.27267670410447
    Total Energy =                       -271.2726767041047538
  Basis Set: CC-PVTZ
  Basis Set:
  Charge       = 0
  Multiplicity = 1
  Basis Set: CC-PVTZ
  Basis Set:

    Orbital Energies (a.u.)
    -----------------------

    Doubly Occupied:

       1A    -20.537271     2A    -11.280691     3A    -11.259483
       4A    -11.211612     5A    -11.202327     6A    -11.202114
       7A     -1.369557     8A     -1.075544     9A     -0.951499
      10A     -0.935617    11A     -0.912324    12A     -0.752235
      13A     -0.657661    14A     -0.648066    15A     -0.638587
      16A     -0.583006    17A     -0.577944    18A     -0.548911
      19A     -0.542617    20A     -0.526989    21A     -0.515337
      22A     -0.491445    23A     -0.484206    24A     -0.443401
      25A     -0.398989

  @DF-RHF Final Energy:  -271.27267665147025

   => Energetics <=

    Nuclear Repulsion Energy =            272.0649282787871357
    One-Electron Energy =                -907.1803429061917541
    Two-Electron Energy =                 363.8427379759345399
    DFT Exchange-Correlation Energy =       0.0000000000000000
    Empirical Dispersion Energy =           0.0000000000000000
    PCM Polarization Energy =               0.0000000000000000
    EFP Energy =                            0.0000000000000000
    Total Energy =                       -271.2726766514700216
    Molecular point group: c1
  Basis Set: CC-PVTZ
  Basis Set:

  -Total Gradient:
     Atom            X                  Y                   Z
    ------   -----------------  -----------------  -----------------
       1        0.000005714989    -0.000000584198     0.000017571771
       2        0.000365916980    -0.001839956325    -0.000017450763
       3       -0.000605737183     0.003497949325    -0.000082268606
       4        0.000003794242     0.000001325673     0.000007728017
       5       -0.000012761257    -0.000015707704    -0.000000591077
       6        0.000344543263    -0.003254172508     0.000225511499
       7       -0.000117828621     0.001608502625    -0.000140972631
       8        0.000004445957     0.000001354269     0.000013131300
       9        0.000007560963     0.000003664998     0.000006581188
      10        0.000006729658    -0.000001803651     0.000025612609
      11       -0.000008765441     0.000000517667    -0.000024185850
      12       -0.000006238640    -0.000012439988    -0.000008901673
      13        0.000004897094    -0.000003467467     0.000001229722
      14       -0.000018177955    -0.000007194619    -0.000005241040
      15        0.000011662445     0.000014376367    -0.000011259089
      16       -0.000006658605    -0.000001799044     0.000005912625
      17        0.000004761952    -0.000000920843    -0.000008365501
      18        0.000016140158     0.000010355420    -0.000004042503

  **** Optimization is complete! (in 10 steps) ****
    Final optimized geometry and variables:
    Molecular point group: c1

    Geometry (in Angstrom), charge = 0, multiplicity = 1:

    H            0.479474621316    -0.807115090047    -2.245671304051
    C           -0.276368785852    -0.061060149587    -2.024324672884
    O           -0.765752572365    -0.161109519828    -0.727878002373
    H           -1.116658482613    -0.227304951825    -2.683623860659
    H            0.132456229909     0.921509773574    -2.242776076579
    C            0.068261699178     0.011215858363     0.409062610117
    C            1.561033060035     0.070781741261     0.083139723706
    C           -0.363743269971     1.316136679892     1.077476347981
    C           -0.220827382621    -1.177030732800     1.320983733235
    H            1.805204102038     0.908398605268    -0.557009048690
    H            1.906875896862    -0.838731674353    -0.391842333898
    H            2.116293862856     0.190379463437     1.004938510203
    H           -0.185714728255     2.157621324323     0.417576393461
    H            0.180569985908     1.486373808305     1.999672632210
    H           -1.422154395563     1.284452733557     1.302249370260
    H            0.079690749466    -2.101992336496     0.843363089009
    H            0.310086062065    -1.087193277628     2.262008221551
    H           -1.281750060213    -1.235082695723     1.527731434830

  Mulliken Charges: (a.u.)
   Center  Symbol    Alpha    Beta     Spin     Total
       1     H     0.46868  0.46868  0.00000  0.06264
       2     C     3.04100  3.04100  0.00000 -0.08200
       3     O     4.19950  4.19950  0.00000 -0.39900
       4     H     0.44263  0.44263  0.00000  0.11473
       5     H     0.46999  0.46999  0.00000  0.06002
       6     C     2.87049  2.87049  0.00000  0.25902
       7     C     3.17684  3.17684  0.00000 -0.35369
       8     C     3.14307  3.14307  0.00000 -0.28614
       9     C     3.14048  3.14048  0.00000 -0.28096
      10     H     0.44436  0.44436  0.00000  0.11128
      11     H     0.44510  0.44510  0.00000  0.10979
      12     H     0.44243  0.44243  0.00000  0.11513
      13     H     0.45189  0.45189  0.00000  0.09622
      14     H     0.45701  0.45701  0.00000  0.08599
      15     H     0.44807  0.44807  0.00000  0.10385
      16     H     0.45221  0.45221  0.00000  0.09557
      17     H     0.45862  0.45862  0.00000  0.08277
      18     H     0.44762  0.44762  0.00000  0.10477

   Total alpha = 25.00000, Total beta = 25.00000, Total charge = -0.00000

*** Psi4 exiting successfully. Buy a developer a beer!
