  ==> Input File <==

--------------------------------------------------------------------------
set {
	reference rhf
	basis cc-pvtz
}

set_num_threads( 4 )
memory 2 gb

molecule MOL {
0 1

H	 2.867672	 -0.456275	 0.875795
C	 2.403497	 -0.020426	 0.000000
N	 0.989899	 -0.304564	 0.000000
H	 2.867672	 -0.456275	 -0.875795
H	 2.620366	 1.051270	 0.000000
C	 0.695215	 -1.646646	 0.457763
C	 0.375936	 -0.058222	 -1.288384
H	 1.155517	 -2.399764	 -0.189290
H	 1.098826	 -1.779997	 1.454780
C	 -0.804845	 -1.868241	 0.488720
H	 0.545283	 0.973905	 -1.572572
H	 0.812224	 -0.691868	 -2.066773
C	 -1.115920	 -0.320630	 -1.212562
H	 -1.031510	 -2.894796	 0.740580
H	 -1.252477	 -1.221569	 1.240744
O	 -1.378150	 -1.615759	 -0.759767
H	 -1.567442	 -0.228514	 -2.190452
H	 -1.579649	 0.406126	 -0.548574

	symmetry c1
}
set optking {
	frozen_dihedral = ("
		6 3 2 5
	")
}

ee = optimize('scf')
oeprop('DIPOLE', 'QUADRUPOLE', 'MULLIKEN_CHARGES')
f=open( 'psi4out.xyz', 'w' )
f.write( "18  " )
f.write( str(ee) + "\n" )
f.write( MOL.save_string_xyz() )
f.close()
--------------------------------------------------------------------------

    Molecular point group: c1
  Charge       = 0
  Multiplicity = 1
  Basis Set: CC-PVTZ
  Basis Set:
  @DF-RHF Final Energy:  -325.14404136729439
    Total Energy =                       -325.1440413672945056
    Molecular point group: c1
  Basis Set: CC-PVTZ
  Basis Set:
  Basis Set: CC-PVTZ
  Basis Set:
  @DF-RHF Final Energy:  -325.14482198307695
    Total Energy =                       -325.1448219830764970
  Basis Set: CC-PVTZ
  Basis Set:
  Basis Set: CC-PVTZ
  Basis Set:
  @DF-RHF Final Energy:  -325.14489641992253
    Total Energy =                       -325.1448964199227021
  Basis Set: CC-PVTZ
  Basis Set:
  Basis Set: CC-PVTZ
  Basis Set:
  @DF-RHF Final Energy:  -325.14489796660405
    Total Energy =                       -325.1448979666042760
  Basis Set: CC-PVTZ
  Basis Set:
  Charge       = 0
  Multiplicity = 1
  Basis Set: CC-PVTZ
  Basis Set:

    Orbital Energies (a.u.)
    -----------------------

    Doubly Occupied:

       1A    -20.547543     2A    -15.543146     3A    -11.264276
       4A    -11.264230     5A    -11.242652     6A    -11.242459
       7A    -11.239078     8A     -1.386396     9A     -1.233176
      10A     -1.039372    11A     -0.982113    12A     -0.884366
      13A     -0.869654    14A     -0.773802    15A     -0.685073
      16A     -0.646932    17A     -0.645313    18A     -0.634739
      19A     -0.630615    20A     -0.574023    21A     -0.556730
      22A     -0.543271    23A     -0.526700    24A     -0.501303
      25A     -0.485806    26A     -0.454091    27A     -0.410823
      28A     -0.352692

  @DF-RHF Final Energy:  -325.14489783839753

   => Energetics <=

    Nuclear Repulsion Energy =            341.7992321670486149
    One-Electron Energy =               -1119.5675139556183240
    Two-Electron Energy =                 452.6233839501723537
    DFT Exchange-Correlation Energy =       0.0000000000000000
    Empirical Dispersion Energy =           0.0000000000000000
    PCM Polarization Energy =               0.0000000000000000
    EFP Energy =                            0.0000000000000000
    Total Energy =                       -325.1448978383974122
    Molecular point group: c1
  Basis Set: CC-PVTZ
  Basis Set:

  -Total Gradient:
     Atom            X                  Y                   Z
    ------   -----------------  -----------------  -----------------
       1        0.000017474206    -0.000000821854     0.000002762299
       2       -0.000013895505     0.000322328128    -0.003126737617
       3        0.000284171085    -0.001341312007    -0.002556325544
       4        0.000023386453     0.000011233493     0.000027622652
       5       -0.000040864297     0.000027316285     0.003215655847
       6       -0.000210369653     0.000885904918     0.002422376798
       7       -0.000051658871     0.000125353671     0.000026957153
       8       -0.000002726641     0.000016988691    -0.000001170418
       9       -0.000005270744    -0.000013350112     0.000000474739
      10       -0.000010284245    -0.000030671092     0.000000001939
      11       -0.000005774748    -0.000001946189    -0.000012338064
      12        0.000016475065    -0.000007193023     0.000023778887
      13       -0.000017758555     0.000010597825    -0.000020753577
      14       -0.000012072039    -0.000007674594     0.000002048599
      15        0.000013782900    -0.000000430303    -0.000006743999
      16        0.000020391623     0.000005946030     0.000010454750
      17       -0.000011932865    -0.000002120450    -0.000004358780
      18        0.000006926833    -0.000000149419    -0.000003705664

  **** Optimization is complete! (in 5 steps) ****
    Final optimized geometry and variables:
    Molecular point group: c1

    Geometry (in Angstrom), charge = 0, multiplicity = 1:

    H            2.687699639678     0.449141337246     1.243233093067
    C            2.240337595269     0.819496812296     0.329383845302
    N            0.831085506499     0.513253202327     0.321627666334
    H            2.780750433519     0.376704056481    -0.510270791587
    H            2.389967373953     1.892619671579     0.316674844093
    C            0.526872102426    -0.821655981110     0.790218478465
    C            0.205741022344     0.781907514803    -0.954321474646
    H            0.974814825042    -1.588375583733     0.149816128286
    H            0.930336304214    -0.950159568744     1.787523931947
    C           -0.976064381905    -1.025086418587     0.827897412912
    H            0.381986907757     1.816322472412    -1.227504091253
    H            0.629022614946     0.155217861264    -1.745624337938
    C           -1.287376108321     0.530358150053    -0.866555257031
    H           -1.214173388810    -2.048707066528     1.081466324073
    H           -1.411201176414    -0.372540946763     1.582335810014
    O           -1.553629775977    -0.765081153369    -0.417068842390
    H           -1.747142132238     0.630063761496    -1.839933603995
    H           -1.740239301506     1.257102111813    -0.195017998582

  Mulliken Charges: (a.u.)
   Center  Symbol    Alpha    Beta     Spin     Total
       1     H     0.45369  0.45369  0.00000  0.09261
       2     C     3.09450  3.09450  0.00000 -0.18899
       3     N     3.61750  3.61750  0.00000 -0.23500
       4     H     0.46811  0.46811  0.00000  0.06378
       5     H     0.45030  0.45030  0.00000  0.09939
       6     C     3.03912  3.03912  0.00000 -0.07824
       7     C     3.04088  3.04088  0.00000 -0.08176
       8     H     0.47013  0.47013  0.00000  0.05974
       9     H     0.45399  0.45399  0.00000  0.09201
      10     C     2.98385  2.98385  0.00000  0.03229
      11     H     0.45435  0.45435  0.00000  0.09129
      12     H     0.46838  0.46838  0.00000  0.06324
      13     C     2.98337  2.98337  0.00000  0.03325
      14     H     0.44980  0.44980  0.00000  0.10039
      15     H     0.46789  0.46789  0.00000  0.06423
      16     O     4.18649  4.18649  0.00000 -0.37298
      17     H     0.44987  0.44987  0.00000  0.10025
      18     H     0.46776  0.46776  0.00000  0.06449

   Total alpha = 28.00000, Total beta = 28.00000, Total charge =  0.00000
