                              Psi4 1.0.54 Driver

  ==> Input File <==

--------------------------------------------------------------------------
set {
	reference rhf
	basis cc-pvtz
}

set_num_threads( 4 )
memory 2 gb

molecule MOL {
0 1

H	 -2.584764	 -1.416124	 -2.860871
O	 -2.525412	 -1.194262	 -1.950129
C	 -1.231431	 -0.745467	 -1.645802
C	 -1.175688	 -0.398187	 -0.171891
H	 -0.497924	 -1.516300	 -1.872863
H	 -0.981958	 0.129706	 -2.242179
C	 0.196029	 0.106276	 0.266738
H	 -1.448420	 -1.279875	 0.399480
H	 -1.932421	 0.352254	 0.033314
C	 1.330220	 -0.826136	 -0.155230
H	 0.359542	 1.097229	 -0.145561
H	 0.212134	 0.218135	 1.348778
C	 2.719700	 -0.407669	 0.328325
H	 1.339388	 -0.911200	 -1.239363
H	 1.119001	 -1.821953	 0.224128
C	 3.241564	 0.893452	 -0.276737
H	 3.418299	 -1.204729	 0.093035
H	 2.711776	 -0.323368	 1.411960
H	 3.254204	 0.841071	 -1.360784
H	 2.634460	 1.745075	 0.005842
H	 4.254264	 1.092401	 0.054971

	symmetry c1
}
set optking {
	frozen_dihedral = ("
		8 4 7 10
	")
}

ee,wfn = optimize('scf', return_wfn=True)
oeprop( wfn, 'DIPOLE', 'QUADRUPOLE', 'MULLIKEN_CHARGES')
f=open( 'psi4out.xyz', 'w' )
f.write( "21  " )
f.write( str(ee) + "\n" )
f.write( MOL.save_string_xyz() )
f.close()
--------------------------------------------------------------------------

    Molecular point group: c1
  Charge       = 0
  Multiplicity = 1
  Basis Set: CC-PVTZ
  Basis Set:
  @DF-RHF Final Energy:  -310.32886414738380
    Total Energy =                       -310.3288641473834559
    Molecular point group: c1
  Basis Set: CC-PVTZ
  Basis Set:
  Basis Set: CC-PVTZ
  Basis Set:
  @DF-RHF Final Energy:  -310.16030924898843
    Total Energy =                       -310.1603092489886535
  Basis Set: CC-PVTZ
  Basis Set:
  Basis Set: CC-PVTZ
  Basis Set:
  @DF-RHF Final Energy:  -310.27471960302569
    Total Energy =                       -310.2747196030259147
  Basis Set: CC-PVTZ
  Basis Set:
  Basis Set: CC-PVTZ
  Basis Set:
  @DF-RHF Final Energy:  -310.32681572589848
    Total Energy =                       -310.3268157258991664
  Basis Set: CC-PVTZ
  Basis Set:
  @DF-RHF Final Energy:  -310.33011647832603
    Total Energy =                       -310.3301164783263175
  @DF-RHF Final Energy:  -310.33059565555010
    Total Energy =                       -310.3305956555500984
  Basis Set: CC-PVTZ
  Basis Set:
  @DF-RHF Final Energy:  -310.33063301062896
    Total Energy =                       -310.3306330106290716
  Basis Set: CC-PVTZ
  Basis Set:
  Basis Set: CC-PVTZ
  Basis Set:
  @DF-RHF Final Energy:  -310.33063010592275
    Total Energy =                       -310.3306301059228076
  Basis Set: CC-PVTZ
  Basis Set:
  Basis Set: CC-PVTZ
  Basis Set:
  @DF-RHF Final Energy:  -310.33063570847241
    Total Energy =                       -310.3306357084728120
  Basis Set: CC-PVTZ
  Basis Set:
  Charge       = 0
  Multiplicity = 1
  Basis Set: CC-PVTZ
  Basis Set:

    Orbital Energies (a.u.)
    -----------------------

    Doubly Occupied:

       1A    -20.545157     2A    -11.264620     3A    -11.214223
       4A    -11.213454     5A    -11.212678     6A    -11.209135
       7A    -11.206911     8A     -1.362920     9A     -1.087710
      10A     -1.033102    11A     -0.952279    12A     -0.885231
      13A     -0.814611    14A     -0.767834    15A     -0.699100
      16A     -0.656967    17A     -0.623894    18A     -0.608623
      19A     -0.595251    20A     -0.558492    21A     -0.549686
      22A     -0.518372    23A     -0.515299    24A     -0.497147
      25A     -0.478319    26A     -0.457202    27A     -0.451833
      28A     -0.447257    29A     -0.434693

  @DF-RHF Final Energy:  -310.33063591497199

   => Energetics <=

    Nuclear Repulsion Energy =            317.2869208963610959
    One-Electron Energy =               -1049.5111211862049458
    Two-Electron Energy =                 421.8935643748718007
    DFT Exchange-Correlation Energy =       0.0000000000000000
    Empirical Dispersion Energy =           0.0000000000000000
    PCM Polarization Energy =               0.0000000000000000
    EFP Energy =                            0.0000000000000000
    Total Energy =                       -310.3306359149719924
    Molecular point group: c1
  Basis Set: CC-PVTZ
  Basis Set:

  -Total Gradient:
     Atom            X                  Y                   Z
    ------   -----------------  -----------------  -----------------
       1        0.000008049659     0.000011851733     0.000005188261
       2       -0.000022519213    -0.000018817917     0.000008775798
       3        0.000004910846     0.000009666233    -0.000032116929
       4        0.002276110842    -0.001454097461    -0.002624162771
       5        0.000008860067    -0.000002265095     0.000000926973
       6        0.000001135517     0.000000616330    -0.000000956197
       7       -0.000444523613    -0.000611564845     0.003088535178
       8       -0.001866598790     0.001380330001     0.001464597973
       9       -0.000020968285    -0.000007863590    -0.000004345267
      10        0.000007021616     0.000670683987    -0.001917742473
      11        0.000007440814    -0.000003036229     0.000001450010
      12       -0.000009287075     0.000008033904     0.000007360553
      13        0.000000459430     0.000017036198     0.000010403266
      14        0.000000294293    -0.000003747861    -0.000000824416
      15       -0.000000604679    -0.000001105884    -0.000002337113
      16        0.000031427082    -0.000003105899    -0.000016065096
      17        0.000023074376     0.000007270823     0.000009170933
      18       -0.000006576953    -0.000005786804     0.000003786640
      19       -0.000003631074     0.000007870400    -0.000008696568
      20       -0.000000884852    -0.000002884551     0.000008199817
      21        0.000006809994     0.000000916527    -0.000001148569

  **** Optimization is complete! (in 10 steps) ****
    Final optimized geometry and variables:
    Molecular point group: c1

    Geometry (in Angstrom), charge = 0, multiplicity = 1:

    H           -2.268877369324    -2.403175602701    -2.167640579397
    O           -2.346341692439    -1.979024823437    -1.333269226949
    C           -1.228480909524    -1.161863238801    -1.102378436217
    C           -1.369207273475    -0.554362999451     0.279612450802
    H           -0.316200362321    -1.745795868486    -1.175553786301
    H           -1.174431486126    -0.371137702027    -1.848932527265
    C           -0.317368287496     0.499549505560     0.633051950438
    H           -1.370837240885    -1.346581216128     1.022011799515
    H           -2.352024500593    -0.097690285866     0.334543124160
    C            1.134288239045     0.043595176794     0.473465833280
    H           -0.487398616671     1.380593738853     0.021563856092
    H           -0.481379886520     0.809303841051     1.660908008009
    C            2.167951002248     1.021367200492     1.036035798475
    H            1.354071641573    -0.131696276319    -0.575802216153
    H            1.259038065102    -0.913235823684     0.974397652570
    C            2.233078521658     2.365085919919     0.313935439149
    H            3.146104237980     0.552662881298     0.987231980503
    H            1.964897477254     1.188756682239     2.090438290984
    H            2.424641912933     2.229075460735    -0.745841493756
    H            1.310712398856     2.924280163411     0.413991536503
    H            3.030826770173     2.978964066483     0.716174210462

  Mulliken Charges: (a.u.)
   Center  Symbol    Alpha    Beta     Spin     Total
       1     H     0.39718  0.39718  0.00000  0.20565
       2     O     4.19587  4.19587  0.00000 -0.39174
       3     C     2.96439  2.96439  0.00000  0.07122
       4     C     3.09072  3.09072  0.00000 -0.18143
       5     H     0.47118  0.47118  0.00000  0.05763
       6     H     0.47374  0.47374  0.00000  0.05253
       7     C     3.11067  3.11067  0.00000 -0.22135
       8     H     0.45051  0.45051  0.00000  0.09899
       9     H     0.44607  0.44607  0.00000  0.10786
      10     C     3.10035  3.10035  0.00000 -0.20070
      11     H     0.45105  0.45105  0.00000  0.09790
      12     H     0.44723  0.44723  0.00000  0.10553
      13     C     3.08948  3.08948  0.00000 -0.17896
      14     H     0.45377  0.45377  0.00000  0.09246
      15     H     0.44765  0.44765  0.00000  0.10471
      16     C     3.15290  3.15290  0.00000 -0.30581
      17     H     0.44856  0.44856  0.00000  0.10288
      18     H     0.45422  0.45422  0.00000  0.09157
      19     H     0.45558  0.45558  0.00000  0.08884
      20     H     0.45283  0.45283  0.00000  0.09434
      21     H     0.44606  0.44606  0.00000  0.10789

   Total alpha = 29.00000, Total beta = 29.00000, Total charge =  0.00000

*** Psi4 exiting successfully. Buy a developer a beer!
