  ==> Input File <==

--------------------------------------------------------------------------
set {
	reference rhf
	basis 6-31G*
}

set_num_threads( 1 )
memory 2 gb

molecule MOL {
0 1

O	 -0.918418	 0.279758	 -1.942494
C	 -1.114573	 0.708894	 -0.851789
C	 -1.924390	 1.938499	 -0.540961
O	 -0.632575	 0.154573	 0.251549
H	 -1.306791	 2.662110	 -0.021437
H	 -2.302154	 2.365216	 -1.458044
H	 -2.747505	 1.678709	 0.114592
C	 0.160891	 -1.019931	 0.106212
C	 1.589627	 -0.672828	 0.480843
H	 0.089836	 -1.367806	 -0.916050
H	 -0.238459	 -1.792301	 0.749618
C	 2.246377	 0.346236	 -0.452210
H	 2.163194	 -1.597435	 0.473358
H	 1.604769	 -0.303424	 1.502885
C	 3.691736	 0.652107	 -0.061850
H	 2.219579	 -0.032311	 -1.472055
H	 1.666466	 1.263317	 -0.447249
H	 4.134505	 1.377213	 -0.737283
H	 4.305508	 -0.243868	 -0.089969
H	 3.748266	 1.059562	 0.943567

	symmetry c1
}
set optking {
	frozen_dihedral = ("
		16 12 9 8,
		12 9 8 10,
		1 2 4 8
	")
}

ee = energy('scf')
oeprop('DIPOLE', 'QUADRUPOLE', 'MULLIKEN_CHARGES')
f=open( 'psi4out.xyz', 'w' )
f.write( "20  " )
f.write( str(ee) + "\n" )
f.write( MOL.save_string_xyz() )
f.close()
--------------------------------------------------------------------------

    Molecular point group: c1

    Geometry (in Angstrom), charge = 0, multiplicity = 1:

       Center              X                  Y                   Z               Mass
    ------------   -----------------  -----------------  -----------------  -----------------
           O         -1.301155474585    -0.025982161204    -1.561284032311    15.994914619560
           C         -1.497310474585     0.403153838796    -0.470579032311    12.000000000000
           C         -2.307127474585     1.632758838796    -0.159751032311    12.000000000000
           O         -1.015312474585    -0.151167161204     0.632758967689    15.994914619560
           H         -1.689528474585     2.356369838796     0.359772967689     1.007825032070
           H         -2.684891474585     2.059475838796    -1.076834032311     1.007825032070
           H         -3.130242474585     1.372968838796     0.495801967689     1.007825032070
           C         -0.221846474585    -1.325671161204     0.487421967689    12.000000000000
           C          1.206889525415    -0.978568161204     0.862052967689    12.000000000000
           H         -0.292901474585    -1.673546161204    -0.534840032311     1.007825032070
           H         -0.621196474585    -2.098041161204     1.130827967689     1.007825032070
           C          1.863639525415     0.040495838796    -0.071000032311    12.000000000000
           H          1.780456525415    -1.903175161204     0.854567967689     1.007825032070
           H          1.222031525415    -0.609164161204     1.884094967689     1.007825032070
           C          3.308998525415     0.346366838796     0.319359967689    12.000000000000
           H          1.836841525415    -0.338051161204    -1.090845032311     1.007825032070
           H          1.283728525415     0.957576838796    -0.066039032311     1.007825032070
           H          3.751767525415     1.071472838796    -0.356073032311     1.007825032070
           H          3.922770525415    -0.549608161204     0.291240967689     1.007825032070
           H          3.365528525415     0.753821838796     1.324776967689     1.007825032070

  Charge       = 0
  Multiplicity = 1
  Basis Set: 6-31G*
  Basis Set:

    Orbital Energies (a.u.)
    -----------------------

    Doubly Occupied:

       1A    -20.601587     2A    -20.543644     3A    -11.376161
       4A    -11.278196     5A    -11.234280     6A    -11.221785
       7A    -11.217949     8A    -11.211201     9A     -1.468910
      10A     -1.362787    11A     -1.082776    12A     -1.028602
      13A     -0.979727    14A     -0.883496    15A     -0.806626
      16A     -0.771843    17A     -0.695747    18A     -0.683171
      19A     -0.662941    20A     -0.629441    21A     -0.601572
      22A     -0.592219    23A     -0.572620    24A     -0.547926
      25A     -0.546218    26A     -0.529428    27A     -0.504087
      28A     -0.492600    29A     -0.475228    30A     -0.468944
      31A     -0.440193    32A     -0.439026

  @DF-RHF Final Energy:  -383.94225660406056

   => Energetics <=

    Nuclear Repulsion Energy =            395.1639373833585864
    One-Electron Energy =               -1306.3103299245901781
    Two-Electron Energy =                 527.2041359371714861
    DFT Exchange-Correlation Energy =       0.0000000000000000
    Empirical Dispersion Energy =           0.0000000000000000
    PCM Polarization Energy =               0.0000000000000000
    EFP Energy =                            0.0000000000000000
    Total Energy =                       -383.9422566040600486

  Mulliken Charges: (a.u.)
   Center  Symbol    Alpha    Beta     Spin     Total
       1     O     4.28514  4.28514  0.00000 -0.57027
       2     C     2.61673  2.61673  0.00000  0.76654
       3     C     3.28295  3.28295  0.00000 -0.56590
       4     O     4.30790  4.30790  0.00000 -0.61581
       5     H     0.40054  0.40054  0.00000  0.19892
       6     H     0.39672  0.39672  0.00000  0.20656
       7     H     0.39982  0.39982  0.00000  0.20036
       8     C     3.01940  3.01940  0.00000 -0.03880
       9     C     3.15900  3.15900  0.00000 -0.31799
      10     H     0.39205  0.39205  0.00000  0.21591
      11     H     0.41098  0.41098  0.00000  0.17804
      12     C     3.15667  3.15667  0.00000 -0.31333
      13     H     0.42129  0.42129  0.00000  0.15743
      14     H     0.41604  0.41604  0.00000  0.16793
      15     C     3.23981  3.23981  0.00000 -0.47963
      16     H     0.41427  0.41427  0.00000  0.17147
      17     H     0.42025  0.42025  0.00000  0.15949
      18     H     0.41726  0.41726  0.00000  0.16548
      19     H     0.42152  0.42152  0.00000  0.15696
      20     H     0.42166  0.42166  0.00000  0.15667

   Total alpha = 32.00000, Total beta = 32.00000, Total charge = -0.00000
