  ==> Input File <==

--------------------------------------------------------------------------
set {
	reference rhf
	basis cc-pvtz
}

set_num_threads( 4 )
memory 2 gb

molecule MOL {
0 1

H	 2.413683	 -0.991731	 -1.988477
C	 1.691978	 -1.190849	 -1.206956
C	 1.322304	 0.099773	 -0.484271
H	 0.822995	 -1.648061	 -1.666517
H	 2.130335	 -1.912041	 -0.526467
C	 0.308557	 -0.162619	 0.622645
H	 0.901941	 0.811619	 -1.183773
H	 2.206412	 0.550786	 -0.050823
N	 -1.069352	 -0.004081	 0.085342
H	 0.371632	 -1.172932	 0.991288
H	 0.400391	 0.548875	 1.426218
O	 -1.584901	 -0.965470	 -0.377818
O	 -1.548033	 1.079343	 0.130056

	symmetry c1
}
set optking {
	frozen_dihedral = ("
		7 3 6 9
	")
}

ee = optimize('scf')
oeprop('DIPOLE', 'QUADRUPOLE', 'MULLIKEN_CHARGES')
f=open( 'psi4out.xyz', 'w' )
f.write( "13  " )
f.write( str(ee) + "\n" )
f.write( MOL.save_string_xyz() )
f.close()
--------------------------------------------------------------------------

    Molecular point group: c1
  Charge       = 0
  Multiplicity = 1
  Basis Set: CC-PVTZ
  Basis Set:
  @DF-RHF Final Energy:  -321.85790405414548
    Total Energy =                       -321.8579040541454788
    Molecular point group: c1
  Basis Set: CC-PVTZ
  Basis Set:
  Basis Set: CC-PVTZ
  Basis Set:
  @DF-RHF Final Energy:  -321.85749190871803
    Total Energy =                       -321.8574919087182025
  Basis Set: CC-PVTZ
  Basis Set:
  Basis Set: CC-PVTZ
  Basis Set:
  @DF-RHF Final Energy:  -321.85302401486649
    Total Energy =                       -321.8530240148665484
  Basis Set: CC-PVTZ
  Basis Set:
  Basis Set: CC-PVTZ
  Basis Set:
  @DF-RHF Final Energy:  -321.85819438013220
    Total Energy =                       -321.8581943801323177
  Basis Set: CC-PVTZ
  Basis Set:
  @DF-RHF Final Energy:  -321.85832724562567
    Total Energy =                       -321.8583272456257873
  @DF-RHF Final Energy:  -321.85838412263001
    Total Energy =                       -321.8583841226297295
  Basis Set: CC-PVTZ
  Basis Set:
  @DF-RHF Final Energy:  -321.85838787455907
    Total Energy =                       -321.8583878745589573
  Basis Set: CC-PVTZ
  Basis Set:
  Basis Set: CC-PVTZ
  Basis Set:
  @DF-RHF Final Energy:  -321.85839199920736
    Total Energy =                       -321.8583919992073561
  Basis Set: CC-PVTZ
  Basis Set:
  Basis Set: CC-PVTZ
  Basis Set:
  @DF-RHF Final Energy:  -321.85839808696642
    Total Energy =                       -321.8583980869663037
  Basis Set: CC-PVTZ
  Basis Set:
  Charge       = 0
  Multiplicity = 1
  Basis Set: CC-PVTZ
  Basis Set:

    Orbital Energies (a.u.)
    -----------------------

    Doubly Occupied:

       1A    -20.591774     2A    -20.589998     3A    -15.837281
       4A    -11.297641     5A    -11.254864     6A    -11.229525
       7A     -1.636379     8A     -1.420577     9A     -1.132095
      10A     -1.023606    11A     -0.888254    12A     -0.830299
      13A     -0.763446    14A     -0.738536    15A     -0.727720
      16A     -0.646370    17A     -0.627856    18A     -0.594240
      19A     -0.529439    20A     -0.523002    21A     -0.514764
      22A     -0.485321    23A     -0.474498    24A     -0.453595

  @DF-RHF Final Energy:  -321.85839904724298

   => Energetics <=

    Nuclear Repulsion Energy =            251.1340545197183474
    One-Electron Energy =                -936.3627427800385021
    Two-Electron Energy =                 363.3702892130771147
    DFT Exchange-Correlation Energy =       0.0000000000000000
    Empirical Dispersion Energy =           0.0000000000000000
    PCM Polarization Energy =               0.0000000000000000
    EFP Energy =                            0.0000000000000000
    Total Energy =                       -321.8583990472430401
    Molecular point group: c1
  Basis Set: CC-PVTZ
  Basis Set:

  -Total Gradient:
     Atom            X                  Y                   Z
    ------   -----------------  -----------------  -----------------
       1        0.000009307571    -0.000019068226    -0.000004533595
       2        0.000032123023     0.000017220311    -0.000001339255
       3        0.001856836421     0.004296432008     0.002658266941
       4       -0.000002893221    -0.000006571186    -0.000006774923
       5       -0.000008017642     0.000002686280     0.000008182164
       6       -0.000529704446    -0.004014141234    -0.001254773954
       7       -0.001490243732    -0.002835295199    -0.002041828227
       8       -0.000023524798     0.000035891384    -0.000005742595
       9        0.000063050916     0.002669284279     0.000796757896
      10       -0.000057144687    -0.000025140850    -0.000100948667
      11        0.000055466518    -0.000048163005     0.000030475791
      12        0.000020424456    -0.000024963506    -0.000047611331
      13        0.000074319622    -0.000048171053    -0.000030130244

  **** Optimization is complete! (in 10 steps) ****
    Final optimized geometry and variables:
    Molecular point group: c1

    Geometry (in Angstrom), charge = 0, multiplicity = 1:

    H            2.614569028241    -0.764549471652    -1.811818598774
    C            1.903588867516    -0.997353179425    -1.028820082950
    C            1.508382892302     0.269063012691    -0.274274405681
    H            1.041434991944    -1.466010299092    -1.486727795725
    H            2.364430548300    -1.720207421230    -0.364898469082
    C            0.478435905776     0.016711076413     0.833767323370
    H            1.098501892016     0.988236555234    -0.971878000982
    H            2.381119867212     0.720242285881     0.179353513576
    N           -0.900335767468     0.192883644908     0.301161313620
    H            0.528678307443    -0.985115648292     1.224440902524
    H            0.565312108941     0.741545017556     1.625240177824
    O           -1.476117630340    -0.777867419063    -0.062316120976
    O           -1.321919756555     1.299489211751     0.251976361194

  Mulliken Charges: (a.u.)
   Center  Symbol    Alpha    Beta     Spin     Total
       1     H     0.44604  0.44604  0.00000  0.10793
       2     C     3.14472  3.14472  0.00000 -0.28945
       3     C     3.09363  3.09363  0.00000 -0.18726
       4     H     0.44357  0.44357  0.00000  0.11286
       5     H     0.45521  0.45521  0.00000  0.08958
       6     C     3.04638  3.04638  0.00000 -0.09275
       7     H     0.43878  0.43878  0.00000  0.12244
       8     H     0.44481  0.44481  0.00000  0.11039
       9     N     3.27769  3.27769  0.00000  0.44463
      10     H     0.43564  0.43564  0.00000  0.12872
      11     H     0.42758  0.42758  0.00000  0.14483
      12     O     4.17319  4.17319  0.00000 -0.34638
      13     O     4.17277  4.17277  0.00000 -0.34553

   Total alpha = 24.00000, Total beta = 24.00000, Total charge = -0.00000
