  ==> Input File <==

--------------------------------------------------------------------------
set {
	reference rhf
	basis 6-31G*
}

set_num_threads( 1 )
memory 2 gb

molecule MOL {
0 1

H	 -2.646374	 -0.642757	 1.268656
C	 -2.083525	 -0.384536	 0.393091
O	 -0.807605	 -0.127164	 0.768327
F	 -2.118945	 -1.383102	 -0.486752
F	 -2.621877	 0.670592	 -0.209486
C	 0.084052	 0.273579	 -0.209957
C	 -0.303599	 1.690886	 -0.611364
Cl	 0.016543	 -0.811386	 -1.608351
H	 1.100328	 0.287999	 0.143243
F	 0.514595	 2.146675	 -1.536002
F	 -0.204126	 2.473244	 0.444789
F	 -1.531857	 1.758486	 -1.063896

	symmetry c1
}
set optking {
	frozen_dihedral = ("
		10 7 6 9,
		6 3 2 4
	")
}

ee = energy('scf')
oeprop('DIPOLE', 'QUADRUPOLE', 'MULLIKEN_CHARGES')
f=open( 'psi4out.xyz', 'w' )
f.write( "12  " )
f.write( str(ee) + "\n" )
f.write( MOL.save_string_xyz() )
f.close()
--------------------------------------------------------------------------

    Molecular point group: c1

    Geometry (in Angstrom), charge = 0, multiplicity = 1:

       Center              X                  Y                   Z               Mass
    ------------   -----------------  -----------------  -----------------  -----------------
           H         -1.804903354781    -1.163693077963     1.822218666595     1.007825032070
           C         -1.242054354781    -0.905472077963     0.946653666595    12.000000000000
           O          0.033865645219    -0.648100077963     1.321889666595    15.994914619560
           F         -1.277474354781    -1.904038077963     0.066810666595    18.998403224000
           F         -1.780406354781     0.149655922037     0.344076666595    18.998403224000
           C          0.925522645219    -0.247357077963     0.343605666595    12.000000000000
           C          0.537871645219     1.169949922037    -0.057801333405    12.000000000000
          CL          0.858013645219    -1.332322077963    -1.054788333405    34.968852682000
           H          1.941798645219    -0.232937077963     0.696805666595     1.007825032070
           F          1.356065645219     1.625738922037    -0.982439333405    18.998403224000
           F          0.637344645219     1.952307922037     0.998351666595    18.998403224000
           F         -0.690386354781     1.237549922037    -0.510333333405    18.998403224000

  Charge       = 0
  Multiplicity = 1
  Basis Set: 6-31G*
  Basis Set:

    Orbital Energies (a.u.)
    -----------------------

    Doubly Occupied:

       1A   -104.834981     2A    -26.355223     3A    -26.352745
       4A    -26.332629     5A    -26.329197     6A    -26.317892
       7A    -20.647667     8A    -11.518983     9A    -11.479827
      10A    -11.399389    11A    -10.570846    12A     -8.040111
      13A     -8.036549    14A     -8.036474    15A     -1.760328
      16A     -1.710633    17A     -1.658088    18A     -1.651987
      19A     -1.615618    20A     -1.485555    21A     -1.175858
      22A     -1.045535    23A     -1.000244    24A     -0.902048
      25A     -0.868488    26A     -0.855895    27A     -0.839660
      28A     -0.831449    29A     -0.796947    30A     -0.756054
      31A     -0.732174    32A     -0.719360    33A     -0.702632
      34A     -0.702227    35A     -0.680046    36A     -0.663235
      37A     -0.658067    38A     -0.646083    39A     -0.634288
      40A     -0.622181    41A     -0.563006    42A     -0.555221
      43A     -0.522471    44A     -0.466890    45A     -0.456536

  @DF-RHF Final Energy: -1146.21940937412364

   => Energetics <=

    Nuclear Repulsion Energy =            786.5592029579689779
    One-Electron Energy =               -3156.4948251884852652
    Two-Electron Energy =                1223.7162128563932129
    DFT Exchange-Correlation Energy =       0.0000000000000000
    Empirical Dispersion Energy =           0.0000000000000000
    PCM Polarization Energy =               0.0000000000000000
    EFP Energy =                            0.0000000000000000
    Total Energy =                      -1146.2194093741231882

  Mulliken Charges: (a.u.)
   Center  Symbol    Alpha    Beta     Spin     Total
       1     H     0.40380  0.40380  0.00000  0.19239
       2     C     2.56243  2.56243  0.00000  0.87514
       3     O     4.30302  4.30302  0.00000 -0.60604
       4     F     4.68186  4.68186  0.00000 -0.36372
       5     F     4.67819  4.67819  0.00000 -0.35637
       6     C     3.05487  3.05487  0.00000 -0.10973
       7     C     2.43917  2.43917  0.00000  1.12166
       8    CL     8.50057  8.50057  0.00000 -0.00115
       9     H     0.36074  0.36074  0.00000  0.27853
      10     F     4.67587  4.67587  0.00000 -0.35173
      11     F     4.67712  4.67712  0.00000 -0.35423
      12     F     4.66237  4.66237  0.00000 -0.32473

   Total alpha = 45.00000, Total beta = 45.00000, Total charge =  0.00000
