                              Psi4 1.0.54 Driver

  ==> Input File <==

--------------------------------------------------------------------------
set {
	reference rhf
	basis cc-pvtz
}

set_num_threads( 4 )
memory 2 gb

molecule MOL {
0 1

H	 -2.358519	 1.655396	 0.705516
O	 -1.523659	 1.212937	 0.736441
C	 -1.605397	 0.107680	 0.001145
C	 -0.310616	 -0.658853	 0.000791
O	 -2.597150	 -0.199525	 -0.564558
C	 0.926581	 0.227233	 0.000178
H	 -0.327628	 -1.313681	 -0.864448
H	 -0.327041	 -1.313334	 0.866298
C	 2.220156	 -0.582071	 -0.000088
H	 0.899945	 0.878221	 -0.866390
H	 0.900542	 0.878581	 0.866486
C	 3.466689	 0.296012	 -0.000457
H	 2.239073	 -1.234095	 -0.869382
H	 2.239505	 -1.233985	 0.869270
H	 3.493549	 0.935857	 -0.875887
H	 4.368821	 -0.304526	 -0.001199
H	 3.494559	 0.935166	 0.875458

	symmetry c1
}
set optking {
	frozen_dihedral = ("
		2 3 4 7
	")
}

ee,wfn = optimize('scf', return_wfn=True)
oeprop( wfn, 'DIPOLE', 'QUADRUPOLE', 'MULLIKEN_CHARGES')
f=open( 'psi4out.xyz', 'w' )
f.write( "17  " )
f.write( str(ee) + "\n" )
f.write( MOL.save_string_xyz() )
f.close()
--------------------------------------------------------------------------

    Molecular point group: c1
  Charge       = 0
  Multiplicity = 1
  Basis Set: CC-PVTZ
  Basis Set:
  @DF-RHF Final Energy:  -345.04632278102270
    Total Energy =                       -345.0463227810228091
    Molecular point group: c1
  Basis Set: CC-PVTZ
  Basis Set:
  Basis Set: CC-PVTZ
  Basis Set:
  @DF-RHF Final Energy:  -345.04671136105793
    Total Energy =                       -345.0467113610577599
  Basis Set: CC-PVTZ
  Basis Set:
  Basis Set: CC-PVTZ
  Basis Set:
  @DF-RHF Final Energy:  -345.04609123529514
    Total Energy =                       -345.0460912352947389
  Basis Set: CC-PVTZ
  Basis Set:
  Basis Set: CC-PVTZ
  Basis Set:
  @DF-RHF Final Energy:  -345.04690803442821
    Total Energy =                       -345.0469080344282702
  Basis Set: CC-PVTZ
  Basis Set:
  Basis Set: CC-PVTZ
  Basis Set:
  @DF-RHF Final Energy:  -345.04691850732434
    Total Energy =                       -345.0469185073242215
  Basis Set: CC-PVTZ
  Basis Set:
  Charge       = 0
  Multiplicity = 1
  Basis Set: CC-PVTZ
  Basis Set:

    Orbital Energies (a.u.)
    -----------------------

    Doubly Occupied:

       1A    -20.605660     2A    -20.538041     3A    -11.373405
       4A    -11.239060     5A    -11.227178     6A    -11.223707
       7A    -11.213638     8A     -1.478195     9A     -1.367912
      10A     -1.095652    11A     -1.020525    12A     -0.910667
      13A     -0.826435    14A     -0.809151    15A     -0.703909
      16A     -0.683145    17A     -0.664327    18A     -0.635265
      19A     -0.592431    20A     -0.584057    21A     -0.578919
      22A     -0.536614    23A     -0.515842    24A     -0.499871
      25A     -0.486471    26A     -0.479306    27A     -0.473398
      28A     -0.436955

  @DF-RHF Final Energy:  -345.04691885174628

   => Energetics <=

    Nuclear Repulsion Energy =            305.4172925476453315
    One-Electron Energy =               -1075.3289463187600177
    Two-Electron Energy =                 424.8647349193685159
    DFT Exchange-Correlation Energy =       0.0000000000000000
    Empirical Dispersion Energy =           0.0000000000000000
    PCM Polarization Energy =               0.0000000000000000
    EFP Energy =                            0.0000000000000000
    Total Energy =                       -345.0469188517462271
    Molecular point group: c1
  Basis Set: CC-PVTZ
  Basis Set:

  -Total Gradient:
     Atom            X                  Y                   Z
    ------   -----------------  -----------------  -----------------
       1        0.000008016528    -0.000032647673    -0.000011379898
       2        0.000308168299     0.000474519734    -0.000668023069
       3       -0.000317807119    -0.000455056637     0.000805999301
       4       -0.000414009227    -0.000707505098     0.000482708624
       5        0.000009895701    -0.000011301366    -0.000013931661
       6        0.000011086281     0.000012882065     0.000022657810
       7        0.000409771483     0.000719597798    -0.000594065888
       8        0.000007136388     0.000016667611    -0.000006369747
       9        0.000001530197    -0.000007550208    -0.000019642426
      10       -0.000000331554    -0.000007762689     0.000001534474
      11       -0.000015750161    -0.000002290000     0.000003946352
      12       -0.000004169624     0.000003842852    -0.000000459593
      13        0.000003643181    -0.000009440947    -0.000001162691
      14       -0.000003869917     0.000007114953    -0.000000611328
      15        0.000001303918    -0.000000568323    -0.000001091000
      16       -0.000003504848    -0.000001000616     0.000000886430
      17       -0.000001109532     0.000000498547    -0.000000995696

  **** Optimization is complete! (in 6 steps) ****
    Final optimized geometry and variables:
    Molecular point group: c1

    Geometry (in Angstrom), charge = 0, multiplicity = 1:

    H           -2.524339825428     1.539435728044     0.564431238450
    O           -1.659202632603     1.162895693588     0.625074346512
    C           -1.662337611076     0.007538259081    -0.031549465578
    C           -0.342583542136    -0.717221544754     0.022316284363
    O           -2.629308104342    -0.398513756176    -0.578980607030
    C            0.898766866166     0.172227454169    -0.017489013339
    H           -0.345128684559    -1.416481858542    -0.801828659415
    H           -0.352237523250    -1.300832903915     0.938729370590
    C            2.188430314226    -0.643488411493    -0.013095510318
    H            0.868561203354     0.793629030303    -0.907851181561
    H            0.890782571597     0.847762414250     0.828895002869
    C            3.439419719085     0.227027407236    -0.057640616951
    H            2.190427882065    -1.321586409008    -0.861792622449
    H            2.215029531333    -1.267752995832     0.875968102748
    H            3.458710016534     0.838421149227    -0.953475785743
    H            4.337788689618    -0.378903750471    -0.051529868955
    H            3.483127019042     0.893137892804     0.797332850249

  Mulliken Charges: (a.u.)
   Center  Symbol    Alpha    Beta     Spin     Total
       1     H     0.38155  0.38155  0.00000  0.23690
       2     O     4.15808  4.15808  0.00000 -0.31615
       3     C     2.81318  2.81318  0.00000  0.37365
       4     C     3.09074  3.09074  0.00000 -0.18149
       5     O     4.19438  4.19438  0.00000 -0.38877
       6     C     3.09301  3.09301  0.00000 -0.18602
       7     H     0.43499  0.43499  0.00000  0.13002
       8     H     0.44347  0.44347  0.00000  0.11305
       9     C     3.08780  3.08780  0.00000 -0.17559
      10     H     0.44949  0.44949  0.00000  0.10102
      11     H     0.44283  0.44283  0.00000  0.11435
      12     C     3.14912  3.14912  0.00000 -0.29823
      13     H     0.45249  0.45249  0.00000  0.09502
      14     H     0.45371  0.45371  0.00000  0.09258
      15     H     0.45397  0.45397  0.00000  0.09207
      16     H     0.44716  0.44716  0.00000  0.10567
      17     H     0.45404  0.45404  0.00000  0.09192

   Total alpha = 28.00000, Total beta = 28.00000, Total charge = -0.00000

*** Psi4 exiting successfully. Buy a developer a beer!
