  ==> Input File <==

--------------------------------------------------------------------------
set {
	reference rhf
	basis 6-31G*
}

set_num_threads( 4 )
memory 2 gb

molecule MOL {
0 1

H	 -1.049075	 -0.922636	 -0.291868
N	 -0.712432	 0.000013	 -0.096310
C	 0.734192	 -0.000004	 0.040609
H	 -1.148277	 0.293755	 0.756105
H	 1.139899	 -0.873598	 -0.456463
H	 1.139939	 0.873831	 -0.456100
H	 1.096456	 -0.000300	 1.069655

	symmetry c1
}
set optking {
	frozen_dihedral = ("
		1 2 3 7
	")
}

ee = optimize('scf')
oeprop('DIPOLE', 'QUADRUPOLE', 'MULLIKEN_CHARGES')
f=open( 'psi4out.xyz', 'w' )
f.write( "7  " )
f.write( str(ee) + "\n" )
f.write( MOL.save_string_xyz() )
f.close()
--------------------------------------------------------------------------

    Molecular point group: c1
  Charge       = 0
  Multiplicity = 1
  Basis Set: 6-31G*
  Basis Set:
  @DF-RHF Final Energy:   -95.20660728780877
    Total Energy =                        -95.2066072878088505
    Molecular point group: c1
  Basis Set: 6-31G*
  Basis Set:
  Basis Set: 6-31G*
  Basis Set:
  @DF-RHF Final Energy:   -95.20688735039911
    Total Energy =                        -95.2068873503990858
  Basis Set: 6-31G*
  Basis Set:
  Basis Set: 6-31G*
  Basis Set:
  @DF-RHF Final Energy:   -95.20697003602614
    Total Energy =                        -95.2069700360261777
  Basis Set: 6-31G*
  Basis Set:
  Basis Set: 6-31G*
  Basis Set:
  @DF-RHF Final Energy:   -95.20697197190643
    Total Energy =                        -95.2069719719064267
  Basis Set: 6-31G*
  Basis Set:
  Charge       = 0
  Multiplicity = 1
  Basis Set: 6-31G*
  Basis Set:

    Orbital Energies (a.u.)
    -----------------------

    Doubly Occupied:

       1A    -15.531615     2A    -11.237233     3A     -1.167111
       4A     -0.896993     5A     -0.665792     6A     -0.598660
       7A     -0.558898     8A     -0.519957     9A     -0.377648

  @DF-RHF Final Energy:   -95.20697216749465

   => Energetics <=

    Nuclear Repulsion Energy =             42.2790234904431728
    One-Electron Energy =                -211.8641785196680303
    Two-Electron Energy =                  74.3781828617302381
    DFT Exchange-Correlation Energy =       0.0000000000000000
    Empirical Dispersion Energy =           0.0000000000000000
    PCM Polarization Energy =               0.0000000000000000
    EFP Energy =                            0.0000000000000000
    Total Energy =                        -95.2069721674946265
    Molecular point group: c1
  Basis Set: 6-31G*
  Basis Set:

  -Total Gradient:
     Atom            X                  Y                   Z
    ------   -----------------  -----------------  -----------------
       1        0.000213669284     0.000512583438    -0.002782783121
       2       -0.000318557375     0.000120251654     0.003489925598
       3        0.000127413688    -0.003271285043    -0.000716534599
       4        0.000002662111    -0.000000633632    -0.000003551736
       5       -0.000019072401     0.000005500256    -0.000003064748
       6        0.000012678254    -0.000004350561     0.000001113838
       7       -0.000018793561     0.002637933888     0.000014894767

  **** Optimization is complete! (in 5 steps) ****
    Final optimized geometry and variables:
    Molecular point group: c1

    Geometry (in Angstrom), charge = 0, multiplicity = 1:

    H           -1.064530552392    -0.902156725353    -0.273290513059
    N           -0.715186423301     0.012936694830    -0.078532191103
    C            0.736556195565     0.023553470823     0.037806176504
    H           -1.162171181004     0.348229361676     0.749495646809
    H            1.160330166190    -0.837607772202    -0.465287324337
    H            1.144199533069     0.910292942021    -0.437331092741
    H            1.089174270136     0.021048082573     1.067415387034

  Mulliken Charges: (a.u.)
   Center  Symbol    Alpha    Beta     Spin     Total
       1     H     0.33109  0.33109  0.00000  0.33783
       2     N     3.92536  3.92536  0.00000 -0.85071
       3     C     3.14469  3.14469  0.00000 -0.28938
       4     H     0.33101  0.33101  0.00000  0.33797
       5     H     0.42145  0.42145  0.00000  0.15710
       6     H     0.41710  0.41710  0.00000  0.16580
       7     H     0.42930  0.42930  0.00000  0.14139

   Total alpha =  9.00000, Total beta =  9.00000, Total charge =  0.00000
