  ==> Input File <==

--------------------------------------------------------------------------
set {
	reference rhf
	basis cc-pvtz
}

set_num_threads( 4 )
memory 2 gb

molecule MOL {
0 1

H	 -2.152804	 1.417074	 1.174948
C	 -2.357575	 0.391373	 0.898856
C	 -1.089495	 -0.447327	 0.935868
H	 -2.787884	 0.400866	 -0.093595
H	 -3.092698	 -0.008367	 1.587118
C	 0.000000	 0.039916	 0.000014
H	 -1.303191	 -1.482096	 0.681927
H	 -0.673622	 -0.474765	 1.939456
C	 1.286532	 -0.763243	 0.000268
O	 -0.145692	 0.993918	 -0.692108
C	 2.547023	 0.087626	 -0.000114
H	 1.264245	 -1.421103	 -0.864380
H	 1.264290	 -1.420353	 0.865489
H	 2.584452	 0.725630	 -0.872909
H	 3.427035	 -0.544422	 0.000125
H	 2.584484	 0.726356	 0.872143

	symmetry c1
}
set optking {
	frozen_dihedral = ("
		3 6 9 12
	")
}

ee = optimize('scf')
oeprop('DIPOLE', 'QUADRUPOLE', 'MULLIKEN_CHARGES')
f=open( 'psi4out.xyz', 'w' )
f.write( "16  " )
f.write( str(ee) + "\n" )
f.write( MOL.save_string_xyz() )
f.close()
--------------------------------------------------------------------------

    Molecular point group: c1
  Charge       = 0
  Multiplicity = 1
  Basis Set: CC-PVTZ
  Basis Set:
  @DF-RHF Final Energy:  -270.13007092476289
    Total Energy =                       -270.1300709247630039
    Molecular point group: c1
  Basis Set: CC-PVTZ
  Basis Set:
  Basis Set: CC-PVTZ
  Basis Set:
  @DF-RHF Final Energy:  -270.13056432908712
    Total Energy =                       -270.1305643290870648
  Basis Set: CC-PVTZ
  Basis Set:
  Basis Set: CC-PVTZ
  Basis Set:
  @DF-RHF Final Energy:  -270.12925165689728
    Total Energy =                       -270.1292516568971678
  Basis Set: CC-PVTZ
  Basis Set:
  Basis Set: CC-PVTZ
  Basis Set:
  @DF-RHF Final Energy:  -270.13063333731338
    Total Energy =                       -270.1306333373130997
  Basis Set: CC-PVTZ
  Basis Set:
  Basis Set: CC-PVTZ
  Basis Set:
  @DF-RHF Final Energy:  -270.13064344932945
    Total Energy =                       -270.1306434493294546
  Basis Set: CC-PVTZ
  Basis Set:
  Charge       = 0
  Multiplicity = 1
  Basis Set: CC-PVTZ
  Basis Set:

    Orbital Energies (a.u.)
    -----------------------

    Doubly Occupied:

       1A    -20.537717     2A    -11.318066     3A    -11.233007
       4A    -11.231372     5A    -11.215617     6A    -11.211893
       7A     -1.398598     8A     -1.069541     9A     -1.037655
      10A     -0.915974    11A     -0.849105    12A     -0.726335
      13A     -0.668552    14A     -0.644771    15A     -0.623870
      16A     -0.605522    17A     -0.563367    18A     -0.534795
      19A     -0.527654    20A     -0.512119    21A     -0.502914
      22A     -0.496788    23A     -0.481979    24A     -0.399252

  @DF-RHF Final Energy:  -270.13064370817040

   => Energetics <=

    Nuclear Repulsion Energy =            240.3498735517138982
    One-Electron Energy =                -842.3481072920187671
    Two-Electron Energy =                 331.8675900321346148
    DFT Exchange-Correlation Energy =       0.0000000000000000
    Empirical Dispersion Energy =           0.0000000000000000
    PCM Polarization Energy =               0.0000000000000000
    EFP Energy =                            0.0000000000000000
    Total Energy =                       -270.1306437081702256
    Molecular point group: c1
  Basis Set: CC-PVTZ
  Basis Set:

  -Total Gradient:
     Atom            X                  Y                   Z
    ------   -----------------  -----------------  -----------------
       1        0.000007589196    -0.000004686895     0.000002776433
       2       -0.000016259294    -0.000016455758    -0.000027163292
       3        0.000391181222     0.000557835676     0.000781541437
       4       -0.000002439030     0.000004980083     0.000003157726
       5       -0.000002194572     0.000002706323     0.000002694040
       6       -0.000416329646    -0.000581868611    -0.001216001516
       7        0.000003848442     0.000010867920    -0.000016881985
       8       -0.000006865587    -0.000010757548    -0.000000731315
       9       -0.000522068477    -0.000855090749     0.001109887545
      10       -0.000019273855     0.000000900249     0.000011188534
      11        0.000001036577     0.000000808252    -0.000006261024
      12        0.000587757174     0.000906812646    -0.000635884568
      13        0.000000206425    -0.000005418882    -0.000005467363
      14        0.000000298451     0.000004466033    -0.000003505168
      15        0.000002795849    -0.000006278706     0.000003110113
      16       -0.000009282876    -0.000008820033    -0.000002459595

  **** Optimization is complete! (in 6 steps) ****
    Final optimized geometry and variables:
    Molecular point group: c1

    Geometry (in Angstrom), charge = 0, multiplicity = 1:

    H           -2.255483787836     1.341710273263     0.904280792275
    C           -2.428229725344     0.303955470933     0.653445698293
    C           -1.142272739868    -0.500581090725     0.751045028559
    H           -2.829249881187     0.274061626079    -0.351193457896
    H           -3.174194427122    -0.093698897111     1.331152436741
    C           -0.032255159142    -0.011477654191    -0.154100673270
    H           -1.316889937870    -1.549455072028     0.524104137754
    H           -0.750673516468    -0.487279083283     1.765710454959
    C            1.236432796771    -0.846944674123    -0.188793899909
    O           -0.139800122643     0.972045364836    -0.811421761970
    C            2.504524482386    -0.000127829638    -0.232786826313
    H            1.174677319628    -1.452698949909    -1.089323936397
    H            1.255187927908    -1.531707183226     0.650590007554
    H            2.483870813182     0.673202674018    -1.077410751490
    H            3.379393121556    -0.633382499269    -0.315392299033
    H            2.606572151111     0.595978992352     0.666844139945

  Mulliken Charges: (a.u.)
   Center  Symbol    Alpha    Beta     Spin     Total
       1     H     0.44661  0.44661  0.00000  0.10678
       2     C     3.14119  3.14119  0.00000 -0.28237
       3     C     3.10145  3.10145  0.00000 -0.20289
       4     H     0.44889  0.44889  0.00000  0.10221
       5     H     0.45077  0.45077  0.00000  0.09847
       6     C     2.86916  2.86916  0.00000  0.26167
       7     H     0.44522  0.44522  0.00000  0.10957
       8     H     0.44585  0.44585  0.00000  0.10830
       9     C     3.09584  3.09584  0.00000 -0.19168
      10     O     4.17555  4.17555  0.00000 -0.35111
      11     C     3.14356  3.14356  0.00000 -0.28711
      12     H     0.44525  0.44525  0.00000  0.10950
      13     H     0.44587  0.44587  0.00000  0.10827
      14     H     0.44026  0.44026  0.00000  0.11948
      15     H     0.44971  0.44971  0.00000  0.10058
      16     H     0.45483  0.45483  0.00000  0.09033

   Total alpha = 24.00000, Total beta = 24.00000, Total charge = -0.00000
