                              Psi4 1.0.54 Driver

  ==> Input File <==

--------------------------------------------------------------------------
set {
	reference rhf
	basis cc-pvtz
}

set_num_threads( 4 )
memory 2 gb

molecule MOL {
0 1

H	 2.308255	 -0.852004	 0.665069
C	 1.562534	 -0.087006	 0.801121
O	 0.462329	 -0.453336	 -0.000137
H	 1.970568	 0.866599	 0.490695
H	 1.285564	 -0.042322	 1.846840
C	 -0.590565	 0.341382	 0.000062
O	 -1.693898	 -0.053880	 0.000252
H	 -0.340426	 1.403822	 0.000200

	symmetry c1
}
set optking {
	frozen_dihedral = ("
		2 3 6 7
	")
}

ee,wfn = optimize('scf', return_wfn=True)
oeprop( wfn, 'DIPOLE', 'QUADRUPOLE', 'MULLIKEN_CHARGES')
f=open( 'psi4out.xyz', 'w' )
f.write( "8  " )
f.write( str(ee) + "\n" )
f.write( MOL.save_string_xyz() )
f.close()
--------------------------------------------------------------------------

    Molecular point group: c1
  Charge       = 0
  Multiplicity = 1
  Basis Set: CC-PVTZ
  Basis Set:
  @DF-RHF Final Energy:  -227.86578962738272
    Total Energy =                       -227.8657896273826964
    Molecular point group: c1
  Basis Set: CC-PVTZ
  Basis Set:
  Basis Set: CC-PVTZ
  Basis Set:
  @DF-RHF Final Energy:  -227.86578633510771
    Total Energy =                       -227.8657863351077708
  Basis Set: CC-PVTZ
  Basis Set:
  Basis Set: CC-PVTZ
  Basis Set:
  @DF-RHF Final Energy:  -227.86552001901322
    Total Energy =                       -227.8655200190131893
  Basis Set: CC-PVTZ
  Basis Set:
  Basis Set: CC-PVTZ
  Basis Set:
  @DF-RHF Final Energy:  -227.86612623531073
    Total Energy =                       -227.8661262353108441
  Basis Set: CC-PVTZ
  Basis Set:
  Basis Set: CC-PVTZ
  Basis Set:
  @DF-RHF Final Energy:  -227.86613985910600
    Total Energy =                       -227.8661398591059140
  Basis Set: CC-PVTZ
  Basis Set:
  Basis Set: CC-PVTZ
  Basis Set:
  @DF-RHF Final Energy:  -227.86614211711651
    Total Energy =                       -227.8661421171164250
  Basis Set: CC-PVTZ
  Basis Set:
  Charge       = 0
  Multiplicity = 1
  Basis Set: CC-PVTZ
  Basis Set:

    Orbital Energies (a.u.)
    -----------------------

    Doubly Occupied:

       1A    -20.603886     2A    -20.553205     3A    -11.375320
       4A    -11.301465     5A     -1.477763     6A     -1.387689
       7A     -0.991457     8A     -0.847023     9A     -0.740649
      10A     -0.688979    11A     -0.682320    12A     -0.616024
      13A     -0.571240    14A     -0.531779    15A     -0.470910
      16A     -0.458874

  @DF-RHF Final Energy:  -227.86614221989373

   => Energetics <=

    Nuclear Repulsion Energy =            121.6067391915943432
    One-Electron Energy =                -552.3486010534327306
    Two-Electron Energy =                 202.8757196419446700
    DFT Exchange-Correlation Energy =       0.0000000000000000
    Empirical Dispersion Energy =           0.0000000000000000
    PCM Polarization Energy =               0.0000000000000000
    EFP Energy =                            0.0000000000000000
    Total Energy =                       -227.8661422198937316
    Molecular point group: c1
  Basis Set: CC-PVTZ
  Basis Set:

  -Total Gradient:
     Atom            X                  Y                   Z
    ------   -----------------  -----------------  -----------------
       1       -0.000004307975     0.000011123022     0.000008332412
       2       -0.001759274122    -0.001739569708     0.003762470531
       3        0.002723981542     0.002962387136    -0.002763468810
       4       -0.000010632481    -0.000015977875     0.000001507284
       5       -0.000005645286     0.000001042394    -0.000017857854
       6       -0.001034141754    -0.001975113930    -0.006726379730
       7        0.000099052129     0.000785551166     0.005737012480
       8       -0.000009032055    -0.000029442205    -0.000001616314

  **** Optimization is complete! (in 7 steps) ****
    Final optimized geometry and variables:
    Molecular point group: c1

    Geometry (in Angstrom), charge = 0, multiplicity = 1:

    H            2.418482289797    -0.697431243412     0.343023488392
    C            1.609987415393    -0.026656952425     0.581580654144
    O            0.490023405755    -0.450054414306    -0.160266715078
    H            1.897987053057     0.985144304284     0.317641380982
    H            1.398864886420    -0.077100037852     1.641551853298
    C           -0.526311036816     0.395393729104    -0.259437948200
    O           -1.649617868599     0.069835251985    -0.201925646392
    H           -0.214877595247     1.433255371961    -0.389659120990

  Mulliken Charges: (a.u.)
   Center  Symbol    Alpha    Beta     Spin     Total
       1     H     0.44207  0.44207  0.00000  0.11585
       2     C     3.02811  3.02811  0.00000 -0.05622
       3     O     4.13061  4.13061  0.00000 -0.26121
       4     H     0.46528  0.46528  0.00000  0.06943
       5     H     0.45583  0.45583  0.00000  0.08834
       6     C     2.83419  2.83419  0.00000  0.33163
       7     O     4.16796  4.16796  0.00000 -0.33593
       8     H     0.47595  0.47595  0.00000  0.04811

   Total alpha = 16.00000, Total beta = 16.00000, Total charge =  0.00000

*** Psi4 exiting successfully. Buy a developer a beer!
