  ==> Input File <==

--------------------------------------------------------------------------
set {
	reference rhf
	basis cc-pvtz
}

set_num_threads( 4 )
memory 2 gb

molecule MOL {
0 1

H	 -3.642953	 0.223825	 0.000000
C	 -2.571844	 0.155001	 0.000000
C	 -1.957580	 -1.086132	 0.000000
C	 -1.807160	 1.303787	 0.000000
H	 -2.551493	 -1.979629	 0.000000
C	 -0.582719	 -1.174294	 0.000000
H	 -2.279934	 2.266806	 0.000000
C	 -0.427220	 1.213406	 0.000000
H	 -0.094904	 -2.127556	 0.000000
C	 0.196908	 -0.024061	 0.000000
H	 0.151409	 2.115254	 0.000000
C	 1.690041	 -0.173233	 0.000000
C	 2.336403	 -1.091219	 -1.012017
O	 2.356597	 0.422265	 0.785141
H	 1.974393	 -2.105841	 -0.895953
H	 3.403889	 -1.070595	 -0.861092
H	 2.107747	 -0.771038	 -2.021561

	symmetry c1
}
set optking {
	frozen_dihedral = ("
		13 12 10 8
	")
}

ee = optimize('scf')
oeprop('DIPOLE', 'QUADRUPOLE', 'MULLIKEN_CHARGES')
f=open( 'psi4out.xyz', 'w' )
f.write( "17  " )
f.write( str(ee) + "\n" )
f.write( MOL.save_string_xyz() )
f.close()
--------------------------------------------------------------------------

    Molecular point group: c1
  Charge       = 0
  Multiplicity = 1
  Basis Set: CC-PVTZ
  Basis Set:
  @DF-RHF Final Energy:  -382.59989700733126
    Total Energy =                       -382.5998970073310375
    Molecular point group: c1
  Basis Set: CC-PVTZ
  Basis Set:
  Basis Set: CC-PVTZ
  Basis Set:
  @DF-RHF Final Energy:  -382.59950203442702
    Total Energy =                       -382.5995020344271325
  Basis Set: CC-PVTZ
  Basis Set:
  Basis Set: CC-PVTZ
  Basis Set:
  @DF-RHF Final Energy:  -382.60079165372599
    Total Energy =                       -382.6007916537256506
  Basis Set: CC-PVTZ
  Basis Set:
  Basis Set: CC-PVTZ
  Basis Set:
  @DF-RHF Final Energy:  -382.60146822685010
    Total Energy =                       -382.6014682268502156
  Basis Set: CC-PVTZ
  Basis Set:
  Basis Set: CC-PVTZ
  Basis Set:
  @DF-RHF Final Energy:  -382.60147842156005
    Total Energy =                       -382.6014784215599320
  Basis Set: CC-PVTZ
  Basis Set:
  Basis Set: CC-PVTZ
  Basis Set:
  @DF-RHF Final Energy:  -382.60148230624128
    Total Energy =                       -382.6014823062416781
  Basis Set: CC-PVTZ
  Basis Set:
  Basis Set: CC-PVTZ
  Basis Set:
  @DF-RHF Final Energy:  -382.60148345414297
    Total Energy =                       -382.6014834541429082
  Basis Set: CC-PVTZ
  Basis Set:
  Charge       = 0
  Multiplicity = 1
  Basis Set: CC-PVTZ
  Basis Set:

    Orbital Energies (a.u.)
    -----------------------

    Doubly Occupied:

       1A    -20.543877     2A    -11.328974     3A    -11.245607
       4A    -11.244347     5A    -11.241479     6A    -11.240342
       7A    -11.239409     8A    -11.237826     9A    -11.230290
      10A     -1.404409    11A     -1.171500    12A     -1.053923
      13A     -1.030594    14A     -1.000156    15A     -0.863824
      16A     -0.840701    17A     -0.764709    18A     -0.709513
      19A     -0.662976    20A     -0.650961    21A     -0.627717
      22A     -0.621488    23A     -0.603479    24A     -0.592786
      25A     -0.560985    26A     -0.529929    27A     -0.518551
      28A     -0.506721    29A     -0.496483    30A     -0.414191
      31A     -0.349678    32A     -0.347369

  @DF-RHF Final Energy:  -382.60148377556442

   => Energetics <=

    Nuclear Repulsion Energy =            404.1292106255752401
    One-Electron Energy =               -1319.7118010755100386
    Two-Electron Energy =                 532.9811066743704941
    DFT Exchange-Correlation Energy =       0.0000000000000000
    Empirical Dispersion Energy =           0.0000000000000000
    PCM Polarization Energy =               0.0000000000000000
    EFP Energy =                            0.0000000000000000
    Total Energy =                       -382.6014837755642475
    Molecular point group: c1
  Basis Set: CC-PVTZ
  Basis Set:

  -Total Gradient:
     Atom            X                  Y                   Z
    ------   -----------------  -----------------  -----------------
       1        0.000001175611     0.000006195567    -0.000000918775
       2       -0.000016154471    -0.000098403970     0.000018634906
       3       -0.000080405813     0.000050523542    -0.000023125385
       4        0.000098885731     0.000035884424     0.000000162603
       5        0.000003783692    -0.000003105167     0.000001913484
       6        0.000085295219     0.000037985210    -0.000026525197
       7       -0.000005369315    -0.000000799148    -0.000003656709
       8       -0.000121483507    -0.000005079828    -0.003630709175
       9       -0.000005685848    -0.000007276094    -0.000017976195
      10        0.000092255020     0.001167846134     0.004304638593
      11        0.000005368134    -0.000000542583    -0.000012479119
      12       -0.000156072849    -0.003645165392     0.001525635665
      13        0.000101470145     0.002475809572    -0.002145448547
      14       -0.000003414322    -0.000009140769     0.000002830811
      15        0.000004287444    -0.000000930417     0.000002992448
      16        0.000000900038    -0.000000004409     0.000005271283
      17       -0.000004834908    -0.000003796670    -0.000001240689

  **** Optimization is complete! (in 8 steps) ****
    Final optimized geometry and variables:
    Molecular point group: c1

    Geometry (in Angstrom), charge = 0, multiplicity = 1:

    H           -3.631536264897     0.305117606326     0.003982113465
    C           -2.562388123374     0.213295928386     0.018016707252
    C           -1.976227059324    -1.037233982649     0.030695407893
    C           -1.769889270769     1.346995154831     0.021142698401
    H           -2.587636813516    -1.918985392571     0.031758352805
    C           -0.598997825103    -1.155153552674     0.033496488456
    H           -2.222638172573     2.319671326325     0.005196527685
    C           -0.395261739123     1.229306969077     0.049951385271
    H           -0.155573028945    -2.132166386358     0.032816861026
    C            0.199089164411    -0.023446494367     0.062021366428
    H            0.224850517700     2.103689666616     0.071399394367
    C            1.699476559203    -0.102795319021     0.047100913826
    C            2.346377859923    -1.012657399651    -0.970210370406
    O            2.349507550289     0.596327979587     0.754010966702
    H            2.013866926517    -2.037065390434    -0.857336472089
    H            3.418912506099    -0.964626861365    -0.862117541204
    H            2.060308565927    -0.689997845172    -1.964920913003

  Mulliken Charges: (a.u.)
   Center  Symbol    Alpha    Beta     Spin     Total
       1     H     0.42088  0.42088  0.00000  0.15824
       2     C     3.07958  3.07958  0.00000 -0.15917
       3     C     3.06882  3.06882  0.00000 -0.13765
       4     C     3.06763  3.06763  0.00000 -0.13525
       5     H     0.42170  0.42170  0.00000  0.15659
       6     C     3.09331  3.09331  0.00000 -0.18663
       7     H     0.42096  0.42096  0.00000  0.15808
       8     C     3.08781  3.08781  0.00000 -0.17561
       9     H     0.42343  0.42343  0.00000  0.15314
      10     C     2.97494  2.97494  0.00000  0.05012
      11     H     0.41351  0.41351  0.00000  0.17299
      12     C     2.86839  2.86839  0.00000  0.26322
      13     C     3.15369  3.15369  0.00000 -0.30737
      14     O     4.17266  4.17266  0.00000 -0.34531
      15     H     0.45140  0.45140  0.00000  0.09720
      16     H     0.43538  0.43538  0.00000  0.12924
      17     H     0.44592  0.44592  0.00000  0.10816

   Total alpha = 32.00000, Total beta = 32.00000, Total charge = -0.00000
