  ==> Input File <==

--------------------------------------------------------------------------
set {
	reference rhf
	basis 6-31G*
}

set_num_threads( 4 )
memory 2 gb

molecule MOL {
0 1

H	 -3.382080	 -0.481376	 -1.519611
O	 -3.452007	 0.283848	 -0.965577
C	 -3.181085	 -0.079926	 0.364119
C	 -1.765924	 0.277073	 0.805136
H	 -3.327791	 -1.152017	 0.410903
H	 -3.905698	 0.375695	 1.036898
C	 -0.677594	 -0.417312	 -0.014550
H	 -1.637766	 1.358238	 0.744969
H	 -1.659588	 0.017670	 1.857098
C	 0.738335	 -0.034840	 0.421385
H	 -0.814977	 -0.178223	 -1.064632
H	 -0.802730	 -1.495410	 0.071702
C	 1.822265	 -0.738362	 -0.399735
H	 0.853533	 1.043532	 0.342250
H	 0.871597	 -0.279636	 1.474438
C	 3.258060	 -0.455774	 0.057203
H	 1.718003	 -0.459167	 -1.447053
H	 1.651028	 -1.811884	 -0.354513
C	 3.709143	 0.994797	 -0.123830
H	 3.930637	 -1.101717	 -0.501982
H	 3.365259	 -0.739518	 1.102287
H	 3.601178	 1.310569	 -1.158127
H	 4.753787	 1.110486	 0.148516
H	 3.135362	 1.678896	 0.492569

	symmetry c1
}
set optking {
	frozen_dihedral = ("
		1 2 3 5
	")
}

ee = optimize('scf')
oeprop('DIPOLE', 'QUADRUPOLE', 'MULLIKEN_CHARGES')
f=open( 'psi4out.xyz', 'w' )
f.write( "24  " )
f.write( str(ee) + "\n" )
f.write( MOL.save_string_xyz() )
f.close()
--------------------------------------------------------------------------

    Molecular point group: c1
  Charge       = 0
  Multiplicity = 1
  Basis Set: 6-31G*
  Basis Set:
  @DF-RHF Final Energy:  -349.24483815346281
    Total Energy =                       -349.2448381534625810
    Molecular point group: c1
  Basis Set: 6-31G*
  Basis Set:
  Basis Set: 6-31G*
  Basis Set:
  @DF-RHF Final Energy:  -349.24594477777759
    Total Energy =                       -349.2459447777774244
  Basis Set: 6-31G*
  Basis Set:
  Basis Set: 6-31G*
  Basis Set:
  @DF-RHF Final Energy:  -349.24634376464076
    Total Energy =                       -349.2463437646407556
  Basis Set: 6-31G*
  Basis Set:
  Basis Set: 6-31G*
  Basis Set:
  @DF-RHF Final Energy:  -349.24634726231949
    Total Energy =                       -349.2463472623198300
  Basis Set: 6-31G*
  Basis Set:
  Basis Set: 6-31G*
  Basis Set:
  @DF-RHF Final Energy:  -349.24635069531496
    Total Energy =                       -349.2463506953146748
  Basis Set: 6-31G*
  Basis Set:
  Charge       = 0
  Multiplicity = 1
  Basis Set: 6-31G*
  Basis Set:

    Orbital Energies (a.u.)
    -----------------------

    Doubly Occupied:

       1A    -20.552069     2A    -11.267954     3A    -11.214616
       4A    -11.214048     5A    -11.213049     6A    -11.212462
       7A    -11.211995     8A    -11.207172     9A     -1.358273
      10A     -1.089055    11A     -1.048151    12A     -0.986052
      13A     -0.916131    14A     -0.848945    15A     -0.792482
      16A     -0.777141    17A     -0.702160    18A     -0.645777
      19A     -0.628848    20A     -0.607825    21A     -0.598357
      22A     -0.579954    23A     -0.560709    24A     -0.537621
      25A     -0.515395    26A     -0.510291    27A     -0.496075
      28A     -0.474029    29A     -0.470350    30A     -0.459325
      31A     -0.456480    32A     -0.450013    33A     -0.418121

  @DF-RHF Final Energy:  -349.24635123469557

   => Energetics <=

    Nuclear Repulsion Energy =            384.4864770308413426
    One-Electron Energy =               -1235.4238070681226418
    Two-Electron Energy =                 501.6909788025857324
    DFT Exchange-Correlation Energy =       0.0000000000000000
    Empirical Dispersion Energy =           0.0000000000000000
    PCM Polarization Energy =               0.0000000000000000
    EFP Energy =                            0.0000000000000000
    Total Energy =                       -349.2463512346955667
    Molecular point group: c1
  Basis Set: 6-31G*
  Basis Set:

  -Total Gradient:
     Atom            X                  Y                   Z
    ------   -----------------  -----------------  -----------------
       1       -0.001074853805    -0.000210720454     0.000179568059
       2        0.001562122566     0.000210326951    -0.000271850367
       3       -0.001414821715     0.000110834271     0.000300827875
       4       -0.000018191356     0.000004824722     0.000047430270
       5        0.000916327569    -0.000138491628    -0.000256942038
       6        0.000022069484     0.000006715358     0.000013854619
       7       -0.000019749625    -0.000013230997    -0.000016899229
       8       -0.000000852566     0.000007073953     0.000002483614
       9        0.000016683118     0.000014450978    -0.000001861422
      10       -0.000007255343    -0.000006476815     0.000011441692
      11        0.000010338981    -0.000002349547     0.000003861840
      12       -0.000001758434     0.000012576094    -0.000007513107
      13        0.000002700071     0.000009027999    -0.000006557191
      14       -0.000009064741    -0.000013538993    -0.000004169991
      15       -0.000000963844     0.000003990675     0.000007661305
      16       -0.000005269062     0.000002762474     0.000010359083
      17       -0.000001467622     0.000007418957     0.000001282423
      18        0.000009663456    -0.000000445649    -0.000008183285
      19        0.000008499932    -0.000000399588    -0.000005695251
      20        0.000000186028    -0.000007425239     0.000005438945
      21       -0.000006295739     0.000007878293     0.000003200906
      22       -0.000003407555     0.000003903868    -0.000002666558
      23        0.000000970363    -0.000003024420    -0.000004944434
      24        0.000014389843    -0.000005681265    -0.000000127757

  **** Optimization is complete! (in 6 steps) ****
    Final optimized geometry and variables:
    Molecular point group: c1

    Geometry (in Angstrom), charge = 0, multiplicity = 1:

    H           -3.406298606641    -0.419639676918    -1.532959660632
    O           -3.456163458632     0.319662026181    -0.946904907326
    C           -3.180340173586    -0.088388401235     0.372674185580
    C           -1.767598143257     0.290991556090     0.797219054590
    H           -3.321738042390    -1.162092171363     0.478155368443
    H           -3.902538915547     0.399003104191     1.017346839435
    C           -0.676736045203    -0.408479222205    -0.014405337168
    H           -1.659798319198     1.368412927543     0.702778478513
    H           -1.650803758502     0.052773994257     1.853501125163
    C            0.738576482341    -0.025888368649     0.423412821552
    H           -0.804946925580    -0.163922709855    -1.065516424704
    H           -0.798771446033    -1.488200123495     0.072207305262
    C            1.825157624759    -0.723827131422    -0.398882202567
    H            0.849583090208     1.052617764097     0.347976276605
    H            0.870007472324    -0.274706829160     1.475594436043
    C            3.259615205697    -0.438957661306     0.060905194212
    H            1.721885565936    -0.440698105501    -1.445301496956
    H            1.657218612696    -1.798306241911    -0.357762131480
    C            3.707835585268     1.012730773460    -0.117924111697
    H            3.934444242765    -1.083140012562    -0.497591488635
    H            3.365158228975    -0.723545222838     1.105917026027
    H            3.600713659776     1.329481904226    -1.151954233911
    H            4.751852717851     1.130046811173     0.156078994811
    H            3.131702884446     1.694893194732     0.498233714577

  Mulliken Charges: (a.u.)
   Center  Symbol    Alpha    Beta     Spin     Total
       1     H     0.27941  0.27941  0.00000  0.44118
       2     O     4.37140  4.37140  0.00000 -0.74281
       3     C     3.00071  3.00071  0.00000 -0.00142
       4     C     3.15665  3.15665  0.00000 -0.31329
       5     H     0.43195  0.43195  0.00000  0.13610
       6     H     0.41700  0.41700  0.00000  0.16600
       7     C     3.15818  3.15818  0.00000 -0.31635
       8     H     0.41539  0.41539  0.00000  0.16923
       9     H     0.42592  0.42592  0.00000  0.14816
      10     C     3.15295  3.15295  0.00000 -0.30590
      11     H     0.41770  0.41770  0.00000  0.16459
      12     H     0.42841  0.42841  0.00000  0.14319
      13     C     3.15238  3.15238  0.00000 -0.30476
      14     H     0.41981  0.41981  0.00000  0.16038
      15     H     0.42489  0.42489  0.00000  0.15022
      16     C     3.15229  3.15229  0.00000 -0.30458
      17     H     0.42406  0.42406  0.00000  0.15188
      18     H     0.42346  0.42346  0.00000  0.15308
      19     C     3.24115  3.24115  0.00000 -0.48231
      20     H     0.42136  0.42136  0.00000  0.15728
      21     H     0.42364  0.42364  0.00000  0.15273
      22     H     0.42204  0.42204  0.00000  0.15592
      23     H     0.41952  0.41952  0.00000  0.16095
      24     H     0.41973  0.41973  0.00000  0.16054

   Total alpha = 33.00000, Total beta = 33.00000, Total charge = -0.00000
