                              Psi4 1.0.54 Driver

  ==> Input File <==

--------------------------------------------------------------------------
set {
	reference rhf
	basis cc-pvtz
}

set_num_threads( 4 )
memory 2 gb

molecule MOL {
0 1

O	 -2.440701	 -0.934798	 -0.415053
C	 -1.922978	 0.063265	 -0.045005
C	 -2.632749	 1.372204	 0.158357
O	 -0.637375	 0.157174	 0.243149
H	 -2.187724	 2.129143	 -0.474664
H	 -3.677681	 1.257276	 -0.079438
H	 -2.516788	 1.693160	 1.185542
C	 0.162530	 -1.009518	 0.097799
C	 1.587210	 -0.664190	 0.477086
H	 0.096803	 -1.356267	 -0.924704
H	 -0.233803	 -1.785900	 0.736810
C	 2.057818	 -1.295602	 1.784607
H	 1.647979	 0.418037	 0.553438
H	 2.247587	 -0.956917	 -0.333501
C	 3.485855	 -0.902090	 2.147200
H	 1.386710	 -0.997763	 2.585859
H	 1.987386	 -2.374546	 1.708700
H	 3.792656	 -1.360108	 3.080195
H	 3.581365	 0.172916	 2.259591
H	 4.184925	 -1.216425	 1.379403

	symmetry c1
}
set optking {
	frozen_dihedral = ("
		12 9 8 10
	")
}

ee,wfn = optimize('scf', return_wfn=True)
oeprop( wfn, 'DIPOLE', 'QUADRUPOLE', 'MULLIKEN_CHARGES')
f=open( 'psi4out.xyz', 'w' )
f.write( "20  " )
f.write( str(ee) + "\n" )
f.write( MOL.save_string_xyz() )
f.close()
--------------------------------------------------------------------------

    Molecular point group: c1
  Charge       = 0
  Multiplicity = 1
  Basis Set: CC-PVTZ
  Basis Set:
  @DF-RHF Final Energy:  -384.08216889674389
    Total Energy =                       -384.0821688967440650
    Molecular point group: c1
  Basis Set: CC-PVTZ
  Basis Set:
  Basis Set: CC-PVTZ
  Basis Set:
  @DF-RHF Final Energy:  -384.08243277447997
    Total Energy =                       -384.0824327744804805
  Basis Set: CC-PVTZ
  Basis Set:
  Basis Set: CC-PVTZ
  Basis Set:
  @DF-RHF Final Energy:  -384.08199491038408
    Total Energy =                       -384.0819949103838553
  Basis Set: CC-PVTZ
  Basis Set:
  Basis Set: CC-PVTZ
  Basis Set:
  @DF-RHF Final Energy:  -384.08250351037105
    Total Energy =                       -384.0825035103711116
  Basis Set: CC-PVTZ
  Basis Set:
  Basis Set: CC-PVTZ
  Basis Set:
  @DF-RHF Final Energy:  -384.08250785822872
    Total Energy =                       -384.0825078582288370
  Basis Set: CC-PVTZ
  Basis Set:
  Charge       = 0
  Multiplicity = 1
  Basis Set: CC-PVTZ
  Basis Set:

    Orbital Energies (a.u.)
    -----------------------

    Doubly Occupied:

       1A    -20.594468     2A    -20.532429     3A    -11.366202
       4A    -11.279736     5A    -11.231412     6A    -11.222531
       7A    -11.221795     8A    -11.212547     9A     -1.470661
      10A     -1.364763    11A     -1.086175    12A     -1.029939
      13A     -0.980456    14A     -0.882638    15A     -0.808030
      16A     -0.783044    17A     -0.692213    18A     -0.684098
      19A     -0.670766    20A     -0.633446    21A     -0.602109
      22A     -0.593848    23A     -0.571877    24A     -0.555410
      25A     -0.545597    26A     -0.525725    27A     -0.514540
      28A     -0.481804    29A     -0.480129    30A     -0.477081
      31A     -0.449093    32A     -0.440689

  @DF-RHF Final Energy:  -384.08250808972662

   => Energetics <=

    Nuclear Repulsion Energy =            381.4638063710741562
    One-Electron Energy =               -1279.1221291641531934
    Two-Electron Energy =                 513.5758147033527621
    DFT Exchange-Correlation Energy =       0.0000000000000000
    Empirical Dispersion Energy =           0.0000000000000000
    PCM Polarization Energy =               0.0000000000000000
    EFP Energy =                            0.0000000000000000
    Total Energy =                       -384.0825080897262751
    Molecular point group: c1
  Basis Set: CC-PVTZ
  Basis Set:

  -Total Gradient:
     Atom            X                  Y                   Z
    ------   -----------------  -----------------  -----------------
       1       -0.000026293966    -0.000082857942    -0.000035194652
       2        0.000055359286     0.000065815688     0.000004033274
       3        0.000021836223     0.000000691291     0.000019076924
       4       -0.000058543070     0.000065385429    -0.000029470378
       5        0.000002842152     0.000010063978     0.000000631423
       6       -0.000001543969    -0.000011825626    -0.000001430185
       7       -0.000004995996     0.000022152374     0.000008913601
       8       -0.000272437997     0.002549125464    -0.001376265686
       9       -0.000792768706     0.001569657531     0.001547976078
      10        0.000419830626    -0.002536084238     0.000870293443
      11        0.000047976390     0.000000213721    -0.000023902036
      12        0.000633243680    -0.001593482585    -0.000969473550
      13       -0.000023729005    -0.000033331495    -0.000021798209
      14       -0.000001042536    -0.000029401912    -0.000017797854
      15       -0.000002442835     0.000030093786     0.000029388673
      16       -0.000008164813    -0.000020932048     0.000016001490
      17       -0.000000068173    -0.000022463355    -0.000019811507
      18       -0.000001428483     0.000008922450     0.000002228812
      19        0.000016702284     0.000019220526     0.000002072703
      20       -0.000004331092    -0.000010963035    -0.000005472369

  **** Optimization is complete! (in 6 steps) ****
    Final optimized geometry and variables:
    Molecular point group: c1

    Geometry (in Angstrom), charge = 0, multiplicity = 1:

    O           -2.390889475277    -0.580180039681    -0.930348196809
    C           -1.882887250702     0.431910073742    -0.585408217437
    C           -2.610524497107     1.731604144277    -0.387293071733
    O           -0.593208483153     0.552622803341    -0.327270284149
    H           -2.191051848817     2.485587787968    -1.040862185630
    H           -3.657993878368     1.595488995342    -0.601694396153
    H           -2.479077040971     2.070380108559     0.632246385677
    C            0.222679746896    -0.603205483492    -0.474021763817
    C            1.659095893057    -0.240114183343    -0.098983813200
    H            0.147237689180    -0.966749152847    -1.488159524776
    H           -0.166775503411    -1.381669701890     0.167167936937
    C            2.120907460501    -0.856001454318     1.219788206214
    H            1.741747539029     0.838965313421    -0.056029158618
    H            2.325549194163    -0.568296546111    -0.890018624547
    C            3.548177953591    -0.467935929950     1.587779753332
    H            1.445463534075    -0.550602624386     2.014184394543
    H            2.045958232452    -1.937668559615     1.153703004482
    H            3.848891938954    -0.923442442739     2.523913598875
    H            3.645521273191     0.607087546040     1.695914658039
    H            4.249803878905    -0.787162112907     0.824187973966

  Mulliken Charges: (a.u.)
   Center  Symbol    Alpha    Beta     Spin     Total
       1     O     4.19715  4.19715  0.00000 -0.39430
       2     C     2.80772  2.80772  0.00000  0.38456
       3     C     3.13766  3.13766  0.00000 -0.27532
       4     O     4.15224  4.15224  0.00000 -0.30449
       5     H     0.44578  0.44578  0.00000  0.10844
       6     H     0.43810  0.43810  0.00000  0.12381
       7     H     0.44611  0.44611  0.00000  0.10778
       8     C     2.98560  2.98560  0.00000  0.02880
       9     C     3.08941  3.08941  0.00000 -0.17883
      10     H     0.44937  0.44937  0.00000  0.10127
      11     H     0.45465  0.45465  0.00000  0.09070
      12     C     3.08786  3.08786  0.00000 -0.17572
      13     H     0.44708  0.44708  0.00000  0.10583
      14     H     0.45002  0.45002  0.00000  0.09995
      15     C     3.15073  3.15073  0.00000 -0.30146
      16     H     0.45157  0.45157  0.00000  0.09685
      17     H     0.45298  0.45298  0.00000  0.09404
      18     H     0.44720  0.44720  0.00000  0.10560
      19     H     0.45399  0.45399  0.00000  0.09202
      20     H     0.45476  0.45476  0.00000  0.09047

   Total alpha = 32.00000, Total beta = 32.00000, Total charge = -0.00000

*** Psi4 exiting successfully. Buy a developer a beer!
