  ==> Input File <==

--------------------------------------------------------------------------
set {
	reference rhf
	basis 6-31G*
}

set_num_threads( 4 )
memory 2 gb

molecule MOL {
0 1

H	 3.528396	 -0.790972	 -0.953033
O	 2.614706	 -1.014229	 -0.804432
C	 2.077727	 -0.067559	 -0.035091
C	 0.624473	 -0.343591	 0.253101
O	 2.706362	 0.862689	 0.352818
C	 -0.265902	 0.883932	 0.072916
H	 0.324016	 -1.163849	 -0.390541
H	 0.565024	 -0.726111	 1.268924
C	 -1.728698	 0.646073	 0.462102
H	 -0.209144	 1.219470	 -0.958188
H	 0.135059	 1.692851	 0.673903
C	 -2.482460	 -0.343073	 -0.431425
H	 -2.245265	 1.602650	 0.432430
H	 -1.779332	 0.308348	 1.496285
C	 -3.960546	 -0.461025	 -0.060175
H	 -2.395034	 -0.026811	 -1.468912
H	 -2.024850	 -1.327147	 -0.371646
H	 -4.472726	 -1.168004	 -0.705284
H	 -4.465146	 0.496508	 -0.151489
H	 -4.081218	 -0.800940	 0.964585

	symmetry c1
}
set optking {
	frozen_dihedral = ("
		5 3 4 7
	")
}

ee = optimize('scf')
oeprop('DIPOLE', 'QUADRUPOLE', 'MULLIKEN_CHARGES')
f=open( 'psi4out.xyz', 'w' )
f.write( "20  " )
f.write( str(ee) + "\n" )
f.write( MOL.save_string_xyz() )
f.close()
--------------------------------------------------------------------------

    Molecular point group: c1
  Charge       = 0
  Multiplicity = 1
  Basis Set: 6-31G*
  Basis Set:
  @DF-RHF Final Energy:  -383.94706031647138
    Total Energy =                       -383.9470603164710951
    Molecular point group: c1
  Basis Set: 6-31G*
  Basis Set:
  Basis Set: 6-31G*
  Basis Set:
  @DF-RHF Final Energy:  -383.94692179131044
    Total Energy =                       -383.9469217913099328
  Basis Set: 6-31G*
  Basis Set:
  Basis Set: 6-31G*
  Basis Set:
  @DF-RHF Final Energy:  -383.94708142515537
    Total Energy =                       -383.9470814251552611
  Basis Set: 6-31G*
  Basis Set:
  Basis Set: 6-31G*
  Basis Set:
  @DF-RHF Final Energy:  -383.94754679032354
    Total Energy =                       -383.9475467903235995
  Basis Set: 6-31G*
  Basis Set:
  Basis Set: 6-31G*
  Basis Set:
  @DF-RHF Final Energy:  -383.94755162774686
    Total Energy =                       -383.9475516277472025
  Basis Set: 6-31G*
  Basis Set:
  Charge       = 0
  Multiplicity = 1
  Basis Set: 6-31G*
  Basis Set:

    Orbital Energies (a.u.)
    -----------------------

    Doubly Occupied:

       1A    -20.614642     2A    -20.549184     3A    -11.381061
       4A    -11.239226     5A    -11.226962     6A    -11.221821
       7A    -11.220917     8A    -11.212914     9A     -1.475165
      10A     -1.364856    11A     -1.097067    12A     -1.040944
      13A     -0.960941    14A     -0.868314    15A     -0.817894
      16A     -0.782452    17A     -0.701641    18A     -0.689102
      19A     -0.649733    20A     -0.640864    21A     -0.608893
      22A     -0.593674    23A     -0.575486    24A     -0.554195
      25A     -0.545240    26A     -0.513088    27A     -0.498829
      28A     -0.477577    29A     -0.472080    30A     -0.466674
      31A     -0.458033    32A     -0.441255

  @DF-RHF Final Energy:  -383.94755213133288

   => Energetics <=

    Nuclear Repulsion Energy =            375.8526778096627936
    One-Electron Energy =               -1267.6790058943315671
    Two-Electron Energy =                 507.8787759533361736
    DFT Exchange-Correlation Energy =       0.0000000000000000
    Empirical Dispersion Energy =           0.0000000000000000
    PCM Polarization Energy =               0.0000000000000000
    EFP Energy =                            0.0000000000000000
    Total Energy =                       -383.9475521313326567
    Molecular point group: c1
  Basis Set: 6-31G*
  Basis Set:

  -Total Gradient:
     Atom            X                  Y                   Z
    ------   -----------------  -----------------  -----------------
       1        0.000001198476    -0.000001401990     0.000006828613
       2        0.000003399537    -0.000019615638    -0.000024226000
       3       -0.000339356223     0.000771275283    -0.001122400461
       4       -0.000227045340     0.000642134207    -0.000554682162
       5        0.000270717099    -0.000638623114     0.000918605741
       6        0.000009188951     0.000011884589    -0.000009917822
       7        0.000297007995    -0.000717877008     0.000779827939
       8       -0.000001010158    -0.000021732547     0.000000493879
       9       -0.000004695808    -0.000012033010     0.000026824709
      10       -0.000008056877    -0.000004211842    -0.000008992746
      11        0.000013443397    -0.000015360143    -0.000005819681
      12       -0.000008014549    -0.000003614807     0.000006574818
      13        0.000003663509    -0.000002901161    -0.000010097876
      14       -0.000005482316     0.000007756066     0.000004364078
      15        0.000001338075    -0.000005795065    -0.000003410550
      16       -0.000002812716     0.000001489514    -0.000003358643
      17       -0.000003785226     0.000007130627     0.000000210024
      18       -0.000001468906     0.000001059893     0.000000008805
      19        0.000000846027     0.000000413259    -0.000000107302
      20        0.000000925049     0.000000022887    -0.000000725364

  **** Optimization is complete! (in 6 steps) ****
    Final optimized geometry and variables:
    Molecular point group: c1

    Geometry (in Angstrom), charge = 0, multiplicity = 1:

    H            3.611314697069    -0.752845623673    -0.824037943607
    O            2.694082298841    -0.997265705657    -0.744289126873
    C            2.085038624399    -0.074198805516    -0.004041305751
    C            0.626736212280    -0.382303169839     0.231064278646
    O            2.664933601581     0.866382480686     0.434514278033
    C           -0.256688656103     0.860051798654     0.077125342207
    H            0.326727192066    -1.189593728716    -0.422614398520
    H            0.557706133833    -0.755342787944     1.250726963203
    C           -1.715576683983     0.635453167160     0.486309890771
    H           -0.218111734866     1.202427749576    -0.954603183539
    H            0.167213150913     1.653036797668     0.681842005361
    C           -2.490543597519    -0.347112499147    -0.395944002365
    H           -2.223306864009     1.597015272459     0.464650890914
    H           -1.751694167209     0.298166027614     1.521052721551
    C           -3.963475013357    -0.453996617415    -0.001720606470
    H           -2.416904757693    -0.031017179651    -1.434599273246
    H           -2.038825613815    -1.334188667679    -0.343802339039
    H           -4.490883412217    -1.156636951681    -0.639204091450
    H           -4.462267438985     0.507364365719    -0.084551862041
    H           -4.070757431624    -0.793735115172     1.024566091598

  Mulliken Charges: (a.u.)
   Center  Symbol    Alpha    Beta     Spin     Total
       1     H     0.26833  0.26833  0.00000  0.46335
       2     O     4.34906  4.34906  0.00000 -0.69811
       3     C     2.62226  2.62226  0.00000  0.75549
       4     C     3.21276  3.21276  0.00000 -0.42552
       5     O     4.28026  4.28026  0.00000 -0.56052
       6     C     3.16191  3.16191  0.00000 -0.32381
       7     H     0.39670  0.39670  0.00000  0.20661
       8     H     0.39913  0.39913  0.00000  0.20173
       9     C     3.15500  3.15500  0.00000 -0.30999
      10     H     0.41686  0.41686  0.00000  0.16629
      11     H     0.39981  0.39981  0.00000  0.20037
      12     C     3.15470  3.15470  0.00000 -0.30939
      13     H     0.41782  0.41782  0.00000  0.16436
      14     H     0.42231  0.42231  0.00000  0.15537
      15     C     3.23939  3.23939  0.00000 -0.47877
      16     H     0.42186  0.42186  0.00000  0.15628
      17     H     0.42188  0.42188  0.00000  0.15623
      18     H     0.41817  0.41817  0.00000  0.16366
      19     H     0.42070  0.42070  0.00000  0.15861
      20     H     0.42111  0.42111  0.00000  0.15779

   Total alpha = 32.00000, Total beta = 32.00000, Total charge = -0.00000
