  ==> Input File <==

--------------------------------------------------------------------------
set {
	reference rhf
	basis 6-31G*
}

set_num_threads( 4 )
memory 2 gb

molecule MOL {
0 1

H	 3.729471	 -0.928294	 -0.070608
O	 2.826016	 -1.159218	 0.122261
C	 2.077727	 -0.067559	 -0.035091
C	 0.624473	 -0.343591	 0.253101
O	 2.542965	 0.974826	 -0.363729
C	 -0.265902	 0.883932	 0.072916
H	 0.324016	 -1.163849	 -0.390541
H	 0.565024	 -0.726111	 1.268924
C	 -1.728698	 0.646073	 0.462102
H	 -0.209144	 1.219470	 -0.958188
H	 0.135059	 1.692851	 0.673903
C	 -2.104131	 1.103284	 1.874535
H	 -1.931083	 -0.419136	 0.377659
H	 -2.381046	 1.134813	 -0.260208
C	 -3.544044	 0.747075	 2.243647
H	 -1.424356	 0.646807	 2.591179
H	 -1.972101	 2.178017	 1.968867
H	 -3.787070	 1.082233	 3.247102
H	 -3.704342	 -0.326537	 2.205051
H	 -4.249859	 1.210636	 1.560147

	symmetry c1
}
set optking {
	frozen_dihedral = ("
		12 9 6 10
	")
}

ee = optimize('scf')
oeprop('DIPOLE', 'QUADRUPOLE', 'MULLIKEN_CHARGES')
f=open( 'psi4out.xyz', 'w' )
f.write( "20  " )
f.write( str(ee) + "\n" )
f.write( MOL.save_string_xyz() )
f.close()
--------------------------------------------------------------------------

    Molecular point group: c1
  Charge       = 0
  Multiplicity = 1
  Basis Set: 6-31G*
  Basis Set:
  @DF-RHF Final Energy:  -383.94578164284803
    Total Energy =                       -383.9457816428476349
    Molecular point group: c1
  Basis Set: 6-31G*
  Basis Set:
  Basis Set: 6-31G*
  Basis Set:
  @DF-RHF Final Energy:  -383.94626445024403
    Total Energy =                       -383.9462644502441435
  Basis Set: 6-31G*
  Basis Set:
  Basis Set: 6-31G*
  Basis Set:
  @DF-RHF Final Energy:  -383.94607031506399
    Total Energy =                       -383.9460703150639347
  Basis Set: 6-31G*
  Basis Set:
  Basis Set: 6-31G*
  Basis Set:
  @DF-RHF Final Energy:  -383.94633172682376
    Total Energy =                       -383.9463317268237006
  Basis Set: 6-31G*
  Basis Set:
  Basis Set: 6-31G*
  Basis Set:
  @DF-RHF Final Energy:  -383.94631040400009
    Total Energy =                       -383.9463104040000871
  Basis Set: 6-31G*
  Basis Set:
  Basis Set: 6-31G*
  Basis Set:
  @DF-RHF Final Energy:  -383.94635149998243
    Total Energy =                       -383.9463514999822564
  Basis Set: 6-31G*
  Basis Set:
  Charge       = 0
  Multiplicity = 1
  Basis Set: 6-31G*
  Basis Set:

    Orbital Energies (a.u.)
    -----------------------

    Doubly Occupied:

       1A    -20.612667     2A    -20.551804     3A    -11.381196
       4A    -11.241060     5A    -11.222417     6A    -11.220218
       7A    -11.219615     8A    -11.211678     9A     -1.474706
      10A     -1.365787    11A     -1.094949    12A     -1.041797
      13A     -0.959309    14A     -0.868774    15A     -0.810055
      16A     -0.785203    17A     -0.699645    18A     -0.689772
      19A     -0.662895    20A     -0.634174    21A     -0.603647
      22A     -0.592891    23A     -0.572172    24A     -0.557810
      25A     -0.541605    26A     -0.504118    27A     -0.499829
      28A     -0.479249    29A     -0.472894    30A     -0.467640
      31A     -0.455587    32A     -0.442501

  @DF-RHF Final Energy:  -383.94635155829832

   => Energetics <=

    Nuclear Repulsion Energy =            374.3439514596402091
    One-Electron Energy =               -1264.7052838318793420
    Two-Electron Energy =                 506.4149808139411562
    DFT Exchange-Correlation Energy =       0.0000000000000000
    Empirical Dispersion Energy =           0.0000000000000000
    PCM Polarization Energy =               0.0000000000000000
    EFP Energy =                            0.0000000000000000
    Total Energy =                       -383.9463515582979198
    Molecular point group: c1
  Basis Set: 6-31G*
  Basis Set:

  -Total Gradient:
     Atom            X                  Y                   Z
    ------   -----------------  -----------------  -----------------
       1       -0.000000203312     0.000001032323     0.000001013634
       2        0.000002102612    -0.000008745272    -0.000001441785
       3       -0.000001534183     0.000008685801    -0.000012069051
       4       -0.000003492726    -0.000007140027    -0.000000774109
       5       -0.000002295449    -0.000004660704     0.000006841385
       6        0.000144319849    -0.003116941769    -0.001640832700
       7       -0.000000263387    -0.000000266925     0.000007684222
       8        0.000005911549     0.000002059474     0.000006040684
       9        0.000797015196    -0.002277370386     0.001445491580
      10       -0.000323322669     0.003217242191     0.001050585895
      11       -0.000003437482    -0.000004300301    -0.000002372502
      12       -0.000614584370     0.002189104647    -0.000852173491
      13        0.000001567530     0.000001265580     0.000004418464
      14       -0.000002204794    -0.000001935162    -0.000009563128
      15       -0.000004214540     0.000005573402    -0.000006142987
      16        0.000001468544     0.000000091328     0.000007743572
      17       -0.000001985778    -0.000004933549    -0.000003612551
      18        0.000001326417     0.000003804599    -0.000001748220
      19        0.000004003203     0.000000525924     0.000002762647
      20       -0.000000176224    -0.000003091174    -0.000001851558

  **** Optimization is complete! (in 7 steps) ****
    Final optimized geometry and variables:
    Molecular point group: c1

    Geometry (in Angstrom), charge = 0, multiplicity = 1:

    H            3.631083507264    -1.249300077088    -0.640843822538
    O            2.728898873422    -1.477291682838    -0.438736108093
    C            1.979220857897    -0.388596531929    -0.608653331415
    C            0.527727291247    -0.659479399906    -0.308377057113
    O            2.441567975522     0.649005718568    -0.956094343583
    C           -0.370465415720     0.557687692604    -0.507066986013
    H            0.215618037341    -1.486781738175    -0.939560482714
    H            0.473187888885    -1.029343978808     0.712119410474
    C           -1.838295664691     0.287450427632    -0.126514698857
    H           -0.300086008609     0.902470788498    -1.532533944322
    H            0.014626910797     1.377762278209     0.090591528541
    C           -2.194930678550     0.739086108362     1.292434787284
    H           -2.067660602015    -0.770106839607    -0.241954727379
    H           -2.490209872486     0.809423593959    -0.822298212199
    C           -3.641890491037     0.427541173469     1.671205282687
    H           -1.525834506990     0.265593857097     2.008872986533
    H           -2.020583319686     1.809024989671     1.375464127215
    H           -3.868972536109     0.773462573840     2.674753861147
    H           -3.835385434655    -0.640950002531     1.637797785418
    H           -4.337277691287     0.909758453866     0.989880680999

  Mulliken Charges: (a.u.)
   Center  Symbol    Alpha    Beta     Spin     Total
       1     H     0.26785  0.26785  0.00000  0.46430
       2     O     4.35148  4.35148  0.00000 -0.70297
       3     C     2.62291  2.62291  0.00000  0.75418
       4     C     3.21174  3.21174  0.00000 -0.42348
       5     O     4.27925  4.27925  0.00000 -0.55850
       6     C     3.15710  3.15710  0.00000 -0.31420
       7     H     0.39814  0.39814  0.00000  0.20372
       8     H     0.39828  0.39828  0.00000  0.20344
       9     C     3.15741  3.15741  0.00000 -0.31482
      10     H     0.40875  0.40875  0.00000  0.18250
      11     H     0.40879  0.40879  0.00000  0.18241
      12     C     3.15285  3.15285  0.00000 -0.30571
      13     H     0.42276  0.42276  0.00000  0.15448
      14     H     0.41782  0.41782  0.00000  0.16436
      15     C     3.24003  3.24003  0.00000 -0.48007
      16     H     0.42431  0.42431  0.00000  0.15139
      17     H     0.41975  0.41975  0.00000  0.16049
      18     H     0.41823  0.41823  0.00000  0.16355
      19     H     0.42162  0.42162  0.00000  0.15676
      20     H     0.42092  0.42092  0.00000  0.15817

   Total alpha = 32.00000, Total beta = 32.00000, Total charge = -0.00000
