                              Psi4 1.0.54 Driver

  ==> Input File <==

--------------------------------------------------------------------------
set {
	reference rhf
	basis cc-pvtz
}

set_num_threads( 4 )
memory 2 gb

molecule MOL {
0 1

O	 -2.071633	 -1.227563	 -0.223463
C	 -1.652164	 -0.152425	 0.058082
C	 -0.327811	 0.006324	 0.778296
C	 -2.402515	 1.108629	 -0.298924
C	 0.708929	 -0.994624	 0.254180
H	 0.045306	 1.018179	 0.659727
H	 -0.504397	 -0.170762	 1.831527
C	 2.052706	 -0.878889	 0.967691
H	 0.856902	 -0.846405	 -0.812510
H	 0.315413	 -1.997924	 0.376242
C	 3.083094	 -1.880928	 0.458398
H	 2.439067	 0.129454	 0.847297
H	 1.903739	 -1.024051	 2.033654
H	 3.279721	 -1.737917	 -0.598920
H	 2.737798	 -2.900007	 0.594843
H	 4.023720	 -1.776681	 0.986372
H	 -3.240910	 0.874416	 -0.936711
H	 -1.747554	 1.818823	 -0.790984
H	 -2.760419	 1.579708	 0.610998

	symmetry c1
}
set optking {
	frozen_dihedral = ("
		5 3 2 4
	")
}

ee,wfn = optimize('scf', return_wfn=True)
oeprop( wfn, 'DIPOLE', 'QUADRUPOLE', 'MULLIKEN_CHARGES')
f=open( 'psi4out.xyz', 'w' )
f.write( "19  " )
f.write( str(ee) + "\n" )
f.write( MOL.save_string_xyz() )
f.close()
--------------------------------------------------------------------------

    Molecular point group: c1
  Charge       = 0
  Multiplicity = 1
  Basis Set: CC-PVTZ
  Basis Set:
  @DF-RHF Final Energy:  -309.17694435950466
    Total Energy =                       -309.1769443595045459
    Molecular point group: c1
  Basis Set: CC-PVTZ
  Basis Set:
  Basis Set: CC-PVTZ
  Basis Set:
  @DF-RHF Final Energy:  -309.17330600271009
    Total Energy =                       -309.1733060027098077
  Basis Set: CC-PVTZ
  Basis Set:
  Basis Set: CC-PVTZ
  Basis Set:
  @DF-RHF Final Energy:  -309.17695086535042
    Total Energy =                       -309.1769508653503067
  Basis Set: CC-PVTZ
  Basis Set:
  Basis Set: CC-PVTZ
  Basis Set:
  @DF-RHF Final Energy:  -309.17566440872025
    Total Energy =                       -309.1756644087201380
  Basis Set: CC-PVTZ
  Basis Set:
  @DF-RHF Final Energy:  -309.17765230054482
    Total Energy =                       -309.1776523005445370
  @DF-RHF Final Energy:  -309.17772705732767
    Total Energy =                       -309.1777270573276724
  Basis Set: CC-PVTZ
  Basis Set:
  @DF-RHF Final Energy:  -309.17776201802900
    Total Energy =                       -309.1777620180292274
  Basis Set: CC-PVTZ
  Basis Set:
  Basis Set: CC-PVTZ
  Basis Set:
  @DF-RHF Final Energy:  -309.17776951823032
    Total Energy =                       -309.1777695182302068
  Basis Set: CC-PVTZ
  Basis Set:
  Basis Set: CC-PVTZ
  Basis Set:
  @DF-RHF Final Energy:  -309.17777227220887
    Total Energy =                       -309.1777722722090402
  Basis Set: CC-PVTZ
  Basis Set:
  Charge       = 0
  Multiplicity = 1
  Basis Set: CC-PVTZ
  Basis Set:

    Orbital Energies (a.u.)
    -----------------------

    Doubly Occupied:

       1A    -20.537633     2A    -11.320818     3A    -11.229501
       4A    -11.227513     5A    -11.219360     6A    -11.218695
       7A    -11.209424     8A     -1.398324     9A     -1.088100
      10A     -1.030411    11A     -0.985173    12A     -0.887696
      13A     -0.803075    14A     -0.732836    15A     -0.661249
      16A     -0.649769    17A     -0.626209    18A     -0.613048
      19A     -0.582979    20A     -0.573192    21A     -0.554539
      22A     -0.533450    23A     -0.515083    24A     -0.492110
      25A     -0.476770    26A     -0.474884    27A     -0.469507
      28A     -0.400489

  @DF-RHF Final Energy:  -309.17777304375818

   => Energetics <=

    Nuclear Repulsion Energy =            301.3741658926041964
    One-Electron Energy =               -1016.0802027507620551
    Two-Electron Energy =                 405.5282638143997929
    DFT Exchange-Correlation Energy =       0.0000000000000000
    Empirical Dispersion Energy =           0.0000000000000000
    PCM Polarization Energy =               0.0000000000000000
    EFP Energy =                            0.0000000000000000
    Total Energy =                       -309.1777730437580658
    Molecular point group: c1
  Basis Set: CC-PVTZ
  Basis Set:

  -Total Gradient:
     Atom            X                  Y                   Z
    ------   -----------------  -----------------  -----------------
       1        0.000024764177     0.000016265711    -0.000002880434
       2       -0.000540139551     0.000460836542     0.000976722885
       3       -0.000165454369    -0.000704597816     0.000726592137
       4        0.000408699586    -0.000215724965    -0.000887318959
       5        0.000263453976     0.000428167945    -0.000799134252
       6        0.000000366217    -0.000001020522     0.000001834598
       7       -0.000007405670     0.000006594716     0.000010425646
       8       -0.000003810648     0.000015525736    -0.000022767519
       9        0.000014474890     0.000002064089     0.000010279719
      10       -0.000000025019     0.000004725059    -0.000006650891
      11        0.000003279864    -0.000010863457     0.000001751476
      12       -0.000001216012    -0.000000006006     0.000002776574
      13       -0.000013169333     0.000001664297    -0.000011159072
      14        0.000001823281    -0.000000571710     0.000003856861
      15        0.000004145777    -0.000000218805    -0.000002992748
      16       -0.000006154653    -0.000004321195    -0.000001118058
      17        0.000019038460     0.000007048198     0.000001944342
      18       -0.000005818277     0.000000788862     0.000006806067
      19        0.000003147304    -0.000006356678    -0.000008968370

  **** Optimization is complete! (in 10 steps) ****
    Final optimized geometry and variables:
    Molecular point group: c1

    Geometry (in Angstrom), charge = 0, multiplicity = 1:

    O           -2.078618868699    -0.643285621073    -0.226535438915
    C           -1.575149368753     0.431760143702    -0.261873283206
    C           -0.191556872474     0.678651521539     0.313601549351
    C           -2.281115140863     1.615559044716    -0.876783187970
    C            0.792640993324    -0.452531986159     0.027523830130
    H            0.195785577769     1.622770749809    -0.053972310955
    H           -0.323150190853     0.796968598607     1.386933231894
    C            2.156282540838    -0.225708528787     0.673046843290
    H            0.914334708892    -0.555432589935    -1.047420745988
    H            0.367635209740    -1.384828075704     0.376924679674
    C            3.144724163176    -1.349237654279     0.379757824768
    H            2.570756818848     0.717542791851     0.326933266185
    H            2.031745241378    -0.127312148519     1.748070765449
    H            3.317907970085    -1.449473638975    -0.686473700133
    H            2.772969235254    -2.300877853354     0.743768189321
    H            4.101369378575    -1.163546889248     0.854140680323
    H           -3.287899840385     1.345772610839    -1.156194837272
    H           -1.733431301830     1.942504765578    -1.754850165796
    H           -2.298136396932     2.448490287022    -0.182075985640

  Mulliken Charges: (a.u.)
   Center  Symbol    Alpha    Beta     Spin     Total
       1     O     4.17419  4.17419  0.00000 -0.34838
       2     C     2.85946  2.85946  0.00000  0.28107
       3     C     3.10746  3.10746  0.00000 -0.21491
       4     C     3.15281  3.15281  0.00000 -0.30562
       5     C     3.08662  3.08662  0.00000 -0.17325
       6     H     0.44637  0.44637  0.00000  0.10726
       7     H     0.44397  0.44397  0.00000  0.11206
       8     C     3.08529  3.08529  0.00000 -0.17058
       9     H     0.45363  0.45363  0.00000  0.09275
      10     H     0.43879  0.43879  0.00000  0.12242
      11     C     3.14945  3.14945  0.00000 -0.29891
      12     H     0.45570  0.45570  0.00000  0.08859
      13     H     0.45404  0.45404  0.00000  0.09193
      14     H     0.45480  0.45480  0.00000  0.09040
      15     H     0.45294  0.45294  0.00000  0.09412
      16     H     0.44842  0.44842  0.00000  0.10316
      17     H     0.43635  0.43635  0.00000  0.12730
      18     H     0.44983  0.44983  0.00000  0.10033
      19     H     0.44987  0.44987  0.00000  0.10026

   Total alpha = 28.00000, Total beta = 28.00000, Total charge =  0.00000

*** Psi4 exiting successfully. Buy a developer a beer!
