  ==> Input File <==

--------------------------------------------------------------------------
set {
	reference rhf
	basis 6-31G*
}

set_num_threads( 1 )
memory 2 gb

molecule MOL {
0 1

H	 -2.722712	 -3.197562	 -0.385118
O	 -2.611307	 -2.260636	 -0.460365
C	 -1.320939	 -1.902911	 -0.036604
C	 -1.177863	 -0.397191	 -0.171080
H	 -1.161047	 -2.201747	 0.998499
H	 -0.566361	 -2.404526	 -0.641033
C	 0.198102	 0.111031	 0.262842
H	 -1.955753	 0.074552	 0.423121
H	 -1.368404	 -0.126735	 -1.205983
C	 1.331804	 -0.827780	 -0.158768
H	 0.361943	 1.100838	 -0.156218
H	 0.217265	 0.229072	 1.345532
C	 2.723619	 -0.410569	 0.329459
H	 1.342964	 -0.912588	 -1.244120
H	 1.116806	 -1.824343	 0.220779
C	 3.243875	 0.895854	 -0.272975
H	 3.424222	 -1.207124	 0.091250
H	 2.714788	 -0.329854	 1.414619
H	 3.251977	 0.848779	 -1.358681
H	 2.637085	 1.747371	 0.016682
H	 4.259473	 1.094070	 0.055697

	symmetry c1
}
set optking {
	frozen_dihedral = ("
		2 3 4 8,
		4 7 10 14,
		16 13 10 14,
		1 2 3 5
	")
}

ee = energy('scf')
oeprop('DIPOLE', 'QUADRUPOLE', 'MULLIKEN_CHARGES')
f=open( 'psi4out.xyz', 'w' )
f.write( "21  " )
f.write( str(ee) + "\n" )
f.write( MOL.save_string_xyz() )
f.close()
--------------------------------------------------------------------------

    Molecular point group: c1

    Geometry (in Angstrom), charge = 0, multiplicity = 1:

       Center              X                  Y                   Z               Mass
    ------------   -----------------  -----------------  -----------------  -----------------
           H         -3.015139820516    -2.475723800799    -0.303267413952     1.007825032070
           O         -2.903734820516    -1.538797800799    -0.378514413952    15.994914619560
           C         -1.613366820516    -1.181072800799     0.045246586048    12.000000000000
           C         -1.470290820516     0.324647199201    -0.089229413952    12.000000000000
           H         -1.453474820516    -1.479908800799     1.080349586048     1.007825032070
           H         -0.858788820516    -1.682687800799    -0.559182413952     1.007825032070
           C         -0.094325820516     0.832869199201     0.344692586048    12.000000000000
           H         -2.248180820516     0.796390199201     0.504971586048     1.007825032070
           H         -1.660831820516     0.595103199201    -1.124132413952     1.007825032070
           C          1.039376179484    -0.105941800799    -0.076917413952    12.000000000000
           H          0.069515179484     1.822676199201    -0.074367413952     1.007825032070
           H         -0.075162820516     0.950910199201     1.427382586048     1.007825032070
           C          2.431191179484     0.311269199201     0.411309586048    12.000000000000
           H          1.050536179484    -0.190749800799    -1.162269413952     1.007825032070
           H          0.824378179484    -1.102504800799     0.302629586048     1.007825032070
           C          2.951447179484     1.617692199201    -0.191124413952    12.000000000000
           H          3.131794179484    -0.485285800799     0.173100586048     1.007825032070
           H          2.422360179484     0.391984199201     1.496469586048     1.007825032070
           H          2.959549179484     1.570617199201    -1.276830413952     1.007825032070
           H          2.344657179484     2.469209199201     0.098532586048     1.007825032070
           H          3.967045179484     1.815908199201     0.137547586048     1.007825032070

  Charge       = 0
  Multiplicity = 1
  Basis Set: 6-31G*
  Basis Set:

    Orbital Energies (a.u.)
    -----------------------

    Doubly Occupied:

       1A    -20.550738     2A    -11.265419     3A    -11.216435
       4A    -11.215526     5A    -11.214915     6A    -11.210294
       7A    -11.208794     8A     -1.357685     9A     -1.089962
      10A     -1.032415    11A     -0.948323    12A     -0.887571
      13A     -0.815414    14A     -0.765633    15A     -0.696895
      16A     -0.652731    17A     -0.630248    18A     -0.609097
      19A     -0.579700    20A     -0.573887    21A     -0.533940
      22A     -0.530936    23A     -0.513315    24A     -0.487422
      25A     -0.483328    26A     -0.460736    27A     -0.451533
      28A     -0.442516    29A     -0.429007

  @DF-RHF Final Energy:  -310.20566831156663

   => Energetics <=

    Nuclear Repulsion Energy =            318.8663426457235914
    One-Electron Energy =               -1052.4352160521452788
    Two-Electron Energy =                 423.3632050948555161
    DFT Exchange-Correlation Energy =       0.0000000000000000
    Empirical Dispersion Energy =           0.0000000000000000
    PCM Polarization Energy =               0.0000000000000000
    EFP Energy =                            0.0000000000000000
    Total Energy =                       -310.2056683115662281

  Mulliken Charges: (a.u.)
   Center  Symbol    Alpha    Beta     Spin     Total
       1     H     0.28150  0.28150  0.00000  0.43701
       2     O     4.37383  4.37383  0.00000 -0.74766
       3     C     2.99459  2.99459  0.00000  0.01083
       4     C     3.15913  3.15913  0.00000 -0.31826
       5     H     0.43324  0.43324  0.00000  0.13352
       6     H     0.42802  0.42802  0.00000  0.14397
       7     C     3.16067  3.16067  0.00000 -0.32134
       8     H     0.41258  0.41258  0.00000  0.17485
       9     H     0.41459  0.41459  0.00000  0.17083
      10     C     3.16276  3.16276  0.00000 -0.32552
      11     H     0.41639  0.41639  0.00000  0.16721
      12     H     0.42276  0.42276  0.00000  0.15448
      13     C     3.15033  3.15033  0.00000 -0.30066
      14     H     0.42238  0.42238  0.00000  0.15523
      15     H     0.42012  0.42012  0.00000  0.15976
      16     C     3.24159  3.24159  0.00000 -0.48317
      17     H     0.42139  0.42139  0.00000  0.15722
      18     H     0.42336  0.42336  0.00000  0.15329
      19     H     0.42202  0.42202  0.00000  0.15596
      20     H     0.41968  0.41968  0.00000  0.16064
      21     H     0.41909  0.41909  0.00000  0.16182

   Total alpha = 29.00000, Total beta = 29.00000, Total charge = -0.00000
