  ==> Input File <==

--------------------------------------------------------------------------
set {
	reference rhf
	basis cc-pvtz
}

set_num_threads( 4 )
memory 2 gb

molecule MOL {
0 1

O	 -2.374409	 1.338660	 -0.336961
C	 -2.104891	 0.204655	 -0.107126
C	 -0.881910	 -0.448129	 -0.720509
C	 -2.949910	 -0.638219	 0.818225
C	 0.191886	 -0.713514	 0.342212
H	 -0.491295	 0.227675	 -1.470722
H	 -1.156122	 -1.377672	 -1.207975
C	 1.444567	 -1.357981	 -0.247669
H	 0.437680	 0.227032	 0.818853
H	 -0.211305	 -1.361315	 1.116866
C	 2.527413	 -1.698800	 0.777609
H	 1.862075	 -0.698659	 -1.004610
H	 1.157799	 -2.270193	 -0.763652
C	 3.170245	 -0.489178	 1.451745
H	 3.302159	 -2.271198	 0.277173
H	 2.109263	 -2.355449	 1.536093
H	 3.591818	 0.187913	 0.715937
H	 3.972236	 -0.799628	 2.111443
H	 2.458972	 0.070875	 2.046481
H	 -3.440322	 -1.417144	 0.243099
H	 -3.694377	 -0.025850	 1.303346
H	 -2.331085	 -1.129829	 1.560495

	symmetry c1
}
set optking {
	frozen_dihedral = ("
		6 3 2 1
	")
}

ee = optimize('scf')
oeprop('DIPOLE', 'QUADRUPOLE', 'MULLIKEN_CHARGES')
f=open( 'psi4out.xyz', 'w' )
f.write( "22  " )
f.write( str(ee) + "\n" )
f.write( MOL.save_string_xyz() )
f.close()
--------------------------------------------------------------------------

    Molecular point group: c1
  Charge       = 0
  Multiplicity = 1
  Basis Set: CC-PVTZ
  Basis Set:
  @DF-RHF Final Energy:  -348.22235335905754
    Total Energy =                       -348.2223533590574789
    Molecular point group: c1
  Basis Set: CC-PVTZ
  Basis Set:
  Basis Set: CC-PVTZ
  Basis Set:
  @DF-RHF Final Energy:  -348.22101241158913
    Total Energy =                       -348.2210124115890153
  Basis Set: CC-PVTZ
  Basis Set:
  Basis Set: CC-PVTZ
  Basis Set:
  @DF-RHF Final Energy:  -348.22267187479997
    Total Energy =                       -348.2226718747999143
  Basis Set: CC-PVTZ
  Basis Set:
  Basis Set: CC-PVTZ
  Basis Set:
  @DF-RHF Final Energy:  -348.22290148781991
    Total Energy =                       -348.2229014878197972
  Basis Set: CC-PVTZ
  Basis Set:
  @DF-RHF Final Energy:  -348.22284644667712
    Total Energy =                       -348.2228464466764990
  @DF-RHF Final Energy:  -348.22293003762127
    Total Energy =                       -348.2229300376213246
  @DF-RHF Final Energy:  -348.22294378494558
    Total Energy =                       -348.2229437849454143
  Basis Set: CC-PVTZ
  Basis Set:
  @DF-RHF Final Energy:  -348.22297130891013
    Total Energy =                       -348.2229713089105871
  Basis Set: CC-PVTZ
  Basis Set:
  Basis Set: CC-PVTZ
  Basis Set:
  @DF-RHF Final Energy:  -348.22297958854040
    Total Energy =                       -348.2229795885407384
  Basis Set: CC-PVTZ
  Basis Set:
  Basis Set: CC-PVTZ
  Basis Set:
  @DF-RHF Final Energy:  -348.22298140305088
    Total Energy =                       -348.2229814030508805
  Basis Set: CC-PVTZ
  Basis Set:
  Charge       = 0
  Multiplicity = 1
  Basis Set: CC-PVTZ
  Basis Set:

    Orbital Energies (a.u.)
    -----------------------

    Doubly Occupied:

       1A    -20.537371     2A    -11.319007     3A    -11.229953
       4A    -11.227817     5A    -11.225971     6A    -11.222144
       7A    -11.220616     8A    -11.211477     9A     -1.396838
      10A     -1.099361    11A     -1.046623    12A     -0.998323
      13A     -0.940533    14A     -0.861848    15A     -0.789039
      16A     -0.734233    17A     -0.664504    18A     -0.646554
      19A     -0.632344    20A     -0.620108    21A     -0.601644
      22A     -0.586376    23A     -0.561238    24A     -0.539320
      25A     -0.534716    26A     -0.526622    27A     -0.495954
      28A     -0.494123    29A     -0.473116    30A     -0.468072
      31A     -0.464780    32A     -0.398795

  @DF-RHF Final Energy:  -348.22298150701585

   => Energetics <=

    Nuclear Repulsion Energy =            373.4403166327970780
    One-Electron Energy =               -1211.7877585174883279
    Two-Electron Energy =                 490.1244603776759732
    DFT Exchange-Correlation Energy =       0.0000000000000000
    Empirical Dispersion Energy =           0.0000000000000000
    PCM Polarization Energy =               0.0000000000000000
    EFP Energy =                            0.0000000000000000
    Total Energy =                       -348.2229815070153336
    Molecular point group: c1
  Basis Set: CC-PVTZ
  Basis Set:

  -Total Gradient:
     Atom            X                  Y                   Z
    ------   -----------------  -----------------  -----------------
       1       -0.000117786294    -0.000077876721    -0.000202512663
       2        0.000184167178     0.000142443791     0.000317073672
       3       -0.000206748551    -0.000186066352    -0.000281829860
       4       -0.000001025080    -0.000005084239    -0.000011577048
       5        0.000007065286     0.000011203916    -0.000007712902
       6        0.000143655213     0.000116227214     0.000174480777
       7       -0.000005031959     0.000003653292     0.000001551011
       8        0.000003749665    -0.000004855776    -0.000005012940
       9        0.000000206803     0.000004579248     0.000005532906
      10        0.000001177631    -0.000000501042    -0.000005077696
      11       -0.000009866419     0.000001539511     0.000009569935
      12       -0.000002995819     0.000001336397    -0.000001226946
      13       -0.000000407890    -0.000001929718    -0.000000523876
      14       -0.000000025792     0.000001365656    -0.000004746663
      15       -0.000003420522     0.000004234183    -0.000001927063
      16       -0.000000527140    -0.000004473776     0.000001717178
      17       -0.000001263130     0.000000802979     0.000000605799
      18        0.000001206867    -0.000001390313    -0.000001081719
      19       -0.000000674170     0.000000002680     0.000000165737
      20        0.000001004434    -0.000000033477     0.000006063315
      21        0.000006487737    -0.000001456867    -0.000000018275
      22        0.000001051942    -0.000003720589     0.000006487323

  **** Optimization is complete! (in 11 steps) ****
    Final optimized geometry and variables:
    Molecular point group: c1

    Geometry (in Angstrom), charge = 0, multiplicity = 1:

    O           -2.266084282009     1.800035660410    -0.647104525854
    C           -1.995776391316     0.676795552206    -0.369420055014
    C           -0.766426362410     0.001174655754    -0.943512456759
    C           -2.866131918986    -0.126027701435     0.571664552180
    C            0.317956450500    -0.274137073218     0.105077048054
    H           -0.377639733831     0.652475287659    -1.714470648448
    H           -1.064923640415    -0.933847980024    -1.409278326967
    C            1.581479164305    -0.863201233916    -0.519665061670
    H            0.551889551295     0.653184856910     0.616322181698
    H           -0.057664027886    -0.960834919110     0.857554783592
    C            2.676171237933    -1.231757323843     0.482941759241
    H            1.981768484007    -0.160612165427    -1.245983556545
    H            1.309147127258    -1.754903569466    -1.077612306455
    C            3.296681208862    -0.044319993723     1.214977645430
    H            3.460373174907    -1.761025065024    -0.049072387734
    H            2.276257243681    -1.935014144873     1.208770852613
    H            3.698618389531     0.678941510764     0.512926529985
    H            4.109361742856    -0.370250748923     1.853708219318
    H            2.577273544062     0.468516878949     1.841899799242
    H           -3.126771027528    -1.081248796393     0.130178028208
    H           -3.761691499154     0.431202275950     0.799438307024
    H           -2.329965892136    -0.330214087982     1.491380527846

  Mulliken Charges: (a.u.)
   Center  Symbol    Alpha    Beta     Spin     Total
       1     O     4.17324  4.17324  0.00000 -0.34648
       2     C     2.85859  2.85859  0.00000  0.28283
       3     C     3.09351  3.09351  0.00000 -0.18702
       4     C     3.16078  3.16078  0.00000 -0.32156
       5     C     3.11159  3.11159  0.00000 -0.22318
       6     H     0.43879  0.43879  0.00000  0.12242
       7     H     0.44790  0.44790  0.00000  0.10420
       8     C     3.09587  3.09587  0.00000 -0.19174
       9     H     0.44204  0.44204  0.00000  0.11591
      10     H     0.45083  0.45083  0.00000  0.09833
      11     C     3.09059  3.09059  0.00000 -0.18118
      12     H     0.44931  0.44931  0.00000  0.10137
      13     H     0.44855  0.44855  0.00000  0.10290
      14     C     3.15181  3.15181  0.00000 -0.30362
      15     H     0.44716  0.44716  0.00000  0.10567
      16     H     0.45464  0.45464  0.00000  0.09072
      17     H     0.45332  0.45332  0.00000  0.09337
      18     H     0.44575  0.44575  0.00000  0.10849
      19     H     0.45359  0.45359  0.00000  0.09282
      20     H     0.44999  0.44999  0.00000  0.10001
      21     H     0.43343  0.43343  0.00000  0.13315
      22     H     0.44872  0.44872  0.00000  0.10256

   Total alpha = 32.00000, Total beta = 32.00000, Total charge = -0.00000
