  ==> Input File <==

--------------------------------------------------------------------------
set {
	reference rhf
	basis 6-31G*
}

set_num_threads( 4 )
memory 2 gb

molecule MOL {
0 1

H	 2.827476	 0.327536	 1.226021
O	 3.534580	 0.175767	 0.616069
C	 3.473745	 -1.144566	 0.139547
C	 2.328709	 -1.378027	 -0.839797
H	 4.419886	 -1.322797	 -0.355151
H	 3.405950	 -1.846591	 0.969814
C	 0.938194	 -1.197714	 -0.225937
H	 2.448331	 -0.697440	 -1.678760
H	 2.421300	 -2.388250	 -1.235072
C	 -0.189405	 -1.491702	 -1.219370
H	 0.840162	 -0.180776	 0.143648
H	 0.834997	 -1.856292	 0.636597
C	 -1.603027	 -1.408954	 -0.631861
H	 -0.109970	 -0.808934	 -2.063386
H	 -0.042627	 -2.491053	 -1.623666
C	 -2.037799	 -0.007733	 -0.193645
H	 -2.305480	 -1.771942	 -1.379267
H	 -1.681721	 -2.091737	 0.212800
C	 -3.489788	 0.042957	 0.286558
H	 -1.911155	 0.683948	 -1.025299
H	 -1.391724	 0.352483	 0.603309
C	 -4.216917	 1.317354	 -0.141063
H	 -4.025645	 -0.823308	 -0.095450
H	 -3.513059	 -0.038752	 1.371301
H	 -4.239342	 1.411634	 -1.223113
H	 -5.243387	 1.322503	 0.212445
H	 -3.726170	 2.201406	 0.256408

	symmetry c1
}
set optking {
	frozen_dihedral = ("
		20 16 19 22
	")
}

ee = optimize('scf')
oeprop('DIPOLE', 'QUADRUPOLE', 'MULLIKEN_CHARGES')
f=open( 'psi4out.xyz', 'w' )
f.write( "27  " )
f.write( str(ee) + "\n" )
f.write( MOL.save_string_xyz() )
f.close()
--------------------------------------------------------------------------

    Molecular point group: c1
  Charge       = 0
  Multiplicity = 1
  Basis Set: 6-31G*
  Basis Set:
  @DF-RHF Final Energy:  -388.27755811705907
    Total Energy =                       -388.2775581170596979
    Molecular point group: c1
  Basis Set: 6-31G*
  Basis Set:
  Basis Set: 6-31G*
  Basis Set:
  @DF-RHF Final Energy:  -388.27780562112059
    Total Energy =                       -388.2778056211208195
  Basis Set: 6-31G*
  Basis Set:
  Basis Set: 6-31G*
  Basis Set:
  @DF-RHF Final Energy:  -388.27789918195066
    Total Energy =                       -388.2778991819508292
  Basis Set: 6-31G*
  Basis Set:
  Basis Set: 6-31G*
  Basis Set:
  @DF-RHF Final Energy:  -388.27789619470894
    Total Energy =                       -388.2778961947094558
  Basis Set: 6-31G*
  Basis Set:
  Basis Set: 6-31G*
  Basis Set:
  @DF-RHF Final Energy:  -388.27790383864209
    Total Energy =                       -388.2779038386415777
  Basis Set: 6-31G*
  Basis Set:
  Basis Set: 6-31G*
  Basis Set:
  @DF-RHF Final Energy:  -388.27790751861806
    Total Energy =                       -388.2779075186181217
  Basis Set: 6-31G*
  Basis Set:
  Charge       = 0
  Multiplicity = 1
  Basis Set: 6-31G*
  Basis Set:

    Orbital Energies (a.u.)
    -----------------------

    Doubly Occupied:

       1A    -20.552364     2A    -11.267104     3A    -11.219885
       4A    -11.217324     5A    -11.216207     6A    -11.215862
       7A    -11.215268     8A    -11.213991     9A    -11.209485
      10A     -1.359118    11A     -1.094514    12A     -1.060364
      13A     -1.011371    14A     -0.948387    15A     -0.888086
      16A     -0.820897    17A     -0.801206    18A     -0.779040
      19A     -0.693798    20A     -0.648413    21A     -0.638278
      22A     -0.614509    23A     -0.596771    24A     -0.586683
      25A     -0.581136    26A     -0.553651    27A     -0.541679
      28A     -0.528420    29A     -0.509358    30A     -0.491027
      31A     -0.483329    32A     -0.477717    33A     -0.467611
      34A     -0.459969    35A     -0.450429    36A     -0.441282
      37A     -0.422798

  @DF-RHF Final Energy:  -388.27790765638093

   => Energetics <=

    Nuclear Repulsion Energy =            459.0076685347535772
    One-Electron Energy =               -1436.0164942421831711
    Two-Electron Energy =                 588.7309180510488886
    DFT Exchange-Correlation Energy =       0.0000000000000000
    Empirical Dispersion Energy =           0.0000000000000000
    PCM Polarization Energy =               0.0000000000000000
    EFP Energy =                            0.0000000000000000
    Total Energy =                       -388.2779076563807621
    Molecular point group: c1
  Basis Set: 6-31G*
  Basis Set:

  -Total Gradient:
     Atom            X                  Y                   Z
    ------   -----------------  -----------------  -----------------
       1       -0.000006800383    -0.000003839373    -0.000001530365
       2        0.000008233236     0.000004414983    -0.000003959958
       3       -0.000008355512     0.000005466170     0.000001840909
       4        0.000008504975     0.000012882249     0.000004225886
       5        0.000000377635     0.000003824547     0.000001515419
       6       -0.000000023628    -0.000002425853    -0.000001073485
       7        0.000017851428    -0.000011781493     0.000010293975
       8       -0.000006073746    -0.000004780559    -0.000009490218
       9        0.000002745395     0.000000454904     0.000008571704
      10       -0.000007884609     0.000035046638    -0.000027365806
      11        0.000024593788    -0.000024342204    -0.000005749594
      12        0.000002281882    -0.000016632683     0.000010188348
      13        0.000025682202    -0.000025688766     0.000025296390
      14        0.000008468949    -0.000005420618    -0.000019339614
      15       -0.000012049125     0.000007975180     0.000010354158
      16       -0.001731763526    -0.004256899019    -0.004091818616
      17        0.000001083536     0.000004937366     0.000004237531
      18       -0.000004710606    -0.000009617173     0.000002001580
      19        0.001636170416     0.002666613663     0.004017122360
      20        0.001102837774     0.003027523099     0.002540678578
      21       -0.000021200384    -0.000016926098    -0.000028086793
      22       -0.001015465355    -0.001400659244    -0.002452350737
      23       -0.000002436573     0.000016592439     0.000000218458
      24       -0.000017201822    -0.000009049773     0.000006938566
      25       -0.000016604562     0.000004272042    -0.000003433757
      26        0.000002162930     0.000005466658     0.000006943538
      27        0.000009575675    -0.000007407082    -0.000006228459

  **** Optimization is complete! (in 7 steps) ****
    Final optimized geometry and variables:
    Molecular point group: c1

    Geometry (in Angstrom), charge = 0, multiplicity = 1:

    H            2.912455021522     0.856421138308     1.471483408217
    O            3.623899850416     0.707990491096     0.865766842060
    C            3.567414290986    -0.610348808661     0.383274490977
    C            2.430430995213    -0.840012212979    -0.606294359875
    H            4.517575442863    -0.785896218899    -0.104587057565
    H            3.493395991938    -1.315960973291     1.209956735276
    C            1.035038992997    -0.661716746468    -0.003034475832
    H            2.556882620925    -0.156378810468    -1.441762710294
    H            2.526151128116    -1.848779369491    -1.004507275180
    C           -0.084402736277    -0.949186875838    -1.007786504166
    H            0.935716281698     0.352997067172     0.371951558142
    H            0.923890185749    -1.325389260414     0.854566192996
    C           -1.503860156175    -0.861879819421    -0.435517729479
    H            0.006247301246    -0.266477059969    -1.850819230033
    H            0.062557084925    -1.948901899643    -1.411075213686
    C           -1.952673957880     0.544895836617    -0.034434125360
    H           -2.198363828307    -1.244972606490    -1.180122871056
    H           -1.587830931936    -1.525566579418     0.424055603353
    C           -3.388644272167     0.596756966078     0.521640052548
    H           -1.861977884154     1.220805595064    -0.882740623064
    H           -1.275817906785     0.947621778435     0.714770856790
    C           -4.149548554277     1.858842059869     0.115179892464
    H           -3.946133900258    -0.265591385416     0.162374194823
    H           -3.368898239186     0.508452734067     1.604394898415
    H           -4.251113202262     1.916624423152    -0.964558064538
    H           -5.146632046048     1.873835845530     0.544666397132
    H           -3.634072784295     2.756663443890     0.445866993558

  Mulliken Charges: (a.u.)
   Center  Symbol    Alpha    Beta     Spin     Total
       1     H     0.27990  0.27990  0.00000  0.44019
       2     O     4.37092  4.37092  0.00000 -0.74184
       3     C     2.99742  2.99742  0.00000  0.00517
       4     C     3.16090  3.16090  0.00000 -0.32179
       5     H     0.41442  0.41442  0.00000  0.17116
       6     H     0.43203  0.43203  0.00000  0.13594
       7     C     3.16310  3.16310  0.00000 -0.32620
       8     H     0.41495  0.41495  0.00000  0.17010
       9     H     0.42433  0.42433  0.00000  0.15135
      10     C     3.15276  3.15276  0.00000 -0.30553
      11     H     0.42314  0.42314  0.00000  0.15373
      12     H     0.42535  0.42535  0.00000  0.14930
      13     C     3.15463  3.15463  0.00000 -0.30926
      14     H     0.42146  0.42146  0.00000  0.15709
      15     H     0.42140  0.42140  0.00000  0.15721
      16     C     3.15557  3.15557  0.00000 -0.31114
      17     H     0.42087  0.42087  0.00000  0.15826
      18     H     0.42388  0.42388  0.00000  0.15224
      19     C     3.15313  3.15313  0.00000 -0.30626
      20     H     0.42157  0.42157  0.00000  0.15687
      21     H     0.42224  0.42224  0.00000  0.15553
      22     C     3.23976  3.23976  0.00000 -0.47952
      23     H     0.42195  0.42195  0.00000  0.15610
      24     H     0.42103  0.42103  0.00000  0.15794
      25     H     0.42127  0.42127  0.00000  0.15746
      26     H     0.42016  0.42016  0.00000  0.15969
      27     H     0.42188  0.42188  0.00000  0.15624

   Total alpha = 37.00000, Total beta = 37.00000, Total charge = -0.00000
