  ==> Input File <==

--------------------------------------------------------------------------
set {
	reference rhf
	basis 6-31G*
}

set_num_threads( 1 )
memory 2 gb

molecule MOL {
0 1

H	 -3.892951	 0.981613	 -0.358725
C	 -3.196921	 0.361773	 0.172313
C	 -2.076860	 -0.007332	 -0.404944
H	 -3.439953	 0.057760	 1.173024
O	 -1.445745	 0.775552	 -1.319081
H	 -1.584035	 -0.935921	 -0.176817
C	 -0.368910	 0.241272	 -2.009604
C	 -0.813454	 -0.512322	 -3.242799
H	 0.220807	 -0.431570	 -1.397059
H	 0.256504	 1.061364	 -2.330218
F	 0.250135	 -0.970913	 -3.886443
F	 -1.575271	 -1.549362	 -2.936181
F	 -1.491590	 0.252894	 -4.072839

	symmetry c1
}
set optking {
	frozen_dihedral = ("
		11 8 7 9,
		3 5 7 9,
		6 3 5 7
	")
}

ee = energy('scf')
oeprop('DIPOLE', 'QUADRUPOLE', 'MULLIKEN_CHARGES')
f=open( 'psi4out.xyz', 'w' )
f.write( "13  " )
f.write( str(ee) + "\n" )
f.write( MOL.save_string_xyz() )
f.close()
--------------------------------------------------------------------------

    Molecular point group: c1

    Geometry (in Angstrom), charge = 0, multiplicity = 1:

       Center              X                  Y                   Z               Mass
    ------------   -----------------  -----------------  -----------------  -----------------
           H         -2.602637257570     1.211179191418     1.998103826595     1.007825032070
           C         -1.906607257570     0.591339191418     2.529141826595    12.000000000000
           C         -0.786546257570     0.222234191418     1.951884826595    12.000000000000
           H         -2.149639257570     0.287326191418     3.529852826595     1.007825032070
           O         -0.155431257570     1.005118191418     1.037747826595    15.994914619560
           H         -0.293721257570    -0.706354808582     2.180011826595     1.007825032070
           C          0.921403742430     0.470838191418     0.347224826595    12.000000000000
           C          0.476859742430    -0.282755808582    -0.885970173405    12.000000000000
           H          1.511120742430    -0.202003808582     0.959769826595     1.007825032070
           H          1.546817742430     1.290930191418     0.026610826595     1.007825032070
           F          1.540448742430    -0.741346808582    -1.529614173405    18.998403224000
           F         -0.284957257570    -1.319795808582    -0.579352173405    18.998403224000
           F         -0.201276257570     0.482460191418    -1.716010173405    18.998403224000

  Charge       = 0
  Multiplicity = 1
  Basis Set: 6-31G*
  Basis Set:

    Orbital Energies (a.u.)
    -----------------------

    Doubly Occupied:

       1A    -26.345667     2A    -26.345349     3A    -26.341875
       4A    -20.612418     5A    -11.504295     6A    -11.319198
       7A    -11.302867     8A    -11.213021     9A     -1.743065
      10A     -1.641137    11A     -1.639649    12A     -1.440853
      13A     -1.085166    14A     -1.016872    15A     -0.926416
      16A     -0.837804    17A     -0.832316    18A     -0.822141
      19A     -0.792910    20A     -0.722401    21A     -0.712510
      22A     -0.696296    23A     -0.676645    24A     -0.661761
      25A     -0.655903    26A     -0.644455    27A     -0.637605
      28A     -0.585086    29A     -0.570446    30A     -0.523618
      31A     -0.510941    32A     -0.339181

  @DF-RHF Final Energy:  -527.51646028028904

   => Energetics <=

    Nuclear Repulsion Energy =            413.5610539159941936
    One-Electron Energy =               -1550.7551587222465059
    Two-Electron Energy =                 609.6776445259636148
    DFT Exchange-Correlation Energy =       0.0000000000000000
    Empirical Dispersion Energy =           0.0000000000000000
    PCM Polarization Energy =               0.0000000000000000
    EFP Energy =                            0.0000000000000000
    Total Energy =                       -527.5164602802885838

  Mulliken Charges: (a.u.)
   Center  Symbol    Alpha    Beta     Spin     Total
       1     H     0.40314  0.40314  0.00000  0.19373
       2     C     3.24136  3.24136  0.00000 -0.48272
       3     C     2.89642  2.89642  0.00000  0.20715
       4     H     0.40489  0.40489  0.00000  0.19022
       5     O     4.29454  4.29454  0.00000 -0.58907
       6     H     0.40745  0.40745  0.00000  0.18511
       7     C     3.06482  3.06482  0.00000 -0.12965
       8     C     2.45632  2.45632  0.00000  1.08735
       9     H     0.40502  0.40502  0.00000  0.18996
      10     H     0.38917  0.38917  0.00000  0.22165
      11     F     4.68270  4.68270  0.00000 -0.36539
      12     F     4.67975  4.67975  0.00000 -0.35949
      13     F     4.67442  4.67442  0.00000 -0.34885

   Total alpha = 32.00000, Total beta = 32.00000, Total charge =  0.00000
