  ==> Input File <==

--------------------------------------------------------------------------
set {
	reference rhf
	basis 6-31G*
}

set_num_threads( 4 )
memory 2 gb

molecule MOL {
0 1

O	 -0.672478	 -0.090880	 0.058361
C	 0.486307	 0.169203	 0.000779
C	 1.608116	 -0.841643	 0.000302
O	 0.954107	 1.407656	 -0.069975
C	 2.990107	 -0.200498	 -0.000684
H	 1.468623	 -1.481519	 -0.865924
H	 1.469683	 -1.481289	 0.866878
H	 3.129736	 0.423364	 -0.875135
H	 3.757882	 -0.966877	 -0.001197
H	 3.130964	 0.423383	 0.873533
C	 0.005717	 2.469684	 -0.077387
C	 0.779402	 3.768436	 -0.160840
H	 -0.590087	 2.416530	 0.823600
H	 -0.657459	 2.344326	 -0.922417
H	 1.442831	 3.876388	 0.689670
H	 0.091966	 4.608087	 -0.168982
H	 1.375088	 3.803919	 -1.065912

	symmetry c1
}
set optking {
	frozen_dihedral = ("
		4 2 3 6
	")
}

ee = optimize('scf')
oeprop('DIPOLE', 'QUADRUPOLE', 'MULLIKEN_CHARGES')
f=open( 'psi4out.xyz', 'w' )
f.write( "17  " )
f.write( str(ee) + "\n" )
f.write( MOL.save_string_xyz() )
f.close()
--------------------------------------------------------------------------

    Molecular point group: c1
  Charge       = 0
  Multiplicity = 1
  Basis Set: 6-31G*
  Basis Set:
  @DF-RHF Final Energy:  -344.90802050754212
    Total Energy =                       -344.9080205075420622
    Molecular point group: c1
  Basis Set: 6-31G*
  Basis Set:
  Basis Set: 6-31G*
  Basis Set:
  @DF-RHF Final Energy:  -344.90892031344879
    Total Energy =                       -344.9089203134487889
  Basis Set: 6-31G*
  Basis Set:
  Basis Set: 6-31G*
  Basis Set:
  @DF-RHF Final Energy:  -344.90897461026850
    Total Energy =                       -344.9089746102687286
  Basis Set: 6-31G*
  Basis Set:
  Basis Set: 6-31G*
  Basis Set:
  @DF-RHF Final Energy:  -344.90934542819753
    Total Energy =                       -344.9093454281971844
  Basis Set: 6-31G*
  Basis Set:
  Basis Set: 6-31G*
  Basis Set:
  @DF-RHF Final Energy:  -344.90936936873698
    Total Energy =                       -344.9093693687368614
  Basis Set: 6-31G*
  Basis Set:
  Basis Set: 6-31G*
  Basis Set:
  @DF-RHF Final Energy:  -344.90937887773413
    Total Energy =                       -344.9093788777339000
  Basis Set: 6-31G*
  Basis Set:
  Charge       = 0
  Multiplicity = 1
  Basis Set: 6-31G*
  Basis Set:

    Orbital Energies (a.u.)
    -----------------------

    Doubly Occupied:

       1A    -20.603934     2A    -20.538840     3A    -11.371584
       4A    -11.285611     5A    -11.237861     6A    -11.223105
       7A    -11.219995     8A     -1.468494     9A     -1.359818
      10A     -1.071963    11A     -1.030321    12A     -0.904812
      13A     -0.861318    14A     -0.778483    15A     -0.690324
      16A     -0.678645    17A     -0.670251    18A     -0.630038
      19A     -0.573588    20A     -0.572039    21A     -0.553215
      22A     -0.549535    23A     -0.521785    24A     -0.514890
      25A     -0.506913    26A     -0.490795    27A     -0.449634
      28A     -0.430380

  @DF-RHF Final Energy:  -344.90937900879572

   => Energetics <=

    Nuclear Repulsion Energy =            317.6309148191443796
    One-Electron Energy =               -1099.5042429119748704
    Two-Electron Energy =                 436.9639490840352209
    DFT Exchange-Correlation Energy =       0.0000000000000000
    Empirical Dispersion Energy =           0.0000000000000000
    PCM Polarization Energy =               0.0000000000000000
    EFP Energy =                            0.0000000000000000
    Total Energy =                       -344.9093790087952129
    Molecular point group: c1
  Basis Set: 6-31G*
  Basis Set:

  -Total Gradient:
     Atom            X                  Y                   Z
    ------   -----------------  -----------------  -----------------
       1        0.000034605255     0.000020395465    -0.000009933178
       2       -0.000060510124    -0.000073718912    -0.000133774605
       3        0.000100803348     0.000108689334    -0.000044244173
       4        0.000002368965     0.000038768066     0.000097519589
       5       -0.000008483593    -0.000000460528     0.000001717337
       6       -0.000082782587    -0.000084641639     0.000068347504
       7       -0.000000886531     0.000001449866    -0.000002668992
       8        0.000001541233    -0.000000174537    -0.000000038236
       9       -0.000004137420     0.000000851225     0.000000786137
      10        0.000006840127     0.000004685658     0.000003044424
      11        0.000026541346    -0.000024642003     0.000060077649
      12       -0.000006077789     0.000003760389    -0.000017238954
      13       -0.000003564926     0.000008984104    -0.000008903474
      14       -0.000004232026    -0.000002252085    -0.000012941632
      15       -0.000004500541    -0.000007091467    -0.000000192417
      16       -0.000000434143     0.000002402384    -0.000001498225
      17        0.000002909403     0.000002994680    -0.000000058754

  **** Optimization is complete! (in 7 steps) ****
    Final optimized geometry and variables:
    Molecular point group: c1

    Geometry (in Angstrom), charge = 0, multiplicity = 1:

    O           -1.521980626901    -1.063406821480     0.096707190832
    C           -0.368319565515    -0.777059256842     0.038259309788
    C            0.737928272166    -1.810911875885     0.033433170761
    O            0.067658780458     0.469374697017    -0.034069475362
    C            2.168814826980    -1.281838832089     0.040528427920
    H            0.560873223938    -2.434122692188    -0.837894222283
    H            0.555002474529    -2.448676259907     0.891923281382
    H            2.370847547758    -0.673191037871    -0.832363242724
    H            2.866742861528    -2.112462014779     0.042499177197
    H            2.363103414592    -0.676912015779     0.918261123395
    C           -0.908457169846     1.506843544799    -0.041190436676
    C           -0.168962560329     2.824951277093    -0.129687106045
    H           -1.499898172878     1.438621548512     0.861362330174
    H           -1.569820060907     1.360743200182    -0.884026271741
    H            0.493587944793     2.952499314529     0.718837175103
    H           -0.878333290104     3.646133982308    -0.137815101710
    H            0.423115141194     2.874312321039    -1.036475753163

  Mulliken Charges: (a.u.)
   Center  Symbol    Alpha    Beta     Spin     Total
       1     O     4.28949  4.28949  0.00000 -0.57898
       2     C     2.60474  2.60474  0.00000  0.79053
       3     C     3.20890  3.20890  0.00000 -0.41780
       4     O     4.31118  4.31118  0.00000 -0.62236
       5     C     3.23742  3.23742  0.00000 -0.47483
       6     H     0.39801  0.39801  0.00000  0.20397
       7     H     0.39763  0.39763  0.00000  0.20475
       8     H     0.41224  0.41224  0.00000  0.17553
       9     H     0.41710  0.41710  0.00000  0.16581
      10     H     0.41334  0.41334  0.00000  0.17332
      11     C     3.00276  3.00276  0.00000 -0.00551
      12     C     3.24884  3.24884  0.00000 -0.49768
      13     H     0.40932  0.40932  0.00000  0.18137
      14     H     0.40935  0.40935  0.00000  0.18129
      15     H     0.41184  0.41184  0.00000  0.17631
      16     H     0.41596  0.41596  0.00000  0.16809
      17     H     0.41190  0.41190  0.00000  0.17620

   Total alpha = 28.00000, Total beta = 28.00000, Total charge =  0.00000
