  ==> Input File <==

--------------------------------------------------------------------------
set {
	reference rhf
	basis 6-31G*
}

set_num_threads( 1 )
memory 2 gb

molecule MOL {
0 1

H	 1.486565	 -1.789721	 0.628789
O	 0.813747	 -1.212408	 0.297555
C	 1.135793	 0.118896	 0.612333
C	 0.031547	 1.023609	 0.088541
H	 2.080035	 0.401612	 0.150415
H	 1.252878	 0.239282	 1.686995
C	 -1.134819	 0.293262	 -0.585751
H	 0.474374	 1.714721	 -0.623187
H	 -0.338529	 1.620940	 0.920081
C	 -1.917817	 -0.639439	 0.339494
H	 -0.758119	 -0.268455	 -1.433105
H	 -1.813832	 1.041889	 -0.986690
H	 -2.777680	 -1.057197	 -0.174994
H	 -1.310268	 -1.471279	 0.680599
H	 -2.283753	 -0.111424	 1.216626

	symmetry c1
}
set optking {
	frozen_dihedral = ("
		8 4 7 11,
		1 2 3 4
	")
}

ee = energy('scf')
oeprop('DIPOLE', 'QUADRUPOLE', 'MULLIKEN_CHARGES')
f=open( 'psi4out.xyz', 'w' )
f.write( "15  " )
f.write( str(ee) + "\n" )
f.write( MOL.save_string_xyz() )
f.close()
--------------------------------------------------------------------------

    Molecular point group: c1

    Geometry (in Angstrom), charge = 0, multiplicity = 1:

       Center              X                  Y                   Z               Mass
    ------------   -----------------  -----------------  -----------------  -----------------
           H          1.670535484134    -1.661286477702     0.462784716800     1.007825032070
           O          0.997717484134    -1.083973477702     0.131550716800    15.994914619560
           C          1.319763484134     0.247330522298     0.446328716800    12.000000000000
           C          0.215517484134     1.152043522298    -0.077463283200    12.000000000000
           H          2.264005484134     0.530046522298    -0.015589283200     1.007825032070
           H          1.436848484134     0.367716522298     1.520990716800     1.007825032070
           C         -0.950848515866     0.421696522298    -0.751755283200    12.000000000000
           H          0.658344484134     1.843155522298    -0.789191283200     1.007825032070
           H         -0.154558515866     1.749374522298     0.754076716800     1.007825032070
           C         -1.733846515866    -0.511004477702     0.173489716800    12.000000000000
           H         -0.574148515866    -0.140020477702    -1.599109283200     1.007825032070
           H         -1.629861515866     1.170323522298    -1.152694283200     1.007825032070
           H         -2.593709515866    -0.928762477702    -0.340998283200     1.007825032070
           H         -1.126297515866    -1.342844477702     0.514594716800     1.007825032070
           H         -2.099782515866     0.017010522298     1.050621716800     1.007825032070

  Charge       = 0
  Multiplicity = 1
  Basis Set: 6-31G*
  Basis Set:

    Orbital Energies (a.u.)
    -----------------------

    Doubly Occupied:

       1A    -20.554385     2A    -11.268020     3A    -11.210389
       4A    -11.204537     5A    -11.187139     6A     -1.363701
       7A     -1.057475     8A     -0.967646     9A     -0.859831
      10A     -0.771092    11A     -0.708648    12A     -0.651917
      13A     -0.605972    14A     -0.566004    15A     -0.548545
      16A     -0.524292    17A     -0.509816    18A     -0.474919
      19A     -0.460075    20A     -0.445508    21A     -0.420347

  @DF-RHF Final Energy:  -232.13126780908377

   => Energetics <=

    Nuclear Repulsion Energy =            196.1115087833723294
    One-Electron Energy =                -703.7649350954019383
    Two-Electron Energy =                 275.5221585029459561
    DFT Exchange-Correlation Energy =       0.0000000000000000
    Empirical Dispersion Energy =           0.0000000000000000
    PCM Polarization Energy =               0.0000000000000000
    EFP Energy =                            0.0000000000000000
    Total Energy =                       -232.1312678090836812

  Mulliken Charges: (a.u.)
   Center  Symbol    Alpha    Beta     Spin     Total
       1     H     0.28071  0.28071  0.00000  0.43859
       2     O     4.37120  4.37120  0.00000 -0.74239
       3     C     2.99046  2.99046  0.00000  0.01907
       4     C     3.17673  3.17673  0.00000 -0.35346
       5     H     0.42926  0.42926  0.00000  0.14147
       6     H     0.42923  0.42923  0.00000  0.14154
       7     C     3.14329  3.14329  0.00000 -0.28657
       8     H     0.41881  0.41881  0.00000  0.16238
       9     H     0.42083  0.42083  0.00000  0.15834
      10     C     3.24336  3.24336  0.00000 -0.48671
      11     H     0.41451  0.41451  0.00000  0.17098
      12     H     0.42510  0.42510  0.00000  0.14980
      13     H     0.42639  0.42639  0.00000  0.14722
      14     H     0.39900  0.39900  0.00000  0.20200
      15     H     0.43113  0.43113  0.00000  0.13774

   Total alpha = 21.00000, Total beta = 21.00000, Total charge =  0.00000
