  ==> Input File <==

--------------------------------------------------------------------------
set {
	reference rhf
	basis 6-31G*
}

set_num_threads( 1 )
memory 2 gb

molecule MOL {
0 1

H	 -3.420663	 1.227371	 -1.044276
O	 -3.452007	 0.283848	 -0.965577
C	 -3.181085	 -0.079926	 0.364119
C	 -1.765924	 0.277073	 0.805136
H	 -3.327791	 -1.152017	 0.410903
H	 -3.905698	 0.375695	 1.036898
C	 -0.677594	 -0.417312	 -0.014550
H	 -1.637766	 1.358238	 0.744969
H	 -1.659588	 0.017670	 1.857098
C	 0.738335	 -0.034840	 0.421385
H	 -0.814977	 -0.178223	 -1.064632
H	 -0.802730	 -1.495410	 0.071702
C	 1.794349	 -0.364580	 -0.637005
H	 0.762501	 1.027553	 0.651942
H	 0.984919	 -0.553761	 1.346869
C	 3.239598	 -0.081342	 -0.211345
H	 1.574429	 0.188417	 -1.548885
H	 1.711095	 -1.418322	 -0.894908
C	 3.559371	 1.398466	 0.008469
H	 3.906478	 -0.471562	 -0.976387
H	 3.462582	 -0.637750	 0.696891
H	 3.334137	 1.982282	 -0.880107
H	 4.612371	 1.535846	 0.234644
H	 2.992832	 1.818708	 0.832844

	symmetry c1
}
set optking {
	frozen_dihedral = ("
		20 16 13 17,
		17 13 10 7,
		11 7 4 3,
		1 2 3 5,
		7 4 3 2
	")
}

ee = energy('scf')
oeprop('DIPOLE', 'QUADRUPOLE', 'MULLIKEN_CHARGES')
f=open( 'psi4out.xyz', 'w' )
f.write( "24  " )
f.write( str(ee) + "\n" )
f.write( MOL.save_string_xyz() )
f.close()
--------------------------------------------------------------------------

    Molecular point group: c1

    Geometry (in Angstrom), charge = 0, multiplicity = 1:

       Center              X                  Y                   Z               Mass
    ------------   -----------------  -----------------  -----------------  -----------------
           H         -3.395714617427     1.084728261714    -1.000160453574     1.007825032070
           O         -3.427058617427     0.141205261714    -0.921461453574    15.994914619560
           C         -3.156136617427    -0.222568738286     0.408234546426    12.000000000000
           C         -1.740975617427     0.134430261714     0.849251546426    12.000000000000
           H         -3.302842617427    -1.294659738286     0.455018546426     1.007825032070
           H         -3.880749617427     0.233052261714     1.081013546426     1.007825032070
           C         -0.652645617427    -0.559954738286     0.029565546426    12.000000000000
           H         -1.612817617427     1.215595261714     0.789084546426     1.007825032070
           H         -1.634639617427    -0.124972738286     1.901213546426     1.007825032070
           C          0.763283382573    -0.177482738286     0.465500546426    12.000000000000
           H         -0.790028617427    -0.320865738286    -1.020516453574     1.007825032070
           H         -0.777781617427    -1.638052738286     0.115817546426     1.007825032070
           C          1.819297382573    -0.507222738286    -0.592889453574    12.000000000000
           H          0.787449382573     0.884910261714     0.696057546426     1.007825032070
           H          1.009867382573    -0.696403738286     1.390984546426     1.007825032070
           C          3.264546382573    -0.223984738286    -0.167229453574    12.000000000000
           H          1.599377382573     0.045774261714    -1.504769453574     1.007825032070
           H          1.736043382573    -1.560964738286    -0.850792453574     1.007825032070
           C          3.584319382573     1.255823261714     0.052584546426    12.000000000000
           H          3.931426382573    -0.614204738286    -0.932271453574     1.007825032070
           H          3.487530382573    -0.780392738286     0.741006546426     1.007825032070
           H          3.359085382573     1.839639261714    -0.835991453574     1.007825032070
           H          4.637319382573     1.393203261714     0.278759546426     1.007825032070
           H          3.017780382573     1.676065261714     0.876959546426     1.007825032070

  Charge       = 0
  Multiplicity = 1
  Basis Set: 6-31G*
  Basis Set:

    Orbital Energies (a.u.)
    -----------------------

    Doubly Occupied:

       1A    -20.553567     2A    -11.267620     3A    -11.217540
       4A    -11.213960     5A    -11.212162     6A    -11.211552
       7A    -11.210807     8A    -11.207482     9A     -1.360138
      10A     -1.088569    11A     -1.048269    12A     -0.985607
      13A     -0.914969    14A     -0.850381    15A     -0.801105
      16A     -0.776363    17A     -0.679446    18A     -0.650797
      19A     -0.627244    20A     -0.618412    21A     -0.598095
      22A     -0.586811    23A     -0.552886    24A     -0.545200
      25A     -0.513820    26A     -0.505921    27A     -0.502635
      28A     -0.471226    29A     -0.467798    30A     -0.458303
      31A     -0.456904    32A     -0.450897    33A     -0.418505

  @DF-RHF Final Energy:  -349.24646874264693

   => Energetics <=

    Nuclear Repulsion Energy =            385.0195080458587427
    One-Electron Energy =               -1236.4818740215700927
    Two-Electron Energy =                 502.2158972330650499
    DFT Exchange-Correlation Energy =       0.0000000000000000
    Empirical Dispersion Energy =           0.0000000000000000
    PCM Polarization Energy =               0.0000000000000000
    EFP Energy =                            0.0000000000000000
    Total Energy =                       -349.2464687426463001

  Mulliken Charges: (a.u.)
   Center  Symbol    Alpha    Beta     Spin     Total
       1     H     0.28339  0.28339  0.00000  0.43322
       2     O     4.36825  4.36825  0.00000 -0.73650
       3     C     2.99633  2.99633  0.00000  0.00734
       4     C     3.16960  3.16960  0.00000 -0.33920
       5     H     0.41636  0.41636  0.00000  0.16729
       6     H     0.42819  0.42819  0.00000  0.14362
       7     C     3.15243  3.15243  0.00000 -0.30486
       8     H     0.42817  0.42817  0.00000  0.14366
       9     H     0.42232  0.42232  0.00000  0.15536
      10     C     3.15403  3.15403  0.00000 -0.30807
      11     H     0.41182  0.41182  0.00000  0.17636
      12     H     0.42264  0.42264  0.00000  0.15473
      13     C     3.15286  3.15286  0.00000 -0.30572
      14     H     0.42313  0.42313  0.00000  0.15373
      15     H     0.42410  0.42410  0.00000  0.15179
      16     C     3.15251  3.15251  0.00000 -0.30503
      17     H     0.42386  0.42386  0.00000  0.15227
      18     H     0.42167  0.42167  0.00000  0.15665
      19     C     3.24101  3.24101  0.00000 -0.48202
      20     H     0.42108  0.42108  0.00000  0.15784
      21     H     0.42370  0.42370  0.00000  0.15259
      22     H     0.42254  0.42254  0.00000  0.15491
      23     H     0.41949  0.41949  0.00000  0.16103
      24     H     0.42051  0.42051  0.00000  0.15898

   Total alpha = 33.00000, Total beta = 33.00000, Total charge = -0.00000
