  ==> Input File <==

--------------------------------------------------------------------------
set {
	reference rhf
	basis cc-pvtz
}

set_num_threads( 4 )
memory 2 gb

molecule MOL {
0 1

H	 -0.357422	 -1.841559	 0.490451
C	 -1.374185	 -1.478535	 0.358957
O	 -1.401606	 -0.295183	 -0.366624
H	 -1.938466	 -2.217093	 -0.191503
H	 -1.825177	 -1.355575	 1.341999
C	 -0.718530	 0.758693	 0.228682
C	 0.718529	 0.758687	 -0.228709
H	 -1.176498	 1.708665	 -0.046615
H	 -0.748705	 0.673525	 1.312779
O	 1.401606	 -0.295166	 0.366636
H	 0.748705	 0.673477	 -1.312803
H	 1.176496	 1.708671	 0.046552
C	 2.714315	 -0.441627	 -0.061017
H	 2.765292	 -0.641548	 -1.128869
H	 3.305661	 0.447341	 0.150952
H	 3.143725	 -1.278506	 0.470147

	symmetry c1
}
set optking {
	frozen_dihedral = ("
		2 3 6 7
	")
}

ee = optimize('scf')
oeprop('DIPOLE', 'QUADRUPOLE', 'MULLIKEN_CHARGES')
f=open( 'psi4out.xyz', 'w' )
f.write( "16  " )
f.write( str(ee) + "\n" )
f.write( MOL.save_string_xyz() )
f.close()
--------------------------------------------------------------------------

    Molecular point group: c1
  Charge       = 0
  Multiplicity = 1
  Basis Set: CC-PVTZ
  Basis Set:
  @DF-RHF Final Energy:  -307.09477165417422
    Total Energy =                       -307.0947716541741670
    Molecular point group: c1
  Basis Set: CC-PVTZ
  Basis Set:
  Basis Set: CC-PVTZ
  Basis Set:
  @DF-RHF Final Energy:  -307.09667753843127
    Total Energy =                       -307.0966775384313223
  Basis Set: CC-PVTZ
  Basis Set:
  Basis Set: CC-PVTZ
  Basis Set:
  @DF-RHF Final Energy:  -307.09687343991033
    Total Energy =                       -307.0968734399103823
  Basis Set: CC-PVTZ
  Basis Set:
  Basis Set: CC-PVTZ
  Basis Set:
  @DF-RHF Final Energy:  -307.09688840090212
    Total Energy =                       -307.0968884009021167
  Basis Set: CC-PVTZ
  Basis Set:
  Charge       = 0
  Multiplicity = 1
  Basis Set: CC-PVTZ
  Basis Set:

    Orbital Energies (a.u.)
    -----------------------

    Doubly Occupied:

       1A    -20.554394     2A    -20.543606     3A    -11.268188
       4A    -11.266708     5A    -11.266499     6A    -11.252865
       7A     -1.392458     8A     -1.370651     9A     -1.029524
      10A     -0.944356    11A     -0.890751    12A     -0.821382
      13A     -0.688519    14A     -0.680551    15A     -0.660914
      16A     -0.635599    17A     -0.626136    18A     -0.600255
      19A     -0.552530    20A     -0.528922    21A     -0.521561
      22A     -0.483146    23A     -0.465870    24A     -0.425361
      25A     -0.406502

  @DF-RHF Final Energy:  -307.09688928066981

   => Energetics <=

    Nuclear Repulsion Energy =            263.2169375285367892
    One-Electron Energy =                -940.8731658749580902
    Two-Electron Energy =                 370.5593390657516011
    DFT Exchange-Correlation Energy =       0.0000000000000000
    Empirical Dispersion Energy =           0.0000000000000000
    PCM Polarization Energy =               0.0000000000000000
    EFP Energy =                            0.0000000000000000
    Total Energy =                       -307.0968892806697568
    Molecular point group: c1
  Basis Set: CC-PVTZ
  Basis Set:

  -Total Gradient:
     Atom            X                  Y                   Z
    ------   -----------------  -----------------  -----------------
       1        0.000009903993    -0.000011765230     0.000007192819
       2        0.000112237774    -0.000060284713    -0.000010669750
       3       -0.000134303565     0.000084649182     0.000049560238
       4       -0.000001416493     0.000021065390     0.000010123960
       5       -0.000001194055     0.000002191586    -0.000010763196
       6        0.000059130088     0.000045957613    -0.000085235758
       7       -0.000049386589    -0.000039372489     0.000020192123
       8       -0.000003609170    -0.000009334987    -0.000020803580
       9       -0.000013176746    -0.000020127461     0.000001982787
      10       -0.000020179481    -0.000005106925    -0.000004030577
      11        0.000015963965    -0.000007153046     0.000007718157
      12        0.000011741946     0.000001437242     0.000022749449
      13        0.000009672563     0.000001392087     0.000020666238
      14       -0.000011162250     0.000003960069     0.000005278189
      15       -0.000000901233    -0.000001948733    -0.000006687222
      16        0.000016679252    -0.000005559588    -0.000007273877

  **** Optimization is complete! (in 5 steps) ****
    Final optimized geometry and variables:
    Molecular point group: c1

    Geometry (in Angstrom), charge = 0, multiplicity = 1:

    H           -0.738599904561    -1.789127648136     0.362031242008
    C           -1.713826406343    -1.321962514509     0.320992241178
    O           -1.688248088021    -0.118116970317    -0.384996655331
    H           -2.402632582188    -1.977527145686    -0.192613066133
    H           -2.071814974974    -1.171385887295     1.336832236600
    C           -0.934330694066     0.914357888136     0.167055301883
    C            0.507365868792     0.932140608932    -0.292945545575
    H           -1.395801167894     1.841894586657    -0.151242391411
    H           -0.966523984734     0.880361332005     1.253225386172
    O            1.218120571388    -0.116174061192     0.287319592392
    H            0.537810036594     0.857105963490    -1.377992063785
    H            0.951798455485     1.886943710870    -0.010076592470
    C            2.546154407259    -0.198677096276    -0.113368049365
    H            2.628797170626    -0.357841060986    -1.185899198214
    H            3.095475107131     0.704504989711     0.143731392541
    H            2.996166809567    -1.036506083806     0.399016808122

  Mulliken Charges: (a.u.)
   Center  Symbol    Alpha    Beta     Spin     Total
       1     H     0.46119  0.46119  0.00000  0.07763
       2     C     3.03111  3.03111  0.00000 -0.06222
       3     O     4.18264  4.18264  0.00000 -0.36528
       4     H     0.45010  0.45010  0.00000  0.09979
       5     H     0.47342  0.47342  0.00000  0.05316
       6     C     2.97420  2.97420  0.00000  0.05159
       7     C     2.97158  2.97158  0.00000  0.05684
       8     H     0.45103  0.45103  0.00000  0.09795
       9     H     0.46831  0.46831  0.00000  0.06338
      10     O     4.17585  4.17585  0.00000 -0.35169
      11     H     0.47027  0.47027  0.00000  0.05946
      12     H     0.47137  0.47137  0.00000  0.05726
      13     C     3.03373  3.03373  0.00000 -0.06747
      14     H     0.46919  0.46919  0.00000  0.06161
      15     H     0.46912  0.46912  0.00000  0.06176
      16     H     0.44689  0.44689  0.00000  0.10623

   Total alpha = 25.00000, Total beta = 25.00000, Total charge = -0.00000
