  ==> Input File <==

--------------------------------------------------------------------------
set {
	reference rhf
	basis 6-31G*
}

set_num_threads( 1 )
memory 2 gb

molecule MOL {
0 1

O	 -1.276010	 1.052711	 -0.768302
C	 -1.204840	 0.067374	 -0.106123
C	 -2.388195	 -0.672128	 0.458071
O	 -0.067104	 -0.527208	 0.221609
H	 -2.388023	 -1.694060	 0.097175
H	 -3.300579	 -0.174919	 0.164318
H	 -2.315377	 -0.706351	 1.539059
C	 0.487138	 -0.300352	 1.525173
C	 1.980599	 -0.539190	 1.390566
C	 -0.175584	 -1.226045	 2.533408
H	 0.295567	 0.728360	 1.792679
H	 2.410149	 0.128532	 0.652406
H	 2.474375	 -0.363202	 2.340590
H	 2.179519	 -1.560657	 1.084477
H	 0.255707	 -1.075456	 3.517953
H	 -1.237976	 -1.027698	 2.596312
H	 -0.027439	 -2.263308	 2.250306

	symmetry c1
}
set optking {
	frozen_dihedral = ("
		11 8 4 2
	")
}

ee = energy('scf')
oeprop('DIPOLE', 'QUADRUPOLE', 'MULLIKEN_CHARGES')
f=open( 'psi4out.xyz', 'w' )
f.write( "17  " )
f.write( str(ee) + "\n" )
f.write( MOL.save_string_xyz() )
f.close()
--------------------------------------------------------------------------

    Molecular point group: c1

    Geometry (in Angstrom), charge = 0, multiplicity = 1:

       Center              X                  Y                   Z               Mass
    ------------   -----------------  -----------------  -----------------  -----------------
           O         -0.896257602119     1.363387406526    -1.522990282715    15.994914619560
           C         -0.825087602119     0.378050406526    -0.860811282715    12.000000000000
           C         -2.008442602119    -0.361451593474    -0.296617282715    12.000000000000
           O          0.312648397881    -0.216531593474    -0.533079282715    15.994914619560
           H         -2.008270602119    -1.383383593474    -0.657513282715     1.007825032070
           H         -2.920826602119     0.135757406526    -0.590370282715     1.007825032070
           H         -1.935624602119    -0.395674593474     0.784370717285     1.007825032070
           C          0.866890397881     0.010324406526     0.770484717285    12.000000000000
           C          2.360351397881    -0.228513593474     0.635877717285    12.000000000000
           C          0.204168397881    -0.915368593474     1.778719717285    12.000000000000
           H          0.675319397881     1.039036406526     1.037990717285     1.007825032070
           H          2.789901397881     0.439208406526    -0.102282282715     1.007825032070
           H          2.854127397881    -0.052525593474     1.585901717285     1.007825032070
           H          2.559271397881    -1.249980593474     0.329788717285     1.007825032070
           H          0.635459397881    -0.764779593474     2.763264717285     1.007825032070
           H         -0.858223602119    -0.717021593474     1.841623717285     1.007825032070
           H          0.352313397881    -1.952631593474     1.495617717285     1.007825032070

  Charge       = 0
  Multiplicity = 1
  Basis Set: 6-31G*
  Basis Set:

    Orbital Energies (a.u.)
    -----------------------

    Doubly Occupied:

       1A    -20.582155     2A    -20.552169     3A    -11.374616
       4A    -11.306937     5A    -11.229914     6A    -11.228928
       7A    -11.224655     8A     -1.459713     9A     -1.365806
      10A     -1.080022    11A     -1.016425    12A     -0.956317
      13A     -0.852247    14A     -0.775885    15A     -0.699374
      16A     -0.672297    17A     -0.667110    18A     -0.617198
      19A     -0.598574    20A     -0.582603    21A     -0.570686
      22A     -0.556584    23A     -0.551264    24A     -0.521762
      25A     -0.492486    26A     -0.481054    27A     -0.449423
      28A     -0.435727

  @DF-RHF Final Energy:  -344.88000069091572

   => Energetics <=

    Nuclear Repulsion Energy =            325.0059294366203630
    One-Electron Energy =               -1113.9679704898805994
    Two-Electron Energy =                 444.0820403623445145
    DFT Exchange-Correlation Energy =       0.0000000000000000
    Empirical Dispersion Energy =           0.0000000000000000
    PCM Polarization Energy =               0.0000000000000000
    EFP Energy =                            0.0000000000000000
    Total Energy =                       -344.8800006909157219

  Mulliken Charges: (a.u.)
   Center  Symbol    Alpha    Beta     Spin     Total
       1     O     4.25653  4.25653  0.00000 -0.51307
       2     C     2.62686  2.62686  0.00000  0.74627
       3     C     3.28859  3.28859  0.00000 -0.57718
       4     O     4.31561  4.31561  0.00000 -0.63121
       5     H     0.39932  0.39932  0.00000  0.20137
       6     H     0.39854  0.39854  0.00000  0.20292
       7     H     0.41061  0.41061  0.00000  0.17878
       8     C     2.92980  2.92980  0.00000  0.14039
       9     C     3.23989  3.23989  0.00000 -0.47977
      10     C     3.24703  3.24703  0.00000 -0.49406
      11     H     0.41084  0.41084  0.00000  0.17831
      12     H     0.40367  0.40367  0.00000  0.19267
      13     H     0.41893  0.41893  0.00000  0.16215
      14     H     0.41141  0.41141  0.00000  0.17717
      15     H     0.41471  0.41471  0.00000  0.17057
      16     H     0.41767  0.41767  0.00000  0.16466
      17     H     0.40998  0.40998  0.00000  0.18003

   Total alpha = 28.00000, Total beta = 28.00000, Total charge = -0.00000
