  ==> Input File <==

--------------------------------------------------------------------------
set {
	reference rhf
	basis 6-31G*
}

set_num_threads( 1 )
memory 2 gb

molecule MOL {
0 1

H	 -2.798360	 -0.862255	 -0.071053
N	 -1.863561	 -0.715187	 0.256814
C	 -1.344686	 0.554728	 -0.219830
H	 -1.300452	 -1.461917	 -0.101532
C	 -2.458125	 1.363981	 -0.851099
H	 -0.879719	 1.159427	 0.560008
H	 -0.588984	 0.359459	 -0.974525
O	 -3.389653	 1.679131	 0.143900
H	 -2.057312	 2.276787	 -1.291296
H	 -2.930664	 0.782826	 -1.639896
C	 -4.516414	 2.353871	 -0.317301
H	 -5.156902	 2.542613	 0.533492
H	 -4.251036	 3.305175	 -0.775096
H	 -5.064156	 1.760788	 -1.046711

	symmetry c1
}
set optking {
	frozen_dihedral = ("
		8 5 3 6,
		5 8 11 13,
		11 8 5 3
	")
}

ee = energy('scf')
oeprop('DIPOLE', 'QUADRUPOLE', 'MULLIKEN_CHARGES')
f=open( 'psi4out.xyz', 'w' )
f.write( "14  " )
f.write( str(ee) + "\n" )
f.write( MOL.save_string_xyz() )
f.close()
--------------------------------------------------------------------------

    Molecular point group: c1

    Geometry (in Angstrom), charge = 0, multiplicity = 1:

       Center              X                  Y                   Z               Mass
    ------------   -----------------  -----------------  -----------------  -----------------
           H         -0.062629899006    -1.902023618457     0.136825738805     1.007825032070
           N          0.872169100994    -1.754955618457     0.464692738805    14.003074004780
           C          1.391044100994    -0.485040618457    -0.011951261195    12.000000000000
           H          1.435278100994    -2.501685618457     0.106346738805     1.007825032070
           C          0.277605100994     0.324212381543    -0.643220261195    12.000000000000
           H          1.856011100994     0.119658381543     0.767886738805     1.007825032070
           H          2.146746100994    -0.680309618457    -0.766646261195     1.007825032070
           O         -0.653922899006     0.639362381543     0.351778738805    15.994914619560
           H          0.678418100994     1.237018381543    -1.083417261195     1.007825032070
           H         -0.194933899006    -0.256942618457    -1.432017261195     1.007825032070
           C         -1.780683899006     1.314102381543    -0.109422261195    12.000000000000
           H         -2.421171899006     1.502844381543     0.741370738805     1.007825032070
           H         -1.515305899006     2.265406381543    -0.567217261195     1.007825032070
           H         -2.328425899006     0.721019381543    -0.838832261195     1.007825032070

  Charge       = 0
  Multiplicity = 1
  Basis Set: 6-31G*
  Basis Set:

    Orbital Energies (a.u.)
    -----------------------

    Doubly Occupied:

       1A    -20.558075     2A    -15.527675     3A    -11.271995
       4A    -11.267297     5A    -11.242045     6A     -1.382667
       7A     -1.176398     8A     -1.000229     9A     -0.907582
      10A     -0.823020    11A     -0.687341    12A     -0.671786
      13A     -0.650230    14A     -0.610299    15A     -0.587757
      16A     -0.572421    17A     -0.522502    18A     -0.498453
      19A     -0.474700    20A     -0.421173    21A     -0.374847

  @DF-RHF Final Energy:  -248.11566212234678

   => Energetics <=

    Nuclear Repulsion Energy =            194.8620211387734855
    One-Electron Energy =                -723.4982986144657389
    Two-Electron Energy =                 280.5206153533448514
    DFT Exchange-Correlation Energy =       0.0000000000000000
    Empirical Dispersion Energy =           0.0000000000000000
    PCM Polarization Energy =               0.0000000000000000
    EFP Energy =                            0.0000000000000000
    Total Energy =                       -248.1156621223474303

  Mulliken Charges: (a.u.)
   Center  Symbol    Alpha    Beta     Spin     Total
       1     H     0.32820  0.32820  0.00000  0.34359
       2     N     3.92067  3.92067  0.00000 -0.84134
       3     C     3.05465  3.05465  0.00000 -0.10929
       4     H     0.33467  0.33467  0.00000  0.33066
       5     C     3.00646  3.00646  0.00000 -0.01293
       6     H     0.41253  0.41253  0.00000  0.17494
       7     H     0.42972  0.42972  0.00000  0.14056
       8     O     4.30049  4.30049  0.00000 -0.60098
       9     H     0.42773  0.42773  0.00000  0.14453
      10     H     0.43448  0.43448  0.00000  0.13104
      11     C     3.07941  3.07941  0.00000 -0.15881
      12     H     0.40994  0.40994  0.00000  0.18012
      13     H     0.42992  0.42992  0.00000  0.14016
      14     H     0.43112  0.43112  0.00000  0.13775

   Total alpha = 21.00000, Total beta = 21.00000, Total charge =  0.00000
