  ==> Input File <==

--------------------------------------------------------------------------
set {
	reference rhf
	basis cc-pvtz
}

set_num_threads( 4 )
memory 2 gb

molecule MOL {
0 1

H	 -2.698799	 -0.000846	 0.036018
C	 -1.694291	 -0.000483	 0.434279
O	 -0.828718	 -0.000608	 -0.655022
H	 -1.576855	 0.881100	 1.056504
H	 -1.576401	 -0.881658	 1.057001
C	 0.557892	 0.000078	 -0.420099
C	 1.230794	 1.284985	 -0.889662
C	 0.907422	 -0.342162	 1.023836
H	 0.915396	 -0.807635	 -1.046525
H	 0.931605	 1.518198	 -1.904136
H	 2.307675	 1.163504	 -0.871899
H	 0.987352	 2.130236	 -0.256519
H	 0.384048	 -1.237405	 1.336347
H	 1.972574	 -0.522692	 1.111206
H	 0.655301	 0.459861	 1.707748

	symmetry c1
}
set optking {
	frozen_dihedral = ("
		9 6 3 2
	")
}

ee = optimize('scf')
oeprop('DIPOLE', 'QUADRUPOLE', 'MULLIKEN_CHARGES')
f=open( 'psi4out.xyz', 'w' )
f.write( "15  " )
f.write( str(ee) + "\n" )
f.write( MOL.save_string_xyz() )
f.close()
--------------------------------------------------------------------------

    Molecular point group: c1
  Charge       = 0
  Multiplicity = 1
  Basis Set: CC-PVTZ
  Basis Set:
  @DF-RHF Final Energy:  -232.21907720481053
    Total Energy =                       -232.2190772048105600
    Molecular point group: c1
  Basis Set: CC-PVTZ
  Basis Set:
  Basis Set: CC-PVTZ
  Basis Set:
  @DF-RHF Final Energy:  -232.21954792237378
    Total Energy =                       -232.2195479223739767
  Basis Set: CC-PVTZ
  Basis Set:
  Basis Set: CC-PVTZ
  Basis Set:
  @DF-RHF Final Energy:  -232.22190960276328
    Total Energy =                       -232.2219096027632759
  Basis Set: CC-PVTZ
  Basis Set:
  Basis Set: CC-PVTZ
  Basis Set:
  @DF-RHF Final Energy:  -232.22207127114066
    Total Energy =                       -232.2220712711406350
  Basis Set: CC-PVTZ
  Basis Set:
  Basis Set: CC-PVTZ
  Basis Set:
  @DF-RHF Final Energy:  -232.22211015103002
    Total Energy =                       -232.2221101510299945
  Basis Set: CC-PVTZ
  Basis Set:
  Basis Set: CC-PVTZ
  Basis Set:
  @DF-RHF Final Energy:  -232.22211972142310
    Total Energy =                       -232.2221197214230415
  Basis Set: CC-PVTZ
  Basis Set:
  Charge       = 0
  Multiplicity = 1
  Basis Set: CC-PVTZ
  Basis Set:

    Orbital Energies (a.u.)
    -----------------------

    Doubly Occupied:

       1A    -20.538718     2A    -11.273156     3A    -11.259735
       4A    -11.213225     5A    -11.204110     6A     -1.369482
       7A     -1.053501     8A     -0.948526     9A     -0.919512
      10A     -0.781858    11A     -0.676333    12A     -0.644016
      13A     -0.632634    14A     -0.582813    15A     -0.554821
      16A     -0.543609    17A     -0.535687    18A     -0.507735
      19A     -0.493062    20A     -0.447516    21A     -0.401510

  @DF-RHF Final Energy:  -232.22212003825700

   => Energetics <=

    Nuclear Repulsion Energy =            198.2952680946844453
    One-Electron Energy =                -707.8716569661000904
    Two-Electron Energy =                 277.3542688331586987
    DFT Exchange-Correlation Energy =       0.0000000000000000
    Empirical Dispersion Energy =           0.0000000000000000
    PCM Polarization Energy =               0.0000000000000000
    EFP Energy =                            0.0000000000000000
    Total Energy =                       -232.2221200382569464
    Molecular point group: c1
  Basis Set: CC-PVTZ
  Basis Set:

  -Total Gradient:
     Atom            X                  Y                   Z
    ------   -----------------  -----------------  -----------------
       1       -0.000000527810    -0.000005460329    -0.000004897112
       2       -0.000097017455    -0.001798353245    -0.000005423046
       3        0.000078811049     0.002498342974     0.000383784948
       4       -0.000006024475     0.000002156254     0.000001094118
       5        0.000006328594    -0.000000288011    -0.000013145310
       6        0.000329302601     0.000597540157    -0.001946373517
       7       -0.000015484071     0.000019192100     0.000027754838
       8        0.000006255708     0.000013805973    -0.000004292398
       9       -0.000286688800    -0.001334478679     0.001554003479
      10        0.000002380014    -0.000018425143     0.000000807804
      11       -0.000019711864    -0.000010497346     0.000013428749
      12        0.000004922898     0.000031610304     0.000001275441
      13       -0.000007461310    -0.000000397763    -0.000001375081
      14       -0.000006593946    -0.000000320610    -0.000013531476
      15        0.000011508865     0.000005573366     0.000006888560

  **** Optimization is complete! (in 7 steps) ****
    Final optimized geometry and variables:
    Molecular point group: c1

    Geometry (in Angstrom), charge = 0, multiplicity = 1:

    H           -2.731083383871    -0.063115216324     0.042921527827
    C           -1.750779340809    -0.138467513549     0.491748788148
    O           -0.837392344440    -0.168761615255    -0.555560263220
    H           -1.611997163544     0.719934356119     1.142952462461
    H           -1.723663404593    -1.039126721733     1.095986100396
    C            0.553966994601    -0.227544358601    -0.318871438372
    C            1.177809735972     1.074223895233    -0.797897981382
    C            0.959897719486    -0.555355441146     1.113779675052
    H            0.915808694521    -1.040753042210    -0.939814764087
    H            0.886488539703     1.270714605943    -1.821458669752
    H            2.260266996075     1.027330752776    -0.749890013412
    H            0.844793814139     1.906179519473    -0.186084212968
    H            0.543023643254    -1.498027269737     1.444114049606
    H            2.038862408386    -0.642025184824     1.155507217268
    H            0.664447167677     0.217220367602     1.813340642199

  Mulliken Charges: (a.u.)
   Center  Symbol    Alpha    Beta     Spin     Total
       1     H     0.44197  0.44197  0.00000  0.11606
       2     C     3.03706  3.03706  0.00000 -0.07412
       3     O     4.18977  4.18977  0.00000 -0.37955
       4     H     0.47134  0.47134  0.00000  0.05731
       5     H     0.46888  0.46888  0.00000  0.06224
       6     C     2.92520  2.92520  0.00000  0.14960
       7     C     3.13976  3.13976  0.00000 -0.27953
       8     C     3.17218  3.17218  0.00000 -0.34436
       9     H     0.45278  0.45278  0.00000  0.09445
      10     H     0.44603  0.44603  0.00000  0.10794
      11     H     0.45830  0.45830  0.00000  0.08339
      12     H     0.45781  0.45781  0.00000  0.08438
      13     H     0.44463  0.44463  0.00000  0.11075
      14     H     0.44358  0.44358  0.00000  0.11284
      15     H     0.45070  0.45070  0.00000  0.09860

   Total alpha = 21.00000, Total beta = 21.00000, Total charge = -0.00000
