  ==> Input File <==

--------------------------------------------------------------------------
set {
	reference rhf
	basis 6-31G*
}

set_num_threads( 1 )
memory 2 gb

molecule MOL {
0 1

H	 2.182651	 -0.674103	 -4.870547
C	 2.492439	 0.020406	 -4.095815
C	 1.334153	 0.351807	 -3.155748
H	 3.315892	 -0.434810	 -3.553556
H	 2.871247	 0.913905	 -4.584653
C	 1.735451	 1.335292	 -2.054144
H	 0.964421	 -0.563964	 -2.706011
H	 0.512423	 0.773459	 -3.732515
C	 0.591420	 1.700110	 -1.107907
H	 2.552407	 0.919341	 -1.475169
H	 2.105172	 2.250026	 -2.511976
C	 0.169600	 0.576866	 -0.172154
H	 0.889760	 2.534763	 -0.475358
H	 -0.276537	 2.048133	 -1.663522
C	 -1.181045	 0.701995	 0.511084
O	 0.876998	 -0.362511	 0.036566
C	 -2.285934	 -0.139295	 -0.145128
H	 -1.449051	 1.751551	 0.493206
H	 -1.071135	 0.403303	 1.551943
C	 -3.651768	 0.085446	 0.506485
H	 -2.346596	 0.110469	 -1.202272
H	 -2.034737	 -1.195320	 -0.088721
C	 -4.759797	 -0.746382	 -0.137905
H	 -3.908762	 1.140117	 0.445781
H	 -3.588286	 -0.154158	 1.565709
H	 -4.868882	 -0.505166	 -1.191300
H	 -4.548009	 -1.809175	 -0.062213
H	 -5.715422	 -0.564821	 0.343442

	symmetry c1
}
set optking {
	frozen_dihedral = ("
		10 6 3 2,
		12 15 17 21
	")
}

ee = energy('scf')
oeprop('DIPOLE', 'QUADRUPOLE', 'MULLIKEN_CHARGES')
f=open( 'psi4out.xyz', 'w' )
f.write( "28  " )
f.write( str(ee) + "\n" )
f.write( MOL.save_string_xyz() )
f.close()
--------------------------------------------------------------------------

    Molecular point group: c1

    Geometry (in Angstrom), charge = 0, multiplicity = 1:

       Center              X                  Y                   Z               Mass
    ------------   -----------------  -----------------  -----------------  -----------------
           H          2.655188601194    -1.010643848403    -3.874786096546     1.007825032070
           C          2.964976601194    -0.316134848403    -3.100054096546    12.000000000000
           C          1.806690601194     0.015266151597    -2.159987096546    12.000000000000
           H          3.788429601194    -0.771350848403    -2.557795096546     1.007825032070
           H          3.343784601194     0.577364151597    -3.588892096546     1.007825032070
           C          2.207988601194     0.998751151597    -1.058383096546    12.000000000000
           H          1.436958601194    -0.900504848403    -1.710250096546     1.007825032070
           H          0.984960601194     0.436918151597    -2.736754096546     1.007825032070
           C          1.063957601194     1.363569151597    -0.112146096546    12.000000000000
           H          3.024944601194     0.582800151597    -0.479408096546     1.007825032070
           H          2.577709601194     1.913485151597    -1.516215096546     1.007825032070
           C          0.642137601194     0.240325151597     0.823606903454    12.000000000000
           H          1.362297601194     2.198222151597     0.520402903454     1.007825032070
           H          0.196000601194     1.711592151597    -0.667761096546     1.007825032070
           C         -0.708507398806     0.365454151597     1.506844903454    12.000000000000
           O          1.349535601194    -0.699051848403     1.032326903454    15.994914619560
           C         -1.813396398806    -0.475835848403     0.850632903454    12.000000000000
           H         -0.976513398806     1.415010151597     1.488966903454     1.007825032070
           H         -0.598597398806     0.066762151597     2.547703903454     1.007825032070
           C         -3.179230398806    -0.251094848403     1.502245903454    12.000000000000
           H         -1.874058398806    -0.226071848403    -0.206511096546     1.007825032070
           H         -1.562199398806    -1.531860848403     0.907039903454     1.007825032070
           C         -4.287259398806    -1.082922848403     0.857855903454    12.000000000000
           H         -3.436224398806     0.803576151597     1.441541903454     1.007825032070
           H         -3.115748398806    -0.490698848403     2.561469903454     1.007825032070
           H         -4.396344398806    -0.841706848403    -0.195539096546     1.007825032070
           H         -4.075471398806    -2.145715848403     0.933547903454     1.007825032070
           H         -5.242884398806    -0.901361848403     1.339202903454     1.007825032070

  Charge       = 0
  Multiplicity = 1
  Basis Set: 6-31G*
  Basis Set:

    Orbital Energies (a.u.)
    -----------------------

    Doubly Occupied:

       1A    -20.546808     2A    -11.322055     3A    -11.230815
       4A    -11.230504     5A    -11.228889     6A    -11.224609
       7A    -11.216364     8A    -11.214852     9A    -11.212595
      10A    -11.205922    11A     -1.392523    12A     -1.092471
      13A     -1.077902    14A     -1.022277    15A     -0.991254
      16A     -0.909784    17A     -0.869447    18A     -0.807441
      19A     -0.798214    20A     -0.723599    21A     -0.668149
      22A     -0.654214    23A     -0.623615    24A     -0.619089
      25A     -0.609874    26A     -0.589550    27A     -0.575350
      28A     -0.573596    29A     -0.543291    30A     -0.530669
      31A     -0.516682    32A     -0.509371    33A     -0.503631
      34A     -0.481850    35A     -0.478289    36A     -0.472622
      37A     -0.468782    38A     -0.465649    39A     -0.455878
      40A     -0.391649

  @DF-RHF Final Energy:  -426.16904553208531

   => Energetics <=

    Nuclear Repulsion Energy =            534.3870016352856283
    One-Electron Energy =               -1637.0117355869986113
    Two-Electron Energy =                 676.4556884196272222
    DFT Exchange-Correlation Energy =       0.0000000000000000
    Empirical Dispersion Energy =           0.0000000000000000
    PCM Polarization Energy =               0.0000000000000000
    EFP Energy =                            0.0000000000000000
    Total Energy =                       -426.1690455320858746

  Mulliken Charges: (a.u.)
   Center  Symbol    Alpha    Beta     Spin     Total
       1     H     0.41941  0.41941  0.00000  0.16118
       2     C     3.24009  3.24009  0.00000 -0.48018
       3     C     3.15630  3.15630  0.00000 -0.31260
       4     H     0.41822  0.41822  0.00000  0.16355
       5     H     0.42355  0.42355  0.00000  0.15290
       6     C     3.14983  3.14983  0.00000 -0.29966
       7     H     0.41051  0.41051  0.00000  0.17897
       8     H     0.42785  0.42785  0.00000  0.14429
       9     C     3.21397  3.21397  0.00000 -0.42794
      10     H     0.40637  0.40637  0.00000  0.18725
      11     H     0.42187  0.42187  0.00000  0.15627
      12     C     2.73285  2.73285  0.00000  0.53429
      13     H     0.40351  0.40351  0.00000  0.19298
      14     H     0.41235  0.41235  0.00000  0.17529
      15     C     3.19795  3.19795  0.00000 -0.39591
      16     O     4.26768  4.26768  0.00000 -0.53536
      17     C     3.15846  3.15846  0.00000 -0.31691
      18     H     0.41714  0.41714  0.00000  0.16572
      19     H     0.40202  0.40202  0.00000  0.19597
      20     C     3.15241  3.15241  0.00000 -0.30481
      21     H     0.42035  0.42035  0.00000  0.15931
      22     H     0.40779  0.40779  0.00000  0.18442
      23     C     3.24033  3.24033  0.00000 -0.48066
      24     H     0.42211  0.42211  0.00000  0.15578
      25     H     0.41963  0.41963  0.00000  0.16075
      26     H     0.42088  0.42088  0.00000  0.15824
      27     H     0.41914  0.41914  0.00000  0.16172
      28     H     0.41742  0.41742  0.00000  0.16516

   Total alpha = 40.00000, Total beta = 40.00000, Total charge = -0.00000
